 clch3f_ts-wavefunction
GAUSSIAN            211 MOL ORBITALS    339 PRIMITIVES        6 NUCLEI
  C    1    (CENTRE  1)   0.00033070  0.00005480 -0.94053370  CHARGE =  6.0
  H    2    (CENTRE  2)   0.00003590 -1.98906904 -1.17300214  CHARGE =  1.0
  H    3    (CENTRE  3)  -1.72213010  0.99468570 -1.17398291  CHARGE =  1.0
  H    4    (CENTRE  4)   1.72295780  0.99424539 -1.15569981  CHARGE =  1.0
  Cl   5    (CENTRE  5)   0.00104880  0.00181792  3.10806659  CHARGE = 17.0
  F    6    (CENTRE  6)  -0.00035149 -0.00174044 -4.90094425  CHARGE =  9.0
CENTRE ASSIGNMENTS    1  1  1  1  1  1  1  1  1  1  1  1  1  1  1  1  1  1  1  1
CENTRE ASSIGNMENTS    1  1  1  1  1  1  1  1  1  1  1  1  1  1  1  1  1  1  1  1
CENTRE ASSIGNMENTS    1  1  1  1  1  1  1  1  1  1  1  1  1  1  1  1  1  1  1  1
CENTRE ASSIGNMENTS    1  1  1  1  1  1  1  1  1  1  1  1  2  2  2  2  2  2  2  2
CENTRE ASSIGNMENTS    2  2  2  2  2  2  2  2  2  2  2  2  2  2  2  2  2  2  2  3
CENTRE ASSIGNMENTS    3  3  3  3  3  3  3  3  3  3  3  3  3  3  3  3  3  3  3  3
CENTRE ASSIGNMENTS    3  3  3  3  3  3  4  4  4  4  4  4  4  4  4  4  4  4  4  4
CENTRE ASSIGNMENTS    4  4  4  4  4  4  4  4  4  4  4  4  4  5  5  5  5  5  5  5
CENTRE ASSIGNMENTS    5  5  5  5  5  5  5  5  5  5  5  5  5  5  5  5  5  5  5  5
CENTRE ASSIGNMENTS    5  5  5  5  5  5  5  5  5  5  5  5  5  5  5  5  5  5  5  5
CENTRE ASSIGNMENTS    5  5  5  5  5  5  5  5  5  5  5  5  5  5  5  5  5  5  5  5
CENTRE ASSIGNMENTS    5  5  5  5  5  5  5  5  5  5  5  5  5  5  5  5  5  5  5  5
CENTRE ASSIGNMENTS    5  5  5  5  5  5  5  5  5  5  5  5  5  5  5  5  5  5  5  5
CENTRE ASSIGNMENTS    5  5  5  5  5  5  5  6  6  6  6  6  6  6  6  6  6  6  6  6
CENTRE ASSIGNMENTS    6  6  6  6  6  6  6  6  6  6  6  6  6  6  6  6  6  6  6  6
CENTRE ASSIGNMENTS    6  6  6  6  6  6  6  6  6  6  6  6  6  6  6  6  6  6  6  6
CENTRE ASSIGNMENTS    6  6  6  6  6  6  6  6  6  6  6  6  6  6  6  6  6  6  6
TYPE ASSIGNMENTS      1  1  1  1  1  1  1  1  1  1  1  1  1  1  1  1  2  2  2  3
TYPE ASSIGNMENTS      3  3  4  4  4  2  3  4  2  3  4  2  3  4  5  6  7  8  9 10
TYPE ASSIGNMENTS      5  6  7  8  9 10  5  6  7  8  9 10 11 12 13 17 14 15 18 19
TYPE ASSIGNMENTS     16 20 11 12 13 17 14 15 18 19 16 20  1  1  1  1  1  1  2  3
TYPE ASSIGNMENTS      4  2  3  4  2  3  4  5  6  7  8  9 10  5  6  7  8  9 10  1
TYPE ASSIGNMENTS      1  1  1  1  1  2  3  4  2  3  4  2  3  4  5  6  7  8  9 10
TYPE ASSIGNMENTS      5  6  7  8  9 10  1  1  1  1  1  1  2  3  4  2  3  4  2  3
TYPE ASSIGNMENTS      4  5  6  7  8  9 10  5  6  7  8  9 10  1  1  1  1  1  1  1
TYPE ASSIGNMENTS      1  1  1  1  1  1  1  1  1  1  1  1  1  1  1  1  1  1  1  1
TYPE ASSIGNMENTS      1  1  1  1  2  2  2  2  2  2  3  3  3  3  3  3  4  4  4  4
TYPE ASSIGNMENTS      4  4  2  2  2  2  2  2  3  3  3  3  3  3  4  4  4  4  4  4
TYPE ASSIGNMENTS      2  3  4  2  3  4  2  3  4  5  6  7  8  9 10  5  6  7  8  9
TYPE ASSIGNMENTS     10  5  6  7  8  9 10 11 12 13 17 14 15 18 19 16 20 11 12 13
TYPE ASSIGNMENTS     17 14 15 18 19 16 20  1  1  1  1  1  1  1  1  1  1  1  1  1
TYPE ASSIGNMENTS      1  1  1  2  2  2  3  3  3  4  4  4  2  3  4  2  3  4  2  3
TYPE ASSIGNMENTS      4  5  6  7  8  9 10  5  6  7  8  9 10  5  6  7  8  9 10 11
TYPE ASSIGNMENTS     12 13 17 14 15 18 19 16 20 11 12 13 17 14 15 18 19 16 20
EXPONENTS  0.8236000D+04 0.1235000D+04 0.2808000D+03 0.7927000D+02 0.2559000D+02
EXPONENTS  0.8997000D+01 0.3319000D+01 0.2808000D+03 0.7927000D+02 0.2559000D+02
EXPONENTS  0.8997000D+01 0.3319000D+01 0.3643000D+00 0.9059000D+00 0.1285000D+00
EXPONENTS  0.4402000D-01 0.1871000D+02 0.4133000D+01 0.1200000D+01 0.1871000D+02
EXPONENTS  0.4133000D+01 0.1200000D+01 0.1871000D+02 0.4133000D+01 0.1200000D+01
EXPONENTS  0.3827000D+00 0.3827000D+00 0.3827000D+00 0.1209000D+00 0.1209000D+00
EXPONENTS  0.1209000D+00 0.3569000D-01 0.3569000D-01 0.3569000D-01 0.1097000D+01
EXPONENTS  0.1097000D+01 0.1097000D+01 0.1097000D+01 0.1097000D+01 0.1097000D+01
EXPONENTS  0.3180000D+00 0.3180000D+00 0.3180000D+00 0.3180000D+00 0.3180000D+00
EXPONENTS  0.3180000D+00 0.1000000D+00 0.1000000D+00 0.1000000D+00 0.1000000D+00
EXPONENTS  0.1000000D+00 0.1000000D+00 0.7610000D+00 0.7610000D+00 0.7610000D+00
EXPONENTS  0.7610000D+00 0.7610000D+00 0.7610000D+00 0.7610000D+00 0.7610000D+00
EXPONENTS  0.7610000D+00 0.7610000D+00 0.2680000D+00 0.2680000D+00 0.2680000D+00
EXPONENTS  0.2680000D+00 0.2680000D+00 0.2680000D+00 0.2680000D+00 0.2680000D+00
EXPONENTS  0.2680000D+00 0.2680000D+00 0.3387000D+02 0.5095000D+01 0.1159000D+01
EXPONENTS  0.3258000D+00 0.1027000D+00 0.2526000D-01 0.1407000D+01 0.1407000D+01
EXPONENTS  0.1407000D+01 0.3880000D+00 0.3880000D+00 0.3880000D+00 0.1020000D+00
EXPONENTS  0.1020000D+00 0.1020000D+00 0.1057000D+01 0.1057000D+01 0.1057000D+01
EXPONENTS  0.1057000D+01 0.1057000D+01 0.1057000D+01 0.2470000D+00 0.2470000D+00
EXPONENTS  0.2470000D+00 0.2470000D+00 0.2470000D+00 0.2470000D+00 0.3387000D+02
EXPONENTS  0.5095000D+01 0.1159000D+01 0.3258000D+00 0.1027000D+00 0.2526000D-01
EXPONENTS  0.1407000D+01 0.1407000D+01 0.1407000D+01 0.3880000D+00 0.3880000D+00
EXPONENTS  0.3880000D+00 0.1020000D+00 0.1020000D+00 0.1020000D+00 0.1057000D+01
EXPONENTS  0.1057000D+01 0.1057000D+01 0.1057000D+01 0.1057000D+01 0.1057000D+01
EXPONENTS  0.2470000D+00 0.2470000D+00 0.2470000D+00 0.2470000D+00 0.2470000D+00
EXPONENTS  0.2470000D+00 0.3387000D+02 0.5095000D+01 0.1159000D+01 0.3258000D+00
EXPONENTS  0.1027000D+00 0.2526000D-01 0.1407000D+01 0.1407000D+01 0.1407000D+01
EXPONENTS  0.3880000D+00 0.3880000D+00 0.3880000D+00 0.1020000D+00 0.1020000D+00
EXPONENTS  0.1020000D+00 0.1057000D+01 0.1057000D+01 0.1057000D+01 0.1057000D+01
EXPONENTS  0.1057000D+01 0.1057000D+01 0.2470000D+00 0.2470000D+00 0.2470000D+00
EXPONENTS  0.2470000D+00 0.2470000D+00 0.2470000D+00 0.4561000D+06 0.6833000D+05
EXPONENTS  0.1555000D+05 0.4405000D+04 0.1439000D+04 0.5204000D+03 0.2031000D+03
EXPONENTS  0.8396000D+02 0.3620000D+02 0.1583000D+02 0.6334000D+01 0.4405000D+04
EXPONENTS  0.1439000D+04 0.5204000D+03 0.2031000D+03 0.8396000D+02 0.3620000D+02
EXPONENTS  0.1583000D+02 0.6334000D+01 0.2694000D+01 0.1439000D+04 0.2031000D+03
EXPONENTS  0.8396000D+02 0.3620000D+02 0.1583000D+02 0.6334000D+01 0.2694000D+01
EXPONENTS  0.4313000D+00 0.9768000D+00 0.1625000D+00 0.5910000D-01 0.6633000D+03
EXPONENTS  0.1568000D+03 0.4998000D+02 0.1842000D+02 0.7240000D+01 0.2922000D+01
EXPONENTS  0.6633000D+03 0.1568000D+03 0.4998000D+02 0.1842000D+02 0.7240000D+01
EXPONENTS  0.2922000D+01 0.6633000D+03 0.1568000D+03 0.4998000D+02 0.1842000D+02
EXPONENTS  0.7240000D+01 0.2922000D+01 0.1568000D+03 0.4998000D+02 0.1842000D+02
EXPONENTS  0.7240000D+01 0.2922000D+01 0.3818000D+00 0.1568000D+03 0.4998000D+02
EXPONENTS  0.1842000D+02 0.7240000D+01 0.2922000D+01 0.3818000D+00 0.1568000D+03
EXPONENTS  0.4998000D+02 0.1842000D+02 0.7240000D+01 0.2922000D+01 0.3818000D+00
EXPONENTS  0.1022000D+01 0.1022000D+01 0.1022000D+01 0.1301000D+00 0.1301000D+00
EXPONENTS  0.1301000D+00 0.4190000D-01 0.4190000D-01 0.4190000D-01 0.1046000D+01
EXPONENTS  0.1046000D+01 0.1046000D+01 0.1046000D+01 0.1046000D+01 0.1046000D+01
EXPONENTS  0.3440000D+00 0.3440000D+00 0.3440000D+00 0.3440000D+00 0.3440000D+00
EXPONENTS  0.3440000D+00 0.1350000D+00 0.1350000D+00 0.1350000D+00 0.1350000D+00
EXPONENTS  0.1350000D+00 0.1350000D+00 0.7060000D+00 0.7060000D+00 0.7060000D+00
EXPONENTS  0.7060000D+00 0.7060000D+00 0.7060000D+00 0.7060000D+00 0.7060000D+00
EXPONENTS  0.7060000D+00 0.7060000D+00 0.3120000D+00 0.3120000D+00 0.3120000D+00
EXPONENTS  0.3120000D+00 0.3120000D+00 0.3120000D+00 0.3120000D+00 0.3120000D+00
EXPONENTS  0.3120000D+00 0.3120000D+00 0.1950000D+05 0.2923000D+04 0.6645000D+03
EXPONENTS  0.1875000D+03 0.6062000D+02 0.2142000D+02 0.7950000D+01 0.6645000D+03
EXPONENTS  0.1875000D+03 0.6062000D+02 0.2142000D+02 0.7950000D+01 0.8815000D+00
EXPONENTS  0.2257000D+01 0.3041000D+00 0.9158000D-01 0.4388000D+02 0.9926000D+01
EXPONENTS  0.2930000D+01 0.4388000D+02 0.9926000D+01 0.2930000D+01 0.4388000D+02
EXPONENTS  0.9926000D+01 0.2930000D+01 0.9132000D+00 0.9132000D+00 0.9132000D+00
EXPONENTS  0.2672000D+00 0.2672000D+00 0.2672000D+00 0.7361000D-01 0.7361000D-01
EXPONENTS  0.7361000D-01 0.3107000D+01 0.3107000D+01 0.3107000D+01 0.3107000D+01
EXPONENTS  0.3107000D+01 0.3107000D+01 0.8550000D+00 0.8550000D+00 0.8550000D+00
EXPONENTS  0.8550000D+00 0.8550000D+00 0.8550000D+00 0.2920000D+00 0.2920000D+00
EXPONENTS  0.2920000D+00 0.2920000D+00 0.2920000D+00 0.2920000D+00 0.1917000D+01
EXPONENTS  0.1917000D+01 0.1917000D+01 0.1917000D+01 0.1917000D+01 0.1917000D+01
EXPONENTS  0.1917000D+01 0.1917000D+01 0.1917000D+01 0.1917000D+01 0.7240000D+00
EXPONENTS  0.7240000D+00 0.7240000D+00 0.7240000D+00 0.7240000D+00 0.7240000D+00
EXPONENTS  0.7240000D+00 0.7240000D+00 0.7240000D+00 0.7240000D+00
MO    1     MO 0.0        OCC NO =    2.0000300  ORB. ENERGY =    0.000000
 -0.56464458D-04 -0.10526112D-03 -0.17790564D-03 -0.26742536D-03 -0.32848416D-03
 -0.27722904D-03 -0.10424536D-03  0.16443068D-07  0.12290175D-06  0.45931190D-06
  0.12814087D-05  0.17167343D-05 -0.20271431D-05 -0.84501375D-05  0.31187401D-04
  0.98502671D-06  0.99104533D-04  0.92916799D-04  0.66162296D-04  0.57202944D-04
  0.53631396D-04  0.38188749D-04 -0.61638160D-05 -0.57789693D-05 -0.41149704D-05
  0.31757081D-03  0.18330784D-03 -0.12996227D-05  0.40469529D-03  0.23360154D-03
  0.68375982D-05  0.79939691D-05  0.46141945D-05  0.30187045D-07  0.31798591D-04
 -0.31267404D-04 -0.53118755D-06  0.10887035D-03 -0.44053282D-03 -0.25425033D-03
  0.99284849D-04 -0.97674744D-04 -0.16101052D-05  0.34097533D-03  0.90611672D-04
  0.52434950D-04  0.20911421D-04 -0.20884661D-04 -0.26760161D-07  0.72305987D-04
 -0.56146305D-04 -0.32380513D-04  0.80377142D-04  0.46217779D-04 -0.13398258D-05
  0.80391260D-04  0.46919235D-04  0.15590244D-04 -0.32152269D-03 -0.18557257D-03
 -0.11570767D-04  0.46469871D-04 -0.23401378D-04 -0.14469019D-04  0.63865269D-06
 -0.23372037D-04 -0.10640665D-04  0.24898058D-04  0.93576170D-04  0.54047722D-04
 -0.26814016D-04  0.89668130D-04 -0.20029289D-04 -0.36123647D-04 -0.53264297D-04
  0.17488315D-03  0.56283819D-03 -0.62883044D-05  0.35216554D-05  0.35505146D-04
  0.11758422D-04  0.74520283D-04  0.14326574D-03  0.13699794D-03  0.66952486D-04
  0.86102219D-04  0.11340381D-04 -0.54731251D-04  0.21394929D-04  0.33336323D-04
  0.27561084D-04 -0.38997055D-04  0.14964066D-03 -0.21747197D-04 -0.58300056D-05
  0.27577203D-04  0.25936389D-04  0.53265714D-04  0.16031020D-04 -0.20026891D-04
 -0.36119322D-04 -0.53257920D-04  0.17486609D-03  0.56276516D-03 -0.62867624D-05
  0.32500380D-04 -0.14705230D-04  0.11776259D-04  0.16128184D-03 -0.70572134D-05
  0.13702542D-03  0.10803464D-03  0.14918051D-04  0.11360299D-04  0.14254617D-04
 -0.47673088D-04  0.33418471D-04 -0.52087938D-04  0.11005522D-03 -0.10854765D-03
  0.14109864D-05 -0.28977647D-04  0.27566661D-04 -0.82035096D-06  0.40510333D-04
  0.38162580D-04  0.38971014D-04  0.70285828D-04  0.10363641D-03 -0.38660537D-03
 -0.11391059D-02  0.12425559D-04  0.65191372D-04  0.37618314D-04 -0.26790404D-04
  0.25374453D-03  0.14636567D-03 -0.27739083D-03  0.15091258D-03  0.87099606D-04
 -0.23300420D-04 -0.36342042D-05  0.72937334D-04 -0.69303130D-04 -0.13237753D-03
  0.25864874D-03  0.14916195D-03  0.20023226D-04  0.35915826D-04 -0.55939052D-04
 -0.27494385D-04  0.27352496D-04  0.15722230D-04  0.48128710D-05  0.90043680D-05
  0.15557551D-04  0.25220618D-04  0.38299928D-04  0.53233297D-04  0.63290311D-04
  0.56381208D-04  0.28000100D-04  0.45077792D-05  0.47559734D-07  0.19381361D-07
  0.64652977D-06  0.22530268D-05  0.81135144D-05  0.17885233D-04  0.25176635D-04
 -0.12010076D-05 -0.32947999D-04 -0.19481946D-04  0.40562944D-08  0.49131631D-07
  0.10245884D-06  0.29383410D-06  0.15258396D-07 -0.12671552D-05 -0.32740856D-05
  0.26675708D-05 -0.26219364D-06 -0.60168562D-05  0.23943664D-06  0.10055652D+02
  0.13245646D+02  0.14612020D+02  0.12136427D+02  0.64447795D+01  0.16627868D+01
  0.58044501D+01  0.76458186D+01  0.84345348D+01  0.70055415D+01  0.37201370D+01
  0.95981478D+00 -0.30253494D-01 -0.39850929D-01 -0.43961812D-01 -0.36513727D-01
 -0.19389802D-01 -0.50026704D-02 -0.39798447D-03  0.38474578D-02  0.54253171D-02
  0.77596386D-02 -0.39293718D-04 -0.71163205D-02 -0.22972940D-03  0.22208760D-02
  0.31316670D-02  0.44791122D-02 -0.22681594D-04 -0.41077683D-02  0.14348857D-05
 -0.13871552D-04 -0.19560336D-04 -0.27976455D-04  0.14166883D-06  0.25657048D-04
  0.66391885D-01  0.38323556D-01 -0.20593897D-03 -0.55742738D-03 -0.32176549D-03
  0.36057147D-05 -0.50237165D-04 -0.28998589D-04  0.57371353D-07  0.38761098D-05
 -0.78772616D-05  0.40011518D-05  0.19778287D-04 -0.84934866D-03 -0.49025732D-03
 -0.11594409D-05  0.33547183D-05 -0.21952774D-05 -0.76076516D-05  0.30942661D-03
  0.17860368D-03  0.74259150D-06 -0.58684235D-06 -0.15574915D-06  0.22653978D-05
 -0.52863915D-04 -0.30513644D-04  0.22852022D-05  0.14875059D-05 -0.77575820D-07
  0.23059712D-05  0.80116602D-06  0.18162877D-04 -0.91615777D-05 -0.52636839D-05
 -0.17930149D-04  0.62455133D-04  0.12738320D-04  0.72997430D-05  0.32507043D-06
  0.12734078D-04  0.75140247D-05 -0.41901901D-05 -0.50949039D-04 -0.29413254D-04
  0.32149788D-05 -0.12901270D-04  0.30553897D-05  0.56952516D-05  0.96547203D-05
  0.14618552D-04  0.18276410D-04  0.15720990D-04  0.60293381D-05  0.41784677D-08
  0.55315088D-07  0.20091446D-06  0.59600897D-06  0.68677996D-06 -0.83419656D-06
  0.21266174D-06  0.14855756D-05 -0.87077167D-06 -0.25126951D-03 -0.24573610D-03
 -0.16236823D-03 -0.14504758D-03 -0.14185337D-03 -0.93728518D-04 -0.16166439D-04
 -0.15810424D-04 -0.10446615D-04 -0.61756174D-05 -0.35712915D-05 -0.28141401D-05
 -0.58492762D-04 -0.33759607D-04 -0.77380248D-07 -0.16962140D-04 -0.97910796D-05
 -0.22875054D-06  0.35088175D-04 -0.34335871D-04 -0.75230400D-06  0.12007973D-03
 -0.11612850D-03 -0.66985306D-04 -0.17654008D-04  0.17212940D-04  0.44106835D-06
 -0.60285683D-04  0.88965040D-04  0.51328628D-04  0.87319884D-05 -0.89763665D-05
  0.24437807D-06  0.30603284D-04 -0.64798098D-04 -0.37387272D-04 -0.61882221D-04
 -0.36065253D-04 -0.87702489D-06 -0.62006488D-04 -0.34607424D-04 -0.93104087D-04
  0.24765315D-03  0.14280318D-03  0.95735161D-04 -0.32639656D-03  0.21995430D-04
  0.12806993D-04  0.42366839D-06  0.22034704D-04  0.12338676D-04  0.29324771D-04
 -0.88020993D-04 -0.50759656D-04 -0.30595776D-04  0.10355145D-03
MO    2     MO 0.0        OCC NO =    2.0000300  ORB. ENERGY =    0.000000
 -0.12849188D-07 -0.23953476D-07 -0.40484637D-07 -0.60855961D-07 -0.74750648D-07
 -0.63086910D-07 -0.23722325D-07 -0.12933299D-10 -0.96668396D-10 -0.36127187D-09
 -0.10078923D-08 -0.13502977D-08  0.15944499D-08  0.53248879D-09 -0.10393108D-07
 -0.76033478D-08 -0.55190458D-04 -0.51744562D-04 -0.36845211D-04  0.95609316D-04
  0.89639811D-04  0.63828886D-04 -0.24649700D-07 -0.23110661D-07 -0.16456167D-07
 -0.18275533D-03  0.31659830D-03 -0.11234322D-06 -0.23284087D-03  0.40336605D-03
 -0.12283341D-06 -0.46292008D-05  0.80192775D-05 -0.25654144D-08  0.55274337D-04
 -0.55424491D-04  0.15015391D-06 -0.63788863D-04  0.25486491D-03 -0.44145667D-03
  0.17008632D-03 -0.17006096D-03 -0.25359457D-07 -0.19655366D-03 -0.48378786D-04
  0.84039949D-04  0.36115017D-04 -0.36132226D-04  0.17209071D-07 -0.41718583D-04
  0.33011896D-04 -0.57139568D-04 -0.46393615D-04  0.80096170D-04  0.10387812D-06
 -0.45786764D-04  0.80109192D-04  0.22455198D-04  0.18496761D-03 -0.32039770D-03
 -0.22766832D-04 -0.25814792D-04  0.13211983D-04 -0.23061887D-04 -0.28799846D-07
  0.13568278D-04 -0.23036447D-04  0.42681581D-04 -0.53204228D-04  0.92222108D-04
 -0.42595181D-04 -0.49358702D-04 -0.34677848D-04 -0.62542927D-04 -0.92219510D-04
  0.32316893D-03  0.98096707D-03 -0.10647159D-04 -0.17310847D-05  0.62344974D-04
  0.21288620D-04 -0.43429426D-04  0.25158610D-03  0.23344853D-03 -0.38539289D-04
  0.15023411D-03  0.19527338D-04 -0.95486426D-04  0.36905830D-04  0.58580596D-04
 -0.16352253D-04  0.23522096D-04  0.25764517D-03 -0.37673182D-04 -0.10221543D-04
  0.47894725D-04 -0.14956114D-04 -0.30204364D-04  0.26902627D-04  0.34678725D-04
  0.62544509D-04  0.92221842D-04 -0.32317006D-03 -0.98101866D-03  0.10647917D-04
 -0.53115463D-04  0.32675402D-04 -0.21325114D-04 -0.19606855D-03  0.16333726D-03
 -0.23359026D-03 -0.11081295D-03  0.10851096D-03 -0.19612404D-04  0.33710577D-05
  0.55333811D-04 -0.58704869D-04  0.12271371D-03 -0.23489526D-03  0.10843674D-03
  0.23569812D-04  0.24347587D-04 -0.47917399D-04  0.31236905D-04 -0.81622393D-05
  0.39542057D-04 -0.23148682D-08 -0.41749602D-08 -0.61559763D-08  0.29887019D-07
  0.48969378D-07  0.20175982D-09 -0.14466977D-05  0.24943722D-05  0.80003149D-09
 -0.43081576D-04  0.74605227D-04 -0.12773645D-07 -0.38598409D-04  0.66860558D-04
 -0.22218329D-07  0.13100492D-04 -0.13118950D-04  0.18458391D-07 -0.15115464D-04
  0.25433603D-04 -0.44065677D-04  0.13075974D-04 -0.13062695D-04 -0.13278989D-07
 -0.15118600D-04 -0.29549220D-04  0.51207942D-04  0.15605473D-06  0.29196175D-06
  0.50444515D-06  0.81776486D-06  0.12418544D-05  0.17260608D-05  0.20521540D-05
  0.18281301D-05  0.90788807D-06  0.14616230D-06  0.15420986D-08  0.73156276D-09
  0.24403709D-07  0.85042040D-07  0.30625016D-06  0.67509036D-06  0.95030934D-06
 -0.45332852D-07 -0.12436448D-05 -0.73535938D-06  0.15055669D-10  0.18236092D-09
  0.38029448D-09  0.10906184D-08  0.56634293D-10 -0.47032753D-08 -0.12152360D-07
  0.99011710D-08 -0.43763169D-07  0.21247807D-08  0.16478130D-08 -0.58044729D+01
 -0.76458487D+01 -0.84345680D+01 -0.70055691D+01 -0.37201516D+01 -0.95981856D+00
  0.10055674D+02  0.13245675D+02  0.14612053D+02  0.12136454D+02  0.64447938D+01
  0.16627905D+01 -0.33411208D-02 -0.44010377D-02 -0.48550335D-02 -0.40324855D-02
 -0.21413617D-02 -0.55248251D-03  0.22966464D-03 -0.22202500D-02 -0.31307843D-02
 -0.44778497D-02  0.22675201D-04  0.41066105D-02 -0.39787097D-03  0.38463605D-02
  0.54237699D-02  0.77574257D-02 -0.39282512D-04 -0.71142910D-02  0.13244648D-06
 -0.12804073D-05 -0.18055080D-05 -0.25823540D-05  0.13076677D-07  0.23682622D-05
 -0.38323733D-01  0.66392061D-01 -0.22063384D-04  0.32179631D-03 -0.55748171D-03
  0.18632790D-06  0.28998669D-04 -0.50237364D-04  0.16495212D-07  0.11474700D-04
 -0.11756361D-04  0.28166102D-06 -0.13096006D-04  0.48892396D-03 -0.84699062D-03
 -0.37639856D-05  0.38680582D-05 -0.10407261D-06  0.42910138D-05 -0.17786372D-03
  0.30812164D-03  0.11610670D-05 -0.11782251D-05  0.17158095D-07 -0.13309984D-05
  0.30381663D-04 -0.52630848D-04 -0.12659380D-05  0.19627852D-05  0.28882038D-08
 -0.77041986D-06  0.19834482D-05  0.30550789D-04  0.45682337D-05 -0.78718037D-05
 -0.30559454D-04 -0.35298220D-04 -0.72750186D-05  0.12704445D-04  0.17203132D-07
 -0.75017702D-05  0.12700046D-04 -0.63949580D-05  0.29326826D-04 -0.50813380D-04
  0.63433486D-05  0.74080901D-05 -0.19183224D-07 -0.35757563D-07 -0.60617036D-07
 -0.91782391D-07 -0.11474820D-06 -0.98704032D-07 -0.37855121D-07  0.41954757D-10
  0.55540243D-09  0.20173227D-08  0.59843497D-08  0.68957543D-08 -0.83759207D-08
 -0.61680984D-09  0.14364403D-07  0.14286568D-07  0.14561718D-03  0.14241043D-03
  0.94096590D-04 -0.25226832D-03 -0.24671290D-03 -0.16301365D-03  0.10054124D-06
  0.98327135D-07  0.64968896D-07  0.41572796D-05 -0.72117457D-05 -0.27007077D-08
  0.33389819D-04 -0.57836906D-04  0.35424997D-07  0.97472414D-05 -0.16885912D-04
  0.75610029D-08  0.61500212D-04 -0.61534281D-04  0.34068633D-07 -0.71034506D-04
  0.66652367D-04 -0.11538149D-03 -0.30835587D-04  0.30864137D-04 -0.28550040D-07
  0.35609773D-04 -0.51163479D-04  0.88590327D-04  0.15573110D-04 -0.15598145D-04
  0.25034752D-07 -0.17981848D-04  0.37116373D-04 -0.64272132D-04  0.35158760D-04
 -0.61821591D-04 -0.89221246D-07  0.37476923D-04 -0.61930337D-04 -0.16325423D-03
 -0.14295320D-03  0.24739511D-03  0.16352190D-03  0.18852829D-03 -0.12515308D-04
  0.21952461D-04  0.32443115D-07 -0.13208760D-04  0.21986890D-04  0.51791581D-04
  0.50754683D-04 -0.87844272D-04 -0.51888911D-04 -0.59806894D-04
MO    3     MO 0.0        OCC NO =    2.0000210  ORB. ENERGY =    0.000000
 -0.14423751D-01 -0.26888778D-01 -0.45445698D-01 -0.68313360D-01 -0.83910727D-01
 -0.70817694D-01 -0.26629302D-01 -0.38200013D-05 -0.28552143D-04 -0.10670588D-03
 -0.29769279D-03 -0.39882626D-03  0.47093945D-03 -0.86852432D-03 -0.19420925D-02
 -0.82647572D-04 -0.20102782D-05 -0.18847636D-05 -0.13420640D-05 -0.77241550D-06
 -0.72418862D-06 -0.51566544D-06  0.11722993D-02  0.10991051D-02  0.78262829D-03
 -0.62848160D-06 -0.15732992D-06  0.60838957D-03 -0.26083172D-05 -0.16372605D-05
 -0.38285638D-03 -0.41258917D-07 -0.22293029D-07  0.46377625D-05 -0.10546311D-03
 -0.10604401D-03  0.21150712D-03  0.10019093D-05 -0.11271604D-05 -0.44198463D-06
 -0.24736252D-04 -0.24203543D-04  0.48939796D-04 -0.92079957D-06 -0.27026111D-05
 -0.15085650D-05  0.11326672D-04  0.11629076D-04 -0.22955748D-04 -0.52260920D-06
 -0.46851578D-06 -0.29381926D-06  0.83650507D-07  0.36573897D-04  0.85443862D-05
  0.13919465D-06 -0.10951381D-03 -0.13329242D-04 -0.39014617D-06 -0.20787987D-06
 -0.12303917D-04 -0.19027164D-05 -0.14532313D-06  0.52064415D-04 -0.86058043D-04
 -0.65517573D-07 -0.15630851D-03  0.12886981D-03  0.50148696D-06  0.11526841D-06
  0.12930432D-03 -0.93298466D-06 -0.47030893D-05 -0.84822152D-05 -0.12507021D-04
  0.75509450D-03  0.23339711D-03  0.49936464D-05 -0.27290729D-06  0.96234292D-04
  0.28609586D-04 -0.33934730D-07  0.19985748D-03 -0.50114603D-05 -0.53528898D-06
  0.43698854D-04  0.38640374D-04 -0.74245855D-04  0.54323592D-04  0.19922263D-04
 -0.31011511D-06 -0.56407951D-06  0.75975230D-04 -0.97722638D-05 -0.12062476D-04
  0.21834740D-04 -0.18684576D-06  0.86940784D-07 -0.34757445D-04 -0.47028601D-05
 -0.84818018D-05 -0.12506412D-04  0.75509539D-03  0.23341097D-03  0.49939630D-05
  0.83185580D-04 -0.48361515D-04  0.28658539D-04  0.17304123D-03 -0.10000520D-03
 -0.49189040D-05  0.37561425D-04 -0.22304933D-04  0.38662292D-04  0.21998916D-04
 -0.41961588D-04  0.19962672D-04 -0.11148989D-03  0.65557350D-04 -0.38462032D-04
 -0.11561736D-04 -0.10255437D-04  0.21817173D-04  0.18703090D-05 -0.30073971D-04
  0.17495256D-04 -0.44680936D-05 -0.80583909D-05 -0.11882093D-04  0.75803697D-03
  0.24410663D-03  0.52823660D-05 -0.84931242D-04 -0.49010336D-04  0.31448128D-04
 -0.17207267D-03 -0.99319676D-04 -0.88109940D-05 -0.39068934D-04 -0.22537330D-04
  0.39460693D-04  0.20944862D-04 -0.43692405D-04  0.22747543D-04  0.11184496D-03
 -0.65284228D-04 -0.37616140D-04 -0.11519754D-04 -0.10122820D-04  0.21642574D-04
 -0.23972884D-05  0.30147958D-04  0.17421894D-04 -0.15450776D+00 -0.28906754D+00
 -0.49944459D+00 -0.80965837D+00 -0.12295439D+01 -0.17089504D+01 -0.20318111D+01
 -0.18100079D+01 -0.89888819D+00 -0.14471339D+00 -0.15268118D-02 -0.72240054D-03
 -0.24098073D-01 -0.83976958D-01 -0.30241462D+00 -0.66663540D+00 -0.93840749D+00
  0.44765096D-01  0.12280692D+01  0.72614961D+00 -0.15524238D-04 -0.18803643D-03
 -0.39213016D-03 -0.11245610D-02 -0.58396888D-04  0.48496525D-02  0.12530571D-01
 -0.10209319D-01  0.46572565D-01 -0.37988800D-03 -0.13192689D-03  0.12712452D-01
  0.16745274D-01  0.18472658D-01  0.15342989D-01  0.81475528D-02  0.21021112D-02
  0.93254223D-02  0.12283763D-01  0.13550913D-01  0.11255094D-01  0.59767674D-02
  0.15420372D-02  0.59515481D+01  0.78395811D+01  0.86482851D+01  0.71830779D+01
  0.38144137D+01  0.98413867D+00 -0.38948919D-06  0.37653309D-05  0.53095096D-05
  0.75940033D-05 -0.38454964D-07 -0.69644173D-05 -0.29537739D-06  0.28555186D-05
  0.40265793D-05  0.57590736D-05 -0.29163138D-07 -0.52816136D-05 -0.21128963D-03
  0.20426122D-02  0.28802965D-02  0.41195859D-02 -0.20861003D-04 -0.37780488D-02
  0.87497603D-04  0.64437725D-04  0.41727094D-01 -0.73250793D-06 -0.58436341D-06
 -0.48546637D-03 -0.65891319D-07 -0.41376256D-07 -0.98744636D-05 -0.63876300D-05
 -0.60311484D-05  0.12418778D-04 -0.61616497D-06  0.16127783D-05  0.94371446D-06
 -0.11190686D-03 -0.11205345D-03  0.22396030D-03  0.25380264D-06  0.20076756D-07
  0.23448853D-06 -0.14408436D-04 -0.14336759D-04  0.28745196D-04 -0.12373555D-06
  0.20988328D-06  0.14948406D-06 -0.16396693D-06 -0.74493333D-05  0.53405768D-05
 -0.17547861D-06  0.21953175D-04 -0.82016876D-05  0.66737939D-06  0.39482449D-06
 -0.78200429D-05 -0.63187915D-06  0.70091913D-07  0.21614479D-05 -0.33852198D-04
  0.73382258D-07 -0.62537936D-05  0.50829465D-04 -0.28365800D-06 -0.23055010D-06
  0.50727128D-04  0.16842038D-06 -0.87690968D-03 -0.16345612D-02 -0.27709453D-02
 -0.41955859D-02 -0.52454065D-02 -0.45119902D-02 -0.17304454D-02 -0.68377736D-06
 -0.90519319D-05 -0.32878264D-04 -0.97532750D-04 -0.11238679D-03  0.13651050D-03
 -0.95833103D-04 -0.16039976D-03  0.12275225D-04  0.17659507D-05  0.17270612D-05
  0.11411424D-05  0.24191756D-05  0.23659009D-05  0.15632507D-05  0.39105477D-02
  0.38244302D-02  0.25269627D-02  0.37961708D-07  0.34006003D-06  0.88061131D-03
  0.14560561D-06  0.89726102D-07  0.21057859D-04 -0.78346262D-07 -0.41691119D-07
  0.93453001D-05 -0.35813487D-04 -0.36267502D-04  0.72080989D-04  0.79120230D-06
  0.46135194D-06  0.34448379D-06  0.21201721D-04  0.21454670D-04 -0.42656391D-04
 -0.44016657D-06 -0.33055936D-06 -0.23606567D-06  0.18252398D-04  0.18104175D-04
 -0.36356573D-04  0.25686982D-06  0.13656828D-06  0.37749104D-07  0.19392801D-06
 -0.25730590D-05  0.46849974D-04  0.18856040D-06  0.80491297D-05 -0.71281535D-04
 -0.77034441D-06 -0.32995279D-06 -0.69268388D-04 -0.34621209D-05 -0.44758525D-07
  0.82946033D-06 -0.25614165D-04 -0.43069615D-07 -0.25305362D-05  0.38733718D-04
  0.17734519D-06  0.42155201D-07  0.38108776D-04  0.10743803D-05
MO    4     MO 0.0        OCC NO =    2.0000124  ORB. ENERGY =    0.000000
  0.27129501D-01  0.50574855D-01  0.85478396D-01  0.12848997D+00  0.15782692D+00
  0.13320035D+00  0.50086810D-01 -0.14299129D-05 -0.10687713D-04 -0.39942424D-04
 -0.11143314D-03 -0.14928969D-03  0.17628329D-03  0.26725236D-02 -0.36229413D-02
 -0.44085398D-04 -0.11007072D-04 -0.10319829D-04 -0.73483332D-05 -0.51234512D-05
 -0.48035612D-05 -0.34204217D-05  0.36700944D-02  0.34409468D-02  0.24501591D-02
  0.16366070D-05  0.13769559D-05  0.13032247D-02 -0.45737892D-05 -0.27855814D-05
 -0.42174303D-03 -0.10655439D-06 -0.60469774D-07  0.36500643D-05 -0.31606652D-03
 -0.31845680D-03  0.63452332D-03  0.41318177D-05  0.52730355D-06  0.94119942D-06
  0.75915338D-05  0.79281226D-05 -0.15519656D-04 -0.57720577D-06 -0.78315955D-05
 -0.45371918D-05 -0.17804985D-04 -0.17283468D-04  0.35088453D-04 -0.90171374D-06
 -0.80637967D-06 -0.42921615D-06  0.41627097D-06 -0.42083172D-04  0.23726560D-04
  0.35008050D-06  0.12712342D-03 -0.36653703D-04 -0.15988934D-05 -0.87390850D-06
 -0.34525976D-04 -0.35350742D-05 -0.26998350D-06  0.82998452D-04 -0.16357328D-03
 -0.14329687D-06 -0.24921633D-03  0.24454569D-03  0.95324738D-06  0.22097279D-06
  0.24617416D-03 -0.31053709D-05 -0.89970883D-04 -0.16226619D-03 -0.23926141D-03
  0.10317281D-02  0.67852465D-03  0.41204224D-05 -0.87302203D-06 -0.57323458D-04
  0.33797579D-04  0.67438523D-07  0.30632272D-03 -0.44203453D-04 -0.84503063D-06
  0.11034992D-03  0.75296989D-04 -0.14244194D-03  0.23866340D-04  0.11857560D-03
 -0.13001983D-05 -0.81082850D-06  0.14192819D-03 -0.15443876D-04 -0.21094873D-04
  0.36538749D-04 -0.22468459D-06 -0.30167606D-06 -0.63193306D-04 -0.89970494D-04
 -0.16226549D-03 -0.23926037D-03  0.10317400D-02  0.67853695D-03  0.41216304D-05
 -0.50079585D-04  0.27932741D-04  0.33775005D-04  0.26529342D-03 -0.15319483D-03
 -0.44053889D-04  0.95108454D-04 -0.55894771D-04  0.75352792D-04 -0.18350422D-04
 -0.10030548D-03  0.11865590D-03 -0.14463969D-03  0.12248495D-03 -0.71521321D-04
 -0.19762249D-04 -0.16744072D-04  0.36506321D-04  0.47466796D-05 -0.54903162D-04
  0.31403012D-04 -0.90243677D-04 -0.16275819D-03 -0.23998685D-03  0.10289051D-02
  0.69761627D-03  0.47773900D-05  0.47593840D-04  0.27483425D-04  0.42304403D-04
 -0.25927178D-03 -0.14966096D-03 -0.43078421D-04 -0.97641472D-04 -0.56331739D-04
  0.76521652D-04 -0.22533670D-04 -0.10520585D-03  0.12773952D-03  0.14302223D-03
 -0.13048731D-03 -0.75131374D-04 -0.20261059D-04 -0.16710368D-04  0.36971427D-04
 -0.61093122D-05  0.53835137D-04  0.31106924D-04  0.91458975D-01  0.17110998D+00
  0.29564010D+00  0.47926733D+00  0.72781343D+00  0.10115922D+01  0.12027056D+01
  0.10714119D+01  0.53208583D+00  0.85661317D-01  0.90377749D-03  0.42821482D-03
  0.14284530D-01  0.49778726D-01  0.17926125D+00  0.39515912D+00  0.55625650D+00
 -0.26535248D-01 -0.72795824D+00 -0.43043715D+00  0.62941262D-05  0.76237239D-04
  0.15898472D-03  0.45594051D-03  0.23676356D-04 -0.19662366D-02 -0.50803778D-02
  0.41392527D-02 -0.28587922D-01  0.14244088D-02 -0.18071801D-03  0.20978489D-01
  0.27633578D-01  0.30484162D-01  0.25319483D-01  0.13445348D-01  0.34689701D-02
  0.15395744D-01  0.20279797D-01  0.22371790D-01  0.18581523D-01  0.98673045D-02
  0.25458161D-02  0.99080969D+01  0.13051281D+02  0.14397606D+02  0.11958339D+02
  0.63502100D+01  0.16383874D+01 -0.52721161D-06  0.50967426D-05  0.71869391D-05
  0.10279224D-04 -0.52052544D-07 -0.94270181D-05 -0.41604877D-06  0.40220918D-05
  0.56715693D-05  0.81118445D-05 -0.41077239D-07 -0.74393265D-05 -0.33697681D-03
  0.32576750D-02  0.45936617D-02  0.65701515D-02 -0.33270322D-04 -0.60254486D-02
  0.14889954D-03  0.10999637D-03  0.72502110D-01 -0.98020352D-06 -0.66973492D-06
 -0.30834642D-03 -0.98631846D-07 -0.58378661D-07 -0.40302692D-05  0.45344878D-03
  0.45407826D-03 -0.90752703D-03 -0.10902615D-05 -0.11395730D-05 -0.15595029D-05
 -0.30930718D-03 -0.30966561D-03  0.61897279D-03  0.62042646D-06  0.37814869D-06
  0.83400271D-06  0.42119690D-05  0.43462132D-05 -0.85581822D-05 -0.23190295D-06
  0.40763620D-06  0.22738906D-06 -0.37923388D-06 -0.14973801D-04 -0.47077369D-04
 -0.40235007D-06  0.44126809D-04  0.70257039D-04  0.15400517D-05  0.79459542D-06
  0.70975069D-04 -0.11880769D-05  0.12581307D-06  0.43628846D-05 -0.62444247D-04
  0.13240963D-06 -0.12670152D-04  0.93712931D-04 -0.50984883D-06 -0.41850215D-06
  0.93619810D-04  0.14522046D-06 -0.63310626D-02 -0.11801112D-01 -0.20005513D-01