 clch3f_ts-wavefunction
GAUSSIAN            211 MOL ORBITALS    339 PRIMITIVES        6 NUCLEI
  C    1    (CENTRE  1)   0.00033070  0.00005480 -0.94053370  CHARGE =  6.0
  H    2    (CENTRE  2)   0.00003590 -1.98906904 -1.17300214  CHARGE =  1.0
  H    3    (CENTRE  3)  -1.72213010  0.99468570 -1.17398291  CHARGE =  1.0
  H    4    (CENTRE  4)   1.72295780  0.99424539 -1.17459707  CHARGE =  1.0
  Cl   5    (CENTRE  5)   0.00104880  0.00181792  3.10806659  CHARGE = 17.0
  F    6    (CENTRE  6)  -0.00035149 -0.00174044 -4.91984152  CHARGE =  9.0
CENTRE ASSIGNMENTS    1  1  1  1  1  1  1  1  1  1  1  1  1  1  1  1  1  1  1  1
CENTRE ASSIGNMENTS    1  1  1  1  1  1  1  1  1  1  1  1  1  1  1  1  1  1  1  1
CENTRE ASSIGNMENTS    1  1  1  1  1  1  1  1  1  1  1  1  1  1  1  1  1  1  1  1
CENTRE ASSIGNMENTS    1  1  1  1  1  1  1  1  1  1  1  1  2  2  2  2  2  2  2  2
CENTRE ASSIGNMENTS    2  2  2  2  2  2  2  2  2  2  2  2  2  2  2  2  2  2  2  3
CENTRE ASSIGNMENTS    3  3  3  3  3  3  3  3  3  3  3  3  3  3  3  3  3  3  3  3
CENTRE ASSIGNMENTS    3  3  3  3  3  3  4  4  4  4  4  4  4  4  4  4  4  4  4  4
CENTRE ASSIGNMENTS    4  4  4  4  4  4  4  4  4  4  4  4  4  5  5  5  5  5  5  5
CENTRE ASSIGNMENTS    5  5  5  5  5  5  5  5  5  5  5  5  5  5  5  5  5  5  5  5
CENTRE ASSIGNMENTS    5  5  5  5  5  5  5  5  5  5  5  5  5  5  5  5  5  5  5  5
CENTRE ASSIGNMENTS    5  5  5  5  5  5  5  5  5  5  5  5  5  5  5  5  5  5  5  5
CENTRE ASSIGNMENTS    5  5  5  5  5  5  5  5  5  5  5  5  5  5  5  5  5  5  5  5
CENTRE ASSIGNMENTS    5  5  5  5  5  5  5  5  5  5  5  5  5  5  5  5  5  5  5  5
CENTRE ASSIGNMENTS    5  5  5  5  5  5  5  6  6  6  6  6  6  6  6  6  6  6  6  6
CENTRE ASSIGNMENTS    6  6  6  6  6  6  6  6  6  6  6  6  6  6  6  6  6  6  6  6
CENTRE ASSIGNMENTS    6  6  6  6  6  6  6  6  6  6  6  6  6  6  6  6  6  6  6  6
CENTRE ASSIGNMENTS    6  6  6  6  6  6  6  6  6  6  6  6  6  6  6  6  6  6  6
TYPE ASSIGNMENTS      1  1  1  1  1  1  1  1  1  1  1  1  1  1  1  1  2  2  2  3
TYPE ASSIGNMENTS      3  3  4  4  4  2  3  4  2  3  4  2  3  4  5  6  7  8  9 10
TYPE ASSIGNMENTS      5  6  7  8  9 10  5  6  7  8  9 10 11 12 13 17 14 15 18 19
TYPE ASSIGNMENTS     16 20 11 12 13 17 14 15 18 19 16 20  1  1  1  1  1  1  2  3
TYPE ASSIGNMENTS      4  2  3  4  2  3  4  5  6  7  8  9 10  5  6  7  8  9 10  1
TYPE ASSIGNMENTS      1  1  1  1  1  2  3  4  2  3  4  2  3  4  5  6  7  8  9 10
TYPE ASSIGNMENTS      5  6  7  8  9 10  1  1  1  1  1  1  2  3  4  2  3  4  2  3
TYPE ASSIGNMENTS      4  5  6  7  8  9 10  5  6  7  8  9 10  1  1  1  1  1  1  1
TYPE ASSIGNMENTS      1  1  1  1  1  1  1  1  1  1  1  1  1  1  1  1  1  1  1  1
TYPE ASSIGNMENTS      1  1  1  1  2  2  2  2  2  2  3  3  3  3  3  3  4  4  4  4
TYPE ASSIGNMENTS      4  4  2  2  2  2  2  2  3  3  3  3  3  3  4  4  4  4  4  4
TYPE ASSIGNMENTS      2  3  4  2  3  4  2  3  4  5  6  7  8  9 10  5  6  7  8  9
TYPE ASSIGNMENTS     10  5  6  7  8  9 10 11 12 13 17 14 15 18 19 16 20 11 12 13
TYPE ASSIGNMENTS     17 14 15 18 19 16 20  1  1  1  1  1  1  1  1  1  1  1  1  1
TYPE ASSIGNMENTS      1  1  1  2  2  2  3  3  3  4  4  4  2  3  4  2  3  4  2  3
TYPE ASSIGNMENTS      4  5  6  7  8  9 10  5  6  7  8  9 10  5  6  7  8  9 10 11
TYPE ASSIGNMENTS     12 13 17 14 15 18 19 16 20 11 12 13 17 14 15 18 19 16 20
EXPONENTS  0.8236000D+04 0.1235000D+04 0.2808000D+03 0.7927000D+02 0.2559000D+02
EXPONENTS  0.8997000D+01 0.3319000D+01 0.2808000D+03 0.7927000D+02 0.2559000D+02
EXPONENTS  0.8997000D+01 0.3319000D+01 0.3643000D+00 0.9059000D+00 0.1285000D+00
EXPONENTS  0.4402000D-01 0.1871000D+02 0.4133000D+01 0.1200000D+01 0.1871000D+02
EXPONENTS  0.4133000D+01 0.1200000D+01 0.1871000D+02 0.4133000D+01 0.1200000D+01
EXPONENTS  0.3827000D+00 0.3827000D+00 0.3827000D+00 0.1209000D+00 0.1209000D+00
EXPONENTS  0.1209000D+00 0.3569000D-01 0.3569000D-01 0.3569000D-01 0.1097000D+01
EXPONENTS  0.1097000D+01 0.1097000D+01 0.1097000D+01 0.1097000D+01 0.1097000D+01
EXPONENTS  0.3180000D+00 0.3180000D+00 0.3180000D+00 0.3180000D+00 0.3180000D+00
EXPONENTS  0.3180000D+00 0.1000000D+00 0.1000000D+00 0.1000000D+00 0.1000000D+00
EXPONENTS  0.1000000D+00 0.1000000D+00 0.7610000D+00 0.7610000D+00 0.7610000D+00
EXPONENTS  0.7610000D+00 0.7610000D+00 0.7610000D+00 0.7610000D+00 0.7610000D+00
EXPONENTS  0.7610000D+00 0.7610000D+00 0.2680000D+00 0.2680000D+00 0.2680000D+00
EXPONENTS  0.2680000D+00 0.2680000D+00 0.2680000D+00 0.2680000D+00 0.2680000D+00
EXPONENTS  0.2680000D+00 0.2680000D+00 0.3387000D+02 0.5095000D+01 0.1159000D+01
EXPONENTS  0.3258000D+00 0.1027000D+00 0.2526000D-01 0.1407000D+01 0.1407000D+01
EXPONENTS  0.1407000D+01 0.3880000D+00 0.3880000D+00 0.3880000D+00 0.1020000D+00
EXPONENTS  0.1020000D+00 0.1020000D+00 0.1057000D+01 0.1057000D+01 0.1057000D+01
EXPONENTS  0.1057000D+01 0.1057000D+01 0.1057000D+01 0.2470000D+00 0.2470000D+00
EXPONENTS  0.2470000D+00 0.2470000D+00 0.2470000D+00 0.2470000D+00 0.3387000D+02
EXPONENTS  0.5095000D+01 0.1159000D+01 0.3258000D+00 0.1027000D+00 0.2526000D-01
EXPONENTS  0.1407000D+01 0.1407000D+01 0.1407000D+01 0.3880000D+00 0.3880000D+00
EXPONENTS  0.3880000D+00 0.1020000D+00 0.1020000D+00 0.1020000D+00 0.1057000D+01
EXPONENTS  0.1057000D+01 0.1057000D+01 0.1057000D+01 0.1057000D+01 0.1057000D+01
EXPONENTS  0.2470000D+00 0.2470000D+00 0.2470000D+00 0.2470000D+00 0.2470000D+00
EXPONENTS  0.2470000D+00 0.3387000D+02 0.5095000D+01 0.1159000D+01 0.3258000D+00
EXPONENTS  0.1027000D+00 0.2526000D-01 0.1407000D+01 0.1407000D+01 0.1407000D+01
EXPONENTS  0.3880000D+00 0.3880000D+00 0.3880000D+00 0.1020000D+00 0.1020000D+00
EXPONENTS  0.1020000D+00 0.1057000D+01 0.1057000D+01 0.1057000D+01 0.1057000D+01
EXPONENTS  0.1057000D+01 0.1057000D+01 0.2470000D+00 0.2470000D+00 0.2470000D+00
EXPONENTS  0.2470000D+00 0.2470000D+00 0.2470000D+00 0.4561000D+06 0.6833000D+05
EXPONENTS  0.1555000D+05 0.4405000D+04 0.1439000D+04 0.5204000D+03 0.2031000D+03
EXPONENTS  0.8396000D+02 0.3620000D+02 0.1583000D+02 0.6334000D+01 0.4405000D+04
EXPONENTS  0.1439000D+04 0.5204000D+03 0.2031000D+03 0.8396000D+02 0.3620000D+02
EXPONENTS  0.1583000D+02 0.6334000D+01 0.2694000D+01 0.1439000D+04 0.2031000D+03
EXPONENTS  0.8396000D+02 0.3620000D+02 0.1583000D+02 0.6334000D+01 0.2694000D+01
EXPONENTS  0.4313000D+00 0.9768000D+00 0.1625000D+00 0.5910000D-01 0.6633000D+03
EXPONENTS  0.1568000D+03 0.4998000D+02 0.1842000D+02 0.7240000D+01 0.2922000D+01
EXPONENTS  0.6633000D+03 0.1568000D+03 0.4998000D+02 0.1842000D+02 0.7240000D+01
EXPONENTS  0.2922000D+01 0.6633000D+03 0.1568000D+03 0.4998000D+02 0.1842000D+02
EXPONENTS  0.7240000D+01 0.2922000D+01 0.1568000D+03 0.4998000D+02 0.1842000D+02
EXPONENTS  0.7240000D+01 0.2922000D+01 0.3818000D+00 0.1568000D+03 0.4998000D+02
EXPONENTS  0.1842000D+02 0.7240000D+01 0.2922000D+01 0.3818000D+00 0.1568000D+03
EXPONENTS  0.4998000D+02 0.1842000D+02 0.7240000D+01 0.2922000D+01 0.3818000D+00
EXPONENTS  0.1022000D+01 0.1022000D+01 0.1022000D+01 0.1301000D+00 0.1301000D+00
EXPONENTS  0.1301000D+00 0.4190000D-01 0.4190000D-01 0.4190000D-01 0.1046000D+01
EXPONENTS  0.1046000D+01 0.1046000D+01 0.1046000D+01 0.1046000D+01 0.1046000D+01
EXPONENTS  0.3440000D+00 0.3440000D+00 0.3440000D+00 0.3440000D+00 0.3440000D+00
EXPONENTS  0.3440000D+00 0.1350000D+00 0.1350000D+00 0.1350000D+00 0.1350000D+00
EXPONENTS  0.1350000D+00 0.1350000D+00 0.7060000D+00 0.7060000D+00 0.7060000D+00
EXPONENTS  0.7060000D+00 0.7060000D+00 0.7060000D+00 0.7060000D+00 0.7060000D+00
EXPONENTS  0.7060000D+00 0.7060000D+00 0.3120000D+00 0.3120000D+00 0.3120000D+00
EXPONENTS  0.3120000D+00 0.3120000D+00 0.3120000D+00 0.3120000D+00 0.3120000D+00
EXPONENTS  0.3120000D+00 0.3120000D+00 0.1950000D+05 0.2923000D+04 0.6645000D+03
EXPONENTS  0.1875000D+03 0.6062000D+02 0.2142000D+02 0.7950000D+01 0.6645000D+03
EXPONENTS  0.1875000D+03 0.6062000D+02 0.2142000D+02 0.7950000D+01 0.8815000D+00
EXPONENTS  0.2257000D+01 0.3041000D+00 0.9158000D-01 0.4388000D+02 0.9926000D+01
EXPONENTS  0.2930000D+01 0.4388000D+02 0.9926000D+01 0.2930000D+01 0.4388000D+02
EXPONENTS  0.9926000D+01 0.2930000D+01 0.9132000D+00 0.9132000D+00 0.9132000D+00
EXPONENTS  0.2672000D+00 0.2672000D+00 0.2672000D+00 0.7361000D-01 0.7361000D-01
EXPONENTS  0.7361000D-01 0.3107000D+01 0.3107000D+01 0.3107000D+01 0.3107000D+01
EXPONENTS  0.3107000D+01 0.3107000D+01 0.8550000D+00 0.8550000D+00 0.8550000D+00
EXPONENTS  0.8550000D+00 0.8550000D+00 0.8550000D+00 0.2920000D+00 0.2920000D+00
EXPONENTS  0.2920000D+00 0.2920000D+00 0.2920000D+00 0.2920000D+00 0.1917000D+01
EXPONENTS  0.1917000D+01 0.1917000D+01 0.1917000D+01 0.1917000D+01 0.1917000D+01
EXPONENTS  0.1917000D+01 0.1917000D+01 0.1917000D+01 0.1917000D+01 0.7240000D+00
EXPONENTS  0.7240000D+00 0.7240000D+00 0.7240000D+00 0.7240000D+00 0.7240000D+00
EXPONENTS  0.7240000D+00 0.7240000D+00 0.7240000D+00 0.7240000D+00
MO    1     MO 0.0        OCC NO =    2.0000300  ORB. ENERGY =    0.000000
  0.93341113D-08  0.17400664D-07  0.29409492D-07  0.44207952D-07  0.54301551D-07
  0.45828594D-07  0.17232748D-07  0.27055833D-11  0.20222559D-10  0.75576321D-10
  0.21084617D-09  0.28247573D-09 -0.33355117D-09  0.73119180D-09  0.32139998D-08
  0.43539936D-08  0.10439520D-03  0.97877137D-04  0.69694353D-04 -0.35323403D-04
 -0.33117935D-04 -0.23581943D-04 -0.73831078D-08 -0.69221329D-08 -0.49289710D-08
  0.34348058D-03 -0.11622113D-03 -0.56773060D-08  0.43780059D-03 -0.14813653D-03
 -0.19938267D-07  0.87638630D-05 -0.29653540D-05 -0.32813203D-09 -0.20549260D-04
  0.20536827D-04  0.12433433D-07  0.12093207D-03 -0.48470026D-03  0.16395319D-03
 -0.62121296D-04  0.62125012D-04 -0.37167334D-08  0.36778302D-03  0.94576655D-04
 -0.32167484D-04 -0.13194181D-04  0.13191406D-04  0.27750407D-08  0.77993523D-04
 -0.62324080D-04  0.21053055D-04  0.87543463D-04 -0.29618888D-04  0.12093702D-07
  0.87568202D-04 -0.29616163D-04 -0.83889062D-05 -0.35019859D-03  0.11847283D-03
  0.83526251D-05  0.48369532D-04 -0.25101990D-04  0.84992935D-05 -0.41743907D-08
 -0.25053073D-04  0.85029320D-05 -0.16139345D-04  0.10035904D-03 -0.34000813D-04
  0.16151869D-04  0.95888940D-04  0.12814657D-04  0.23111762D-04  0.34078279D-04
 -0.11761020D-03 -0.36008695D-03  0.39182517D-05  0.42302412D-05 -0.22848680D-04
 -0.78275066D-05  0.79109775D-04 -0.92217245D-04 -0.87300252D-04  0.71769740D-04
 -0.55184182D-04 -0.71780103D-05  0.35186089D-04 -0.13534279D-04 -0.21651810D-04
  0.29278725D-04 -0.45240275D-04 -0.95925031D-04  0.13934407D-04  0.38418382D-05
 -0.17776245D-04  0.27457639D-04  0.57998062D-04 -0.10027374D-04 -0.39217947D-04
 -0.70731182D-04 -0.10429309D-03  0.35993488D-03  0.11020488D-02 -0.11992202D-04
  0.60987052D-04 -0.34195973D-04  0.23992296D-04  0.25251591D-03 -0.12676223D-03
  0.26726515D-03  0.15365940D-03 -0.71564803D-04  0.22004872D-04  0.66949206D-05
 -0.73134842D-04  0.66439921D-04 -0.12592288D-03  0.24960391D-03 -0.15477201D-03
 -0.17023424D-04 -0.37357237D-04  0.54380661D-04 -0.23844326D-04  0.32535186D-04
 -0.48089643D-05  0.26404101D-04  0.47620883D-04  0.70216964D-04 -0.24233592D-03
 -0.74196075D-03  0.80733975D-05  0.42444319D-04  0.20616895D-04 -0.16166318D-04
  0.19582091D-03  0.40509400D-04 -0.17998590D-03  0.12690653D-03  0.75295196D-05
 -0.14838239D-04 -0.12770255D-04  0.57570187D-04 -0.44799931D-04 -0.75130423D-04
  0.15327800D-03  0.12976068D-03  0.37060429D-05  0.32903703D-04 -0.36609746D-04
 -0.70736595D-05  0.40825624D-04 -0.29609350D-04 -0.88975017D-07 -0.16646276D-06
 -0.28761073D-06 -0.46625079D-06 -0.70804656D-06 -0.98411811D-06 -0.11700410D-05
 -0.10423132D-05 -0.51763477D-06 -0.83334819D-07 -0.87923157D-09 -0.41666035D-09
 -0.13899092D-07 -0.48435552D-07 -0.17442427D-06 -0.38449659D-06 -0.54124710D-06
  0.25819251D-07  0.70831583D-06  0.41882271D-06 -0.90716588D-11 -0.10987994D-09
 -0.22914303D-09 -0.65714233D-09 -0.34124486D-10  0.28339164D-08  0.73222957D-08
 -0.59658619D-08  0.24925263D-07 -0.19765540D-09 -0.79707292D-09  0.10998265D+02
  0.14487288D+02  0.15981747D+02  0.13274092D+02  0.70489111D+01  0.18186559D+01
 -0.37214668D+01 -0.49020423D+01 -0.54077200D+01 -0.44915349D+01 -0.23851297D+01
 -0.61537592D+00 -0.33431331D-03 -0.44036884D-03 -0.48579577D-03 -0.40349142D-03
 -0.21426514D-03 -0.55281526D-04 -0.43546614D-03  0.42098065D-02  0.59362666D-02
  0.84904316D-02 -0.42994350D-04 -0.77865266D-02  0.14734800D-03 -0.14244657D-02
 -0.20086453D-02 -0.28728942D-02  0.14547932D-04  0.26347149D-02  0.13073216D-07
 -0.12638344D-06 -0.17821385D-06 -0.25489294D-06  0.12907420D-08  0.23376087D-06
  0.72594085D-01 -0.24563553D-01 -0.22040703D-05 -0.61023109D-03  0.20648317D-03
  0.17642766D-07 -0.54732987D-04  0.18519923D-04  0.17700068D-08 -0.41624438D-05
  0.41341849D-05  0.28258826D-07  0.23303392D-04 -0.93333497D-03  0.31579966D-03
  0.14661869D-05 -0.14569418D-05 -0.92451331D-08 -0.81990983D-05  0.33740334D-03
 -0.11416229D-03 -0.41150022D-06  0.40953980D-06  0.19604192D-08  0.23520854D-05
 -0.57805396D-04  0.19558362D-04  0.20601251D-05 -0.69283925D-06  0.86854912D-10
  0.20925511D-05 -0.69072570D-06 -0.11173795D-04 -0.82729264D-05  0.27692435D-05
  0.11173535D-04  0.66099577D-04  0.13909853D-04 -0.47074692D-05  0.15241287D-08
  0.13903332D-04 -0.47079144D-05  0.22395649D-05 -0.55632891D-04  0.18830322D-04
 -0.22441373D-05 -0.13453217D-04  0.10714260D-07  0.19971400D-07  0.33855972D-07
  0.51262520D-07  0.64089441D-07  0.55128412D-07  0.21142933D-07 -0.23522392D-10
 -0.31139242D-09 -0.11310339D-08 -0.33551909D-08 -0.38661798D-08  0.46960512D-08
  0.33491952D-09 -0.77644967D-08 -0.80145275D-08 -0.27228959D-03 -0.26629327D-03
 -0.17595122D-03  0.92134798D-04  0.90105820D-04  0.59536725D-04 -0.65581803D-09
 -0.64137571D-09 -0.42378405D-09 -0.84516118D-05  0.28612015D-05  0.37008362D-08
 -0.61456896D-04  0.20794078D-04 -0.74693727D-08 -0.18313729D-04  0.61967576D-05
 -0.54760607D-09 -0.22563287D-04  0.22557098D-04  0.61893979D-08  0.13334253D-03
 -0.12659531D-03  0.42774674D-04  0.11323278D-04 -0.11319966D-04 -0.33114488D-08
 -0.66871913D-04  0.96538805D-04 -0.32634799D-04 -0.56921618D-05  0.56923215D-05
 -0.15964479D-09  0.33593600D-04 -0.69010335D-04  0.23334708D-04 -0.66982673D-04
  0.22641742D-04 -0.36019262D-08 -0.67169469D-04  0.22631875D-04  0.60057471D-04
  0.26811749D-03 -0.90557101D-04 -0.60046665D-04 -0.35448470D-03  0.23666443D-04
 -0.80006185D-05  0.82252702D-09  0.23725501D-04 -0.79974346D-05 -0.19029868D-04
 -0.94724830D-04  0.31999290D-04  0.19027400D-04  0.11229193D-03
MO    2     MO 0.0        OCC NO =    2.0000300  ORB. ENERGY =    0.000000
 -0.21920417D-07 -0.40864072D-07 -0.69065850D-07 -0.10381885D-06 -0.12752287D-06
 -0.10762480D-06 -0.40469736D-07 -0.64534925D-11 -0.48235858D-10 -0.18026842D-09
 -0.50292081D-09 -0.67377523D-09  0.79560292D-09 -0.17113870D-08  0.64794515D-08
 -0.50208621D-08  0.35324032D-04  0.33118525D-04  0.23582363D-04  0.10439323D-03
  0.97875290D-04  0.69693038D-04 -0.47273039D-07 -0.44321479D-07 -0.31559534D-07
  0.11622329D-03  0.34347583D-03 -0.17477171D-06  0.14813741D-03  0.43779486D-03
 -0.20834219D-06  0.29653316D-05  0.87634343D-05 -0.42640432D-08  0.60524432D-04
 -0.60766975D-04  0.24254381D-06  0.40771674D-04 -0.16403134D-03 -0.48461137D-03
  0.18387747D-03 -0.18383119D-03 -0.46276954D-07  0.12430806D-03  0.31930029D-04
  0.94854417D-04  0.39005424D-04 -0.39035184D-04  0.29760702D-07  0.26345078D-04
 -0.21103526D-04 -0.62263690D-04  0.29626449D-04  0.87532715D-04  0.17117122D-06
  0.29624927D-04  0.87555346D-04  0.24259209D-04 -0.11850427D-03 -0.35015349D-03
 -0.24772722D-04  0.16174633D-04 -0.84841670D-05 -0.25118387D-04 -0.48318896D-07
 -0.84860614D-05 -0.25070939D-04  0.47921560D-04  0.33938562D-04  0.10042610D-03
 -0.47776603D-04  0.32454329D-04 -0.37887038D-04 -0.68330833D-04 -0.10075377D-03
  0.34771420D-03  0.10646325D-02 -0.11585539D-04  0.14448892D-05  0.67549845D-04
  0.23139938D-04  0.26846370D-04  0.27261141D-03  0.25806504D-03  0.24302055D-04
  0.16312845D-03  0.21181421D-04 -0.10404176D-03  0.40001025D-04  0.64040734D-04
  0.99999700D-05 -0.15195157D-04  0.28361739D-03 -0.41152766D-04 -0.11369341D-04
  0.52522107D-04  0.93012393D-05  0.19657370D-04  0.29605108D-04  0.78453943D-05
  0.14149492D-04  0.20863417D-04 -0.72004009D-04 -0.22047286D-03  0.23995698D-05
 -0.99205787D-05  0.10786868D-04 -0.48017794D-05 -0.79053809D-05  0.99138633D-04
 -0.53507472D-04  0.79046945D-05  0.81234110D-04 -0.44386576D-05  0.12331933D-04
  0.93680792D-06 -0.13268741D-04  0.40951804D-04 -0.74284810D-04 -0.11166129D-04
  0.16202833D-04 -0.52950290D-05 -0.10907804D-04  0.19555792D-04  0.24719808D-04
  0.55061480D-04  0.30040298D-04  0.54178915D-04  0.79886779D-04 -0.27570709D-03
 -0.84416739D-03  0.91865911D-05  0.44904233D-04  0.29318111D-04 -0.18394765D-04
  0.15952910D-03  0.15568921D-03 -0.20481477D-03  0.87013039D-04  0.10797506D-03
 -0.16916405D-04  0.57835461D-05  0.45165586D-04 -0.50949132D-04 -0.10892838D-03
  0.21052952D-03  0.85062039D-04  0.23202152D-04  0.18476039D-04 -0.41678191D-04
 -0.30000603D-04  0.70716012D-07  0.46686869D-04  0.12472966D-06  0.23335588D-06
  0.40318721D-06  0.65361384D-06  0.99257533D-06  0.13795863D-05  0.16402224D-05
  0.14611671D-05  0.72564650D-06  0.11682295D-06  0.12325511D-08  0.58403227D-09
  0.19482339D-07  0.67892050D-07  0.24449027D-06  0.53894836D-06  0.75866535D-06
 -0.36190810D-07 -0.99284536D-06 -0.58706325D-06  0.12954594D-10  0.15691177D-09
  0.32722296D-09  0.93841847D-09  0.48730765D-10 -0.40469156D-08 -0.10456453D-07
  0.85194254D-08 -0.35027952D-07  0.13989840D-09  0.97743255D-09  0.37214662D+01
  0.49020416D+01  0.54077192D+01  0.44915342D+01  0.23851293D+01  0.61537583D+00
  0.10998264D+02  0.14487287D+02  0.15981745D+02  0.13274091D+02  0.70489104D+01
  0.18186557D+01 -0.54463314D-02 -0.71740925D-02 -0.79141471D-02 -0.65733188D-02
 -0.34906147D-02 -0.90059683D-03 -0.14734798D-03  0.14244654D-02  0.20086450D-02
  0.28728937D-02 -0.14547929D-04 -0.26347144D-02 -0.43546589D-03  0.42098041D-02
  0.59362632D-02  0.84904267D-02 -0.42994326D-04 -0.77865220D-02  0.21585969D-06
 -0.20867926D-05 -0.29425954D-05 -0.42086899D-05  0.21312213D-07  0.38597656D-05
  0.24563549D-01  0.72594073D-01 -0.35952120D-04 -0.20648315D-03 -0.61023208D-03
  0.30343249D-06 -0.18519919D-04 -0.54732994D-04  0.26966128D-07  0.11770574D-04
 -0.12232962D-04  0.46238720D-06  0.76904249D-05 -0.31581477D-03 -0.93331161D-03
 -0.41418521D-05  0.43102461D-05 -0.16839395D-06 -0.27040302D-05  0.11416764D-03
  0.33739327D-03  0.11837735D-05 -0.12121173D-05  0.28343770D-07  0.78350618D-06
 -0.19559880D-04 -0.57803002D-04  0.70360710D-06  0.20474304D-05  0.42604409D-08
  0.70141015D-06  0.20800379D-05  0.33051615D-04 -0.28122314D-05 -0.82223290D-05
 -0.33064396D-04  0.22334023D-04  0.47052851D-05  0.13912158D-04  0.27770738D-07
  0.47057516D-05  0.13905556D-04 -0.67163441D-05 -0.18821607D-04 -0.55642029D-04
  0.66330319D-05 -0.45740496D-05 -0.13281495D-07 -0.24756729D-07 -0.41968172D-07
 -0.63545488D-07 -0.79445856D-07 -0.68337682D-07 -0.26208972D-07  0.28585149D-10
  0.37841385D-09  0.13744680D-08  0.40773333D-08  0.46983031D-08 -0.57067889D-08
 -0.45911639D-09  0.94547365D-08  0.96706007D-08 -0.92134027D-04 -0.90105066D-04
 -0.59536227D-04 -0.27229072D-03 -0.26629438D-03 -0.17595195D-03  0.14493459D-06
  0.14174286D-06  0.93655503D-07 -0.28613836D-05 -0.84606687D-05  0.29050520D-10
 -0.20793754D-04 -0.61450041D-04  0.41606357D-07 -0.61967412D-05 -0.18313495D-04
  0.10398998D-07  0.66691941D-04 -0.66751628D-04  0.59686828D-07  0.45038150D-04
 -0.42861178D-04 -0.12648925D-03 -0.33450885D-04  0.33498123D-04 -0.47237994D-07
 -0.22580620D-04  0.32678093D-04  0.96484147D-04  0.16806223D-04 -0.16843070D-04
  0.36846887D-07  0.11339793D-04 -0.23356256D-04 -0.68978173D-04 -0.22696831D-04
 -0.66909686D-04 -0.13815560D-06 -0.22695181D-04 -0.67086219D-04 -0.17730692D-03
  0.90785673D-04  0.26781528D-03  0.17772139D-03 -0.11967095D-03  0.80180652D-05
  0.23642958D-04  0.49367647D-07  0.80174447D-05  0.23698818D-04  0.56167933D-04
 -0.32071640D-04 -0.94627693D-04 -0.56316036D-04  0.37904213D-04
MO    3     MO 0.0        OCC NO =    2.0000210  ORB. ENERGY =    0.000000
 -0.14576910D-01 -0.27174296D-01 -0.45928263D-01 -0.69038746D-01 -0.84801734D-01
 -0.71569672D-01 -0.26912066D-01 -0.38155956D-05 -0.28519213D-04 -0.10658281D-03
 -0.29734945D-03 -0.39836628D-03  0.47039630D-03 -0.88360817D-03 -0.19169752D-02
 -0.82014823D-04  0.20577684D-06  0.19292887D-06  0.13737685D-06  0.49984337D-06
  0.46863494D-06  0.33369599D-06  0.11523191D-02  0.10803724D-02  0.76928949D-03
  0.10389261D-06  0.26243968D-06  0.60169099D-03 -0.65930086D-07 -0.16847944D-06
 -0.37564580D-03  0.81848543D-09  0.20232933D-08  0.46506984D-05 -0.10437295D-03
 -0.10437397D-03  0.20874692D-03 -0.11586535D-08  0.11206547D-06  0.27007686D-06
 -0.23279996D-04 -0.23278195D-04  0.46558192D-04 -0.54519771D-09  0.24198063D-07
  0.63195136D-07  0.11541738D-04  0.11542515D-04 -0.23084253D-04  0.16105371D-09
 -0.12221282D-07 -0.30588941D-07 -0.15811386D-07  0.36311248D-04  0.75363567D-05
  0.39640023D-07 -0.10895437D-03 -0.11257016D-04  0.77941345D-08  0.20623048D-07
 -0.11352054D-04  0.38616694D-07  0.27721488D-08  0.51431026D-04 -0.84600413D-04
  0.81216958D-07 -0.15407062D-03  0.12696808D-03 -0.89533404D-07 -0.22245796D-06
  0.12683316D-03  0.54418905D-07 -0.43268938D-05 -0.78037311D-05 -0.11506597D-04
  0.74680905D-03  0.23310383D-03  0.50931954D-05  0.17307878D-07  0.96056430D-04
  0.27981549D-04  0.24766845D-07  0.19757712D-03 -0.37001716D-05  0.12565561D-07
  0.43548288D-04  0.38441255D-04 -0.73540586D-04  0.54216515D-04  0.19324070D-04
  0.46023708D-07  0.42934645D-07  0.75013485D-04 -0.96620821D-05 -0.11967296D-04
  0.21629378D-04 -0.65615206D-08  0.66678198D-08 -0.34071991D-04 -0.43267565D-05
 -0.78034836D-05 -0.11506232D-04  0.74681093D-03  0.23312080D-03  0.50934300D-05
  0.83177151D-04 -0.48021286D-04  0.28030286D-04  0.17109516D-03 -0.98814247D-04
 -0.36084247D-05  0.37705377D-04 -0.21755788D-04  0.38463363D-04  0.22249362D-04
 -0.41613072D-04  0.19363710D-04 -0.11060905D-03  0.65028253D-04 -0.37456482D-04
 -0.11384972D-04 -0.10227272D-04  0.21612244D-04  0.19737029D-05 -0.29520436D-04
  0.17082644D-04 -0.43265826D-05 -0.78031700D-05 -0.11505770D-04  0.74681441D-03
  0.23311916D-03  0.50934226D-05 -0.83179591D-04 -0.48000345D-04  0.28060327D-04
 -0.17112196D-03 -0.98771226D-04 -0.35460156D-05 -0.37696954D-04 -0.21746247D-04
  0.38476878D-04  0.22254497D-04 -0.41640823D-04  0.19386326D-04  0.11056303D-03
 -0.65040963D-04 -0.37480323D-04 -0.11374977D-04 -0.10226780D-04  0.21601757D-04
 -0.19668698D-05  0.29547874D-04  0.17075755D-04 -0.15494684D+00 -0.28988900D+00
 -0.50086389D+00 -0.81195922D+00 -0.12330380D+01 -0.17138068D+01 -0.20375850D+01
 -0.18151515D+01 -0.90144261D+00 -0.14512463D+00 -0.15311506D-02 -0.72444790D-03
 -0.24166369D-01 -0.84214958D-01 -0.30327170D+00 -0.66852472D+00 -0.94106704D+00
  0.44891965D-01  0.12315496D+01  0.72820760D+00 -0.15559924D-04 -0.18846868D-03
 -0.39303156D-03 -0.11271461D-02 -0.58531127D-04  0.48608006D-02  0.12559375D-01
 -0.10232788D-01  0.46702493D-01 -0.39271115D-03 -0.13125421D-03  0.10462339D-02
  0.13781347D-02  0.15202984D-02  0.12627268D-02  0.67054298D-03  0.17300359D-03
  0.25768810D-02  0.33943551D-02  0.37445050D-02  0.31101046D-02  0.16515518D-02
  0.42610901D-03  0.59040205D+01  0.77769762D+01  0.85792221D+01  0.71257157D+01
  0.37839528D+01  0.97627959D+00 -0.37071682D-07  0.35838517D-06  0.50536050D-06
  0.72279921D-06 -0.36601534D-08 -0.66287504D-06 -0.91290848D-07  0.88254118D-06
  0.12444752D-05  0.17799287D-05 -0.90133085D-08 -0.16323625D-05 -0.20919018D-03
  0.20223161D-02  0.28516768D-02  0.40786521D-02 -0.20653720D-04 -0.37405087D-02
  0.73353364D-05  0.18063007D-04  0.41390413D-01 -0.85340610D-07 -0.20918665D-06
 -0.48064120D-03 -0.17090281D-08 -0.42936050D-08 -0.97194600D-05 -0.97194003D-05
 -0.97194002D-05  0.19438801D-04  0.35753690D-10  0.10076865D-07  0.26215575D-07
 -0.10995835D-03 -0.10995834D-03  0.21991670D-03  0.36047558D-10  0.11735596D-06
  0.28641976D-06 -0.14295505D-04 -0.14295415D-04  0.28590921D-04  0.20008396D-10
  0.15310558D-07  0.37086024D-07  0.11045574D-08 -0.71673353D-05  0.58902084D-05
 -0.98333316D-08  0.21487200D-04 -0.88451152D-05  0.65196595D-08  0.14806175D-07
 -0.88255100D-05 -0.74142462D-08  0.81936728D-08  0.20627216D-05 -0.33503091D-04
  0.11309941D-07 -0.61012232D-05  0.50257508D-04 -0.35890960D-07 -0.86941740D-07
  0.50251764D-04  0.20539729D-08 -0.84978665D-03 -0.15840038D-02 -0.26852393D-02
 -0.40658155D-02 -0.50831648D-02 -0.43724333D-02 -0.16769223D-02 -0.67857194D-06
 -0.89830219D-05 -0.32627970D-04 -0.96790259D-04 -0.11153122D-03  0.13547128D-03
 -0.93728346D-04 -0.15484109D-03  0.14068421D-04  0.66010170D-06  0.64556505D-06
  0.42655212D-06  0.17622296D-05  0.17234220D-05  0.11387378D-05  0.38786246D-02
  0.37932102D-02  0.25063343D-02  0.14851275D-06  0.40112724D-06  0.87789441D-03
  0.44365839D-08  0.90921158D-08  0.23018674D-04  0.15681185D-08  0.44595292D-08
  0.95695340D-05 -0.34595713D-04 -0.34593817D-04  0.69189530D-04  0.92166866D-09
  0.35393188D-07  0.94320405D-07  0.20070384D-04  0.20069609D-04 -0.40139994D-04
 -0.39381424D-09 -0.20787711D-07 -0.54038737D-07  0.18186808D-04  0.18186833D-04
 -0.36373642D-04  0.48960483D-10 -0.17956453D-07 -0.51102036D-07 -0.10506667D-07
 -0.28006557D-05  0.49515120D-04 -0.14725074D-07  0.82561024D-05 -0.74279824D-04
  0.46245076D-07  0.14586475D-06 -0.74265537D-04 -0.53475785D-09  0.59737854D-08
  0.89205685D-06 -0.26237767D-04  0.73063346D-08 -0.26007048D-05  0.39358931D-04
 -0.25227691D-07 -0.75465783D-07  0.39354371D-04  0.14925055D-09
MO    4     MO 0.0        OCC NO =    2.0000122  ORB. ENERGY =    0.000000
  0.26929043D-01  0.50201160D-01  0.84846801D-01  0.12754057D+00  0.15666074D+00
  0.13221614D+00  0.49716721D-01 -0.14659200D-05 -0.10956844D-04 -0.40948227D-04
 -0.11423918D-03 -0.15304900D-03  0.18072233D-03  0.26572798D-02 -0.36140117D-02
 -0.44137067D-04  0.64811986D-06  0.60765356D-06  0.43268554D-06  0.16035358D-05
  0.15034168D-05  0.10705223D-05  0.36744021D-02  0.34449855D-02  0.24530349D-02
  0.22857764D-06  0.56539945D-06  0.13053165D-02 -0.74244229D-07 -0.18888343D-06
 -0.41861750D-03  0.66256012D-09  0.14120255D-08  0.35547971D-05 -0.31850247D-03
 -0.31850505D-03  0.63700752D-03 -0.12348932D-08  0.33877541D-06  0.83262585D-06
  0.10184055D-04  0.10188440D-04 -0.20372495D-04 -0.44707169D-09 -0.10159262D-07
 -0.27258405D-07 -0.17348662D-04 -0.17347877D-04  0.34696540D-04 -0.38396940D-11
  0.17973101D-07  0.46130628D-07  0.10494039D-07 -0.42475924D-04  0.22338688D-04
 -0.54338491D-07  0.12736725D-03 -0.33564565D-04  0.22856373D-07  0.60525559D-07
 -0.33451499D-04 -0.44285319D-07  0.12084859D-07  0.82506504D-04 -0.16394146D-03
  0.13789999D-06 -0.24709014D-03  0.24601983D-03 -0.17415457D-06 -0.42937501D-06
  0.24580456D-03  0.87597764D-07 -0.90054275D-04 -0.16241659D-03 -0.23948317D-03
  0.10277779D-02  0.68232157D-03  0.43837320D-05 -0.13094274D-08 -0.57571358D-04
  0.33336034D-04  0.31522803D-07  0.30513582D-03 -0.42880040D-04  0.27556111D-07
  0.11074048D-03  0.76072216D-04 -0.14269726D-03  0.24257504D-04  0.11843976D-03
  0.68028638D-07  0.11076944D-06  0.14285157D-03 -0.15063605D-04 -0.21228007D-04
  0.36291613D-04 -0.12694532D-07  0.10339214D-07 -0.62803203D-04 -0.90053928D-04
 -0.16241597D-03 -0.23948225D-03  0.10277881D-02  0.68233599D-03  0.43848335D-05
 -0.49857850D-04  0.28811899D-04  0.33312774D-04  0.26424575D-03 -0.15263227D-03
 -0.42730740D-04  0.95883278D-04 -0.55334448D-04  0.76128371D-04 -0.17528594D-04
 -0.10099149D-03  0.11852008D-03 -0.14451550D-03  0.12374554D-03 -0.71185261D-04
 -0.19675391D-04 -0.16584096D-04  0.36259487D-04  0.52976225D-05 -0.54409625D-04
  0.31477820D-04 -0.90054198D-04 -0.16241646D-03 -0.23948297D-03  0.10277907D-02
  0.68234025D-03  0.43845645D-05  0.49876876D-04  0.28799013D-04  0.33294940D-04
 -0.26429983D-03 -0.15256539D-03 -0.42636957D-04 -0.95870829D-04 -0.55310282D-04
  0.76162582D-04 -0.17534090D-04 -0.10102709D-03  0.11856118D-03  0.14444888D-03
 -0.12366769D-03 -0.71205303D-04 -0.19657505D-04 -0.16582985D-04  0.36240489D-04
 -0.52845842D-05  0.54458080D-04  0.31466154D-04  0.90725923D-01  0.16973852D+00
  0.29327052D+00  0.47542596D+00  0.72197995D+00  0.10034842D+01  0.11930658D+01
  0.10628245D+01  0.52782112D+00  0.84974734D-01  0.89653364D-03  0.42476934D-03
  0.14169594D-01  0.49378199D-01  0.17781889D+00  0.39197961D+00  0.55178079D+00
 -0.26321742D-01 -0.72210098D+00 -0.42697379D+00  0.62082483D-05  0.75197048D-04
  0.15681552D-03  0.44971960D-03  0.23353312D-04 -0.19394090D-02 -0.50110604D-02
  0.40827762D-02 -0.28370202D-01  0.14188551D-02 -0.18029165D-03  0.17663437D-02
  0.23266879D-02  0.25667009D-02  0.21318461D-02  0.11320694D-02  0.29207983D-03
  0.43186652D-02  0.56886923D-02  0.62755181D-02  0.52123091D-02  0.27678808D-02
  0.71412771D-03  0.99364580D+01  0.13088640D+02  0.14438818D+02  0.11992569D+02
  0.63683870D+01  0.16430771D+01 -0.59904337D-07  0.57911658D-06  0.81661483D-06
  0.11679752D-05 -0.59144622D-08 -0.10711434D-05 -0.14637410D-06  0.14150506D-05
  0.19953691D-05  0.28539056D-05 -0.14451776D-07 -0.26173006D-05 -0.33692646D-03
  0.32571883D-02  0.45929755D-02  0.65691699D-02 -0.33265352D-04 -0.60245484D-02
  0.12931800D-04  0.31616339D-04  0.72746113D-01 -0.54072956D-07 -0.13447914D-06
 -0.30673803D-03 -0.65723587D-09 -0.17970878D-08 -0.38889847D-05  0.45722333D-03
  0.45722333D-03 -0.91444666D-03 -0.14859749D-09 -0.48822490D-06 -0.11900052D-05
 -0.31054850D-03 -0.31054860D-03  0.62109710D-03  0.79194780D-10  0.33138626D-06
  0.80880689D-06  0.42818648D-05  0.42819761D-05 -0.85638409D-05  0.30031044D-11
 -0.47646842D-08 -0.10618836D-07  0.17960918D-07 -0.14557068D-04 -0.46556668D-04
 -0.43125318D-08  0.43792572D-04  0.69815704D-04 -0.49570223D-07 -0.12136692D-06
  0.69854301D-04 -0.15692294D-07  0.15148447D-07  0.42324951D-05 -0.62785761D-04
  0.21548587D-07 -0.12533884D-04  0.94184208D-04 -0.66993927D-07 -0.16360096D-06
  0.94173076D-04  0.44737836D-08 -0.62650884D-02 -0.11678136D-01 -0.19797042D-01