 Entering Gaussian System, Link 0=/home/bruns/programas/chemistry/gaussian/g09/g09
 Input=GAUSSIAN.com
 Output=GAUSSIAN.log
 Initial command:
 /home/bruns/programas/chemistry/gaussian/g09/l1.exe /home/bruns/programas/chemistry/gaussian/work/Gau-74182.inp -scrdir=/home/bruns/programas/chemistry/gaussian/work/
 Entering Link 1 = /home/bruns/programas/chemistry/gaussian/g09/l1.exe PID=     74184.
  
 Copyright (c) 1988,1990,1992,1993,1995,1998,2003,2009,2010,
            Gaussian, Inc.  All Rights Reserved.
  
 This is part of the Gaussian(R) 09 program.  It is based on
 the Gaussian(R) 03 system (copyright 2003, Gaussian, Inc.),
 the Gaussian(R) 98 system (copyright 1998, Gaussian, Inc.),
 the Gaussian(R) 94 system (copyright 1995, Gaussian, Inc.),
 the Gaussian 92(TM) system (copyright 1992, Gaussian, Inc.),
 the Gaussian 90(TM) system (copyright 1990, Gaussian, Inc.),
 the Gaussian 88(TM) system (copyright 1988, Gaussian, Inc.),
 the Gaussian 86(TM) system (copyright 1986, Carnegie Mellon
 University), and the Gaussian 82(TM) system (copyright 1983,
 Carnegie Mellon University). Gaussian is a federally registered
 trademark of Gaussian, Inc.
  
 This software contains proprietary and confidential information,
 including trade secrets, belonging to Gaussian, Inc.
  
 This software is provided under written license and may be
 used, copied, transmitted, or stored only in accord with that
 written license.
  
 The following legend is applicable only to US Government
 contracts under FAR:
  
                    RESTRICTED RIGHTS LEGEND
  
 Use, reproduction and disclosure by the US Government is
 subject to restrictions as set forth in subparagraphs (a)
 and (c) of the Commercial Computer Software - Restricted
 Rights clause in FAR 52.227-19.
  
 Gaussian, Inc.
 340 Quinnipiac St., Bldg. 40, Wallingford CT 06492
  
  
 ---------------------------------------------------------------
 Warning -- This program may not be used in any manner that
 competes with the business of Gaussian, Inc. or will provide
 assistance to any competitor of Gaussian, Inc.  The licensee
 of this program is prohibited from giving any competitor of
 Gaussian, Inc. access to this program.  By using this program,
 the user acknowledges that Gaussian, Inc. is engaged in the
 business of creating and licensing software in the field of
 computational chemistry and represents and warrants to the
 licensee that it is not a competitor of Gaussian, Inc. and that
 it will not use this program in any manner prohibited above.
 ---------------------------------------------------------------
  

 Cite this work as:
 Gaussian 09, Revision B.01,
 M. J. Frisch, G. W. Trucks, H. B. Schlegel, G. E. Scuseria, 
 M. A. Robb, J. R. Cheeseman, G. Scalmani, V. Barone, B. Mennucci, 
 G. A. Petersson, H. Nakatsuji, M. Caricato, X. Li, H. P. Hratchian, 
 A. F. Izmaylov, J. Bloino, G. Zheng, J. L. Sonnenberg, M. Hada, 
 M. Ehara, K. Toyota, R. Fukuda, J. Hasegawa, M. Ishida, T. Nakajima, 
 Y. Honda, O. Kitao, H. Nakai, T. Vreven, J. A. Montgomery, Jr., 
 J. E. Peralta, F. Ogliaro, M. Bearpark, J. J. Heyd, E. Brothers, 
 K. N. Kudin, V. N. Staroverov, T. Keith, R. Kobayashi, J. Normand, 
 K. Raghavachari, A. Rendell, J. C. Burant, S. S. Iyengar, J. Tomasi, 
 M. Cossi, N. Rega, J. M. Millam, M. Klene, J. E. Knox, J. B. Cross, 
 V. Bakken, C. Adamo, J. Jaramillo, R. Gomperts, R. E. Stratmann, 
 O. Yazyev, A. J. Austin, R. Cammi, C. Pomelli, J. W. Ochterski, 
 R. L. Martin, K. Morokuma, V. G. Zakrzewski, G. A. Voth, 
 P. Salvador, J. J. Dannenberg, S. Dapprich, A. D. Daniels, 
 O. Farkas, J. B. Foresman, J. V. Ortiz, J. Cioslowski, 
 and D. J. Fox, Gaussian, Inc., Wallingford CT, 2010.
 
 ******************************************
 Gaussian 09:  EM64L-G09RevB.01 12-Aug-2010
                23-Aug-2020 
 ******************************************
 %nproc=8
 Will use up to    8 processors via shared memory.
 %mem=8GB
 -----------------------------------------------------
 # QCISD aug-cc-pvtz nosymm density=current output=wfn
 -----------------------------------------------------
 1/30=1,38=1/1;
 2/12=2,15=1,17=6,18=5,40=1/2;
 3/5=16,6=1,7=10,11=9,16=1,25=1,30=1,71=1/1,2,3;
 4//1;
 5/5=2,38=5/2;
 8/6=4,9=120000,10=1/1,4;
 9/5=8,15=1/13;
 11/28=-7,31=1,32=3,42=3/11;
 10/5=6,13=10,31=1/2;
 6/7=2,8=2,9=2,10=2,22=-1,31=1/1;
 99/5=1,6=1100,9=1/99;
 ----------------------
 clch3f_ts-wavefunction
 ----------------------
 Symbolic Z-matrix:
 Charge = -1 Multiplicity = 1
 C                     0.00018   0.00003  -0.48771 
 H                     0.00002  -1.05257  -0.62073 
 H                    -0.91131   0.52637  -0.62125 
 H                     0.91175   0.52613  -0.62157 
 Cl                    0.00056   0.00096   1.64472 
 F                    -0.00019  -0.00092  -2.59347 
 
                          Input orientation:                          
 ---------------------------------------------------------------------
 Center     Atomic      Atomic             Coordinates (Angstroms)
 Number     Number       Type             X           Y           Z
 ---------------------------------------------------------------------
      1          6           0        0.000175    0.000029   -0.487709
      2          1           0        0.000019   -1.052570   -0.620726
      3          1           0       -0.911312    0.526365   -0.621245
      4          1           0        0.911750    0.526132   -0.621570
      5         17           0        0.000555    0.000962    1.644718
      6          9           0       -0.000186   -0.000921   -2.593468
 ---------------------------------------------------------------------
                    Distance matrix (angstroms):
                    1          2          3          4          5
     1  C    0.000000
     2  H    1.060970   0.000000
     3  H    1.060976   1.823063   0.000000
     4  H    1.060977   1.823062   1.823062   0.000000
     5  Cl   2.132427   2.498433   2.498427   2.498428   0.000000
     6  F    2.105759   2.235548   2.235586   2.235575   4.238186
                    6
     6  F    0.000000
 Symmetry turned off by external request.
 This structure is nearly, but not quite of a higher symmetry.
 Consider Symm=Loose if the higher symmetry is desired.
 Stoichiometry    CH3ClF(1-)
 Framework group  C1[X(CH3ClF)]
 Deg. of freedom    12
 Full point group                 C1      NOp   1
 Rotational constants (GHZ):    150.8790651      2.2158858      2.2158858
 Standard basis: Aug-CC-pVTZ (5D, 7F)
 Integral buffers will be    131072 words long.
 Raffenetti 1 integral format.
 Two-electron integral symmetry is turned off.
   211 basis functions,   339 primitive gaussians,   244 cartesian basis functions
    18 alpha electrons       18 beta electrons
       nuclear repulsion energy        85.0274120272 Hartrees.
 NAtoms=    6 NActive=    6 NUniq=    6 SFac= 1.00D+00 NAtFMM=   50 NAOKFM=F Big=F
 One-electron integrals computed using PRISM.
 NBasis=   211 RedAO= T  NBF=   211
 NBsUse=   211 1.00D-06 NBFU=   211
 Harris functional with IExCor=  205 diagonalized for initial guess.
 ExpMin= 2.53D-02 ExpMax= 4.56D+05 ExpMxC= 1.44D+03 IAcc=3 IRadAn=         0 AccDes= 0.00D+00
 HarFok:  IExCor=  205 AccDes= 0.00D+00 IRadAn=         0 IDoV= 1
 ScaDFX=  1.000000  1.000000  1.000000  1.000000
 FoFCou: FMM=F IPFlag=           0 FMFlag=      100000 FMFlg1=           0
         NFxFlg=           0 DoJE=T BraDBF=F KetDBF=T FulRan=T
         Omega=  0.000000  0.000000  1.000000  0.000000  0.000000 ICntrl=     500 IOpCl=  0
         NMat0=    1 NMatS0=    1 NMatT0=    0 NMatD0=    1 NMtDS0=    0 NMtDT0=    0
         I1Cent=           4 NGrid=           0.
 Symmetry not used in FoFCou.
 Requested convergence on RMS density matrix=1.00D-08 within 128 cycles.
 Requested convergence on MAX density matrix=1.00D-06.
 Requested convergence on             energy=1.00D-06.
 No special actions if energy rises.
 Keep R1 ints in memory in canonical form, NReq=454274131.
 SCF Done:  E(RHF) =  -598.617133668     A.U. after   12 cycles
             Convg  =    0.9123D-08             -V/T =  2.0001
 ExpMin= 2.53D-02 ExpMax= 4.56D+05 ExpMxC= 1.44D+03 IAcc=3 IRadAn=         5 AccDes= 0.00D+00
 HarFok:  IExCor=  205 AccDes= 0.00D+00 IRadAn=         5 IDoV=-2
 ScaDFX=  1.000000  1.000000  1.000000  1.000000
 DSYEVD returned Info=         101 IAlg= 4 N=    50 NDim=    50 NE2=    21472034 trying DSYEV.
 Range of M.O.s used for correlation:     8   211
 NBasis=   211 NAE=    18 NBE=    18 NFC=     7 NFV=     0
 NROrb=    204 NOA=    11 NOB=    11 NVA=   193 NVB=   193

 **** Warning!!: The largest alpha MO coefficient is  0.33331063D+02

 Semi-Direct transformation.
 ModeAB=           2 MOrb=            11 LenV=    1072528222
 LASXX=     44979418 LTotXX=    44979418 LenRXX=    44979418
 LTotAB=    45631872 MaxLAS=    67073160 LenRXY=    67073160
 NonZer=    89958836 LenScr=   135708672 LnRSAI=           0
 LnScr1=           0 LExtra=           0 Total=    247761250
 MaxDsk=          -1 SrtSym=           F ITran=            4
 JobTyp=0 Pass  1:  I=   1 to  11.
 (rs|ai) integrals will be sorted in core.
 Spin components of T(2) and E(2):
     alpha-alpha T2 =       0.2567307713D-01 E2=     -0.8210732370D-01
     alpha-beta  T2 =       0.1452883853D+00 E2=     -0.5101123629D+00
     beta-beta   T2 =       0.2567307713D-01 E2=     -0.8210732370D-01
 ANorm=    0.1093907921D+01
 E2 =    -0.6743270103D+00 EUMP2 =    -0.59929146067882D+03
 R2 and R3 integrals will be kept in memory, NReq=   900794930.
 Iterations=  50 Convergence= 0.100D-07
 Iteration Nr.   1
 **********************
 DD1Dir will call FoFMem   1 times, MxPair=       132
 NAB=    66 NAA=     0 NBB=     0.
 MP4(R+Q)=  0.14431148D-01
 E3=       -0.18719114D-01        EUMP3=      -0.59931017979D+03
 E4(DQ)=   -0.46025481D-03        UMP4(DQ)=   -0.59931064005D+03
 E4(SDQ)=  -0.97671297D-02        UMP4(SDQ)=  -0.59931994692D+03
 DE(Corr)= -0.67861498     E(Corr)=     -599.29574864    
 NORM(A)=   0.10996880D+01
 Iteration Nr.   2
 **********************
 DD1Dir will call FoFMem   1 times, MxPair=       132
 NAB=    66 NAA=     0 NBB=     0.
 DE(Corr)= -0.70073990     E(CORR)=     -599.31787357     Delta=-2.21D-02
 NORM(A)=   0.11070198D+01
 Iteration Nr.   3
 **********************
 DD1Dir will call FoFMem   1 times, MxPair=       132
 NAB=    66 NAA=     0 NBB=     0.
 DE(Corr)= -0.69837202     E(CORR)=     -599.31550569     Delta= 2.37D-03
 NORM(A)=   0.11109633D+01
 Iteration Nr.   4
 **********************
 DD1Dir will call FoFMem   1 times, MxPair=       132
 NAB=    66 NAA=     0 NBB=     0.
 DE(Corr)= -0.70140866     E(CORR)=     -599.31854233     Delta=-3.04D-03
 NORM(A)=   0.11130323D+01
 Iteration Nr.   5
 **********************
 DD1Dir will call FoFMem   1 times, MxPair=       132
 NAB=    66 NAA=     0 NBB=     0.
 DE(Corr)= -0.70199741     E(CORR)=     -599.31913108     Delta=-5.89D-04
 NORM(A)=   0.11140578D+01
 Iteration Nr.   6
 **********************
 DD1Dir will call FoFMem   1 times, MxPair=       132
 NAB=    66 NAA=     0 NBB=     0.
 DE(Corr)= -0.70214385     E(CORR)=     -599.31927752     Delta=-1.46D-04
 NORM(A)=   0.11143877D+01
 Iteration Nr.   7
 **********************
 DD1Dir will call FoFMem   1 times, MxPair=       132
 NAB=    66 NAA=     0 NBB=     0.
 DE(Corr)= -0.70217387     E(CORR)=     -599.31930754     Delta=-3.00D-05
 NORM(A)=   0.11144206D+01
 Iteration Nr.   8
 **********************
 DD1Dir will call FoFMem   1 times, MxPair=       132
 NAB=    66 NAA=     0 NBB=     0.
 DE(Corr)= -0.70218886     E(CORR)=     -599.31932253     Delta=-1.50D-05
 NORM(A)=   0.11144396D+01
 Iteration Nr.   9
 **********************
 DD1Dir will call FoFMem   1 times, MxPair=       132
 NAB=    66 NAA=     0 NBB=     0.
 DE(Corr)= -0.70216464     E(CORR)=     -599.31929831     Delta= 2.42D-05
 NORM(A)=   0.11144437D+01
 Iteration Nr.  10
 **********************
 DD1Dir will call FoFMem   1 times, MxPair=       132
 NAB=    66 NAA=     0 NBB=     0.
 DE(Corr)= -0.70218458     E(CORR)=     -599.31931824     Delta=-1.99D-05
 NORM(A)=   0.11144437D+01
 Iteration Nr.  11
 **********************
 DD1Dir will call FoFMem   1 times, MxPair=       132
 NAB=    66 NAA=     0 NBB=     0.
 DE(Corr)= -0.70217516     E(CORR)=     -599.31930883     Delta= 9.42D-06
 NORM(A)=   0.11144465D+01
 Iteration Nr.  12
 **********************
 DD1Dir will call FoFMem   1 times, MxPair=       132
 NAB=    66 NAA=     0 NBB=     0.
 DE(Corr)= -0.70217881     E(CORR)=     -599.31931247     Delta=-3.65D-06
 NORM(A)=   0.11144467D+01
 Iteration Nr.  13
 **********************
 DD1Dir will call FoFMem   1 times, MxPair=       132
 NAB=    66 NAA=     0 NBB=     0.
 DE(Corr)= -0.70217932     E(CORR)=     -599.31931299     Delta=-5.17D-07
 NORM(A)=   0.11144472D+01
 Iteration Nr.  14
 **********************
 DD1Dir will call FoFMem   1 times, MxPair=       132
 NAB=    66 NAA=     0 NBB=     0.
 DE(Corr)= -0.70217954     E(CORR)=     -599.31931321     Delta=-2.20D-07
 NORM(A)=   0.11144472D+01
 Iteration Nr.  15
 **********************
 DD1Dir will call FoFMem   1 times, MxPair=       132
 NAB=    66 NAA=     0 NBB=     0.
 DE(Corr)= -0.70217942     E(CORR)=     -599.31931309     Delta= 1.24D-07
 NORM(A)=   0.11144470D+01
 Iteration Nr.  16
 **********************
 DD1Dir will call FoFMem   1 times, MxPair=       132
 NAB=    66 NAA=     0 NBB=     0.
 DE(Corr)= -0.70217961     E(CORR)=     -599.31931328     Delta=-1.94D-07
 NORM(A)=   0.11144468D+01
 Iteration Nr.  17
 **********************
 DD1Dir will call FoFMem   1 times, MxPair=       132
 NAB=    66 NAA=     0 NBB=     0.
 DE(Corr)= -0.70217946     E(CORR)=     -599.31931313     Delta= 1.52D-07
 NORM(A)=   0.11144466D+01
 Iteration Nr.  18
 **********************
 DD1Dir will call FoFMem   1 times, MxPair=       132
 NAB=    66 NAA=     0 NBB=     0.
 DE(Corr)= -0.70217950     E(CORR)=     -599.31931316     Delta=-3.48D-08
 NORM(A)=   0.11144465D+01
 Iteration Nr.  19
 **********************
 DD1Dir will call FoFMem   1 times, MxPair=       132
 NAB=    66 NAA=     0 NBB=     0.
 DE(Corr)= -0.70217943     E(CORR)=     -599.31931310     Delta= 6.21D-08
 NORM(A)=   0.11144464D+01
 Iteration Nr.  20
 **********************
 DD1Dir will call FoFMem   1 times, MxPair=       132
 NAB=    66 NAA=     0 NBB=     0.
 DE(Corr)= -0.70217944     E(CORR)=     -599.31931310     Delta=-1.88D-09
 NORM(A)=   0.11144463D+01
 Iteration Nr.  21
 **********************
 DD1Dir will call FoFMem   1 times, MxPair=       132
 NAB=    66 NAA=     0 NBB=     0.
 DE(Corr)= -0.70217942     E(CORR)=     -599.31931308     Delta= 1.97D-08
 NORM(A)=   0.11144463D+01
 Iteration Nr.  22
 **********************
 DD1Dir will call FoFMem   1 times, MxPair=       132
 NAB=    66 NAA=     0 NBB=     0.
 DE(Corr)= -0.70217941     E(CORR)=     -599.31931308     Delta= 2.96D-09
 NORM(A)=   0.11144462D+01
 Iteration Nr.  23
 **********************
 DD1Dir will call FoFMem   1 times, MxPair=       132
 NAB=    66 NAA=     0 NBB=     0.
 DE(Corr)= -0.70217941     E(CORR)=     -599.31931308     Delta= 5.47D-09
 NORM(A)=   0.11144462D+01
 Iteration Nr.  24
 **********************
 DD1Dir will call FoFMem   1 times, MxPair=       132
 NAB=    66 NAA=     0 NBB=     0.
 DE(Corr)= -0.70217941     E(CORR)=     -599.31931308     Delta= 4.93D-11
 NORM(A)=   0.11144462D+01
 Iteration Nr.  25
 **********************
 DD1Dir will call FoFMem   1 times, MxPair=       132
 NAB=    66 NAA=     0 NBB=     0.
 DE(Corr)= -0.70217941     E(CORR)=     -599.31931308     Delta=-3.00D-09
 NORM(A)=   0.11144462D+01
 Iteration Nr.  26
 **********************
 DD1Dir will call FoFMem   1 times, MxPair=       132
 NAB=    66 NAA=     0 NBB=     0.
 DE(Corr)= -0.70217941     E(CORR)=     -599.31931308     Delta= 1.85D-09
 NORM(A)=   0.11144462D+01
 Iteration Nr.  27
 **********************
 DD1Dir will call FoFMem   1 times, MxPair=       132
 NAB=    66 NAA=     0 NBB=     0.
 DE(Corr)= -0.70217941     E(CORR)=     -599.31931308     Delta=-1.19D-09
 NORM(A)=   0.11144462D+01
 Iteration Nr.  28
 **********************
 DD1Dir will call FoFMem   1 times, MxPair=       132
 NAB=    66 NAA=     0 NBB=     0.
 DE(Corr)= -0.70217941     E(CORR)=     -599.31931308     Delta= 2.37D-09
 NORM(A)=   0.11144462D+01
 Iteration Nr.  29
 **********************
 DD1Dir will call FoFMem   1 times, MxPair=       132
 NAB=    66 NAA=     0 NBB=     0.
 DE(Corr)= -0.70217941     E(CORR)=     -599.31931308     Delta= 1.38D-10
 NORM(A)=   0.11144462D+01
 Iteration Nr.  30
 **********************
 DD1Dir will call FoFMem   1 times, MxPair=       132
 NAB=    66 NAA=     0 NBB=     0.
 DE(Corr)= -0.70217941     E(CORR)=     -599.31931308     Delta= 1.88D-11
 NORM(A)=   0.11144462D+01
 Iteration Nr.  31
 **********************
 DD1Dir will call FoFMem   1 times, MxPair=       132
 NAB=    66 NAA=     0 NBB=     0.
 DE(Corr)= -0.70217941     E(CORR)=     -599.31931308     Delta= 4.54D-12
 NORM(A)=   0.11144462D+01
 Iteration Nr.  32
 **********************
 DD1Dir will call FoFMem   1 times, MxPair=       132
 NAB=    66 NAA=     0 NBB=     0.
 DE(Corr)= -0.70217941     E(CORR)=     -599.31931308     Delta= 8.88D-10
 NORM(A)=   0.11144462D+01
 Iteration Nr.  33
 **********************
 DD1Dir will call FoFMem   1 times, MxPair=       132
 NAB=    66 NAA=     0 NBB=     0.
 DE(Corr)= -0.70217941     E(CORR)=     -599.31931308     Delta=-3.27D-09
 NORM(A)=   0.11144462D+01
 Iteration Nr.  34
 **********************
 DD1Dir will call FoFMem   1 times, MxPair=       132
 NAB=    66 NAA=     0 NBB=     0.
 DE(Corr)= -0.70217941     E(CORR)=     -599.31931308     Delta= 1.38D-09
 NORM(A)=   0.11144462D+01
 Largest amplitude= 6.46D-02

 Z-AMPLITUDE ITERATIONS

 Iteration Nr.   1
 **********************
 DD1Dir will call FoFMem   1 times, MxPair=       132
 NAB=    66 NAA=     0 NBB=     0.
 DE(Z)  -0.68281955D+00          E(Z)=    -0.59929995322D+03
 NORM(A)=   0.11141622D+01
 Iteration Nr.   2
 **********************
 DD1Dir will call FoFMem   1 times, MxPair=       132
 NAB=    66 NAA=     0 NBB=     0.
 DE(Z)  -0.68278803D+00          E(Z)=    -0.59929992170D+03
 NORM(A)=   0.11141633D+01
 Iteration Nr.   3
 **********************
 DD1Dir will call FoFMem   1 times, MxPair=       132
 NAB=    66 NAA=     0 NBB=     0.
 DE(Z)  -0.68279246D+00          E(Z)=    -0.59929992613D+03
 NORM(A)=   0.11111870D+01
 Iteration Nr.   4
 **********************
 DD1Dir will call FoFMem   1 times, MxPair=       132
 NAB=    66 NAA=     0 NBB=     0.
 DE(Z)  -0.68248778D+00          E(Z)=    -0.59929962145D+03
 NORM(A)=   0.11139832D+01
 Iteration Nr.   5
 **********************
 DD1Dir will call FoFMem   1 times, MxPair=       132
 NAB=    66 NAA=     0 NBB=     0.
 DE(Z)  -0.68277397D+00          E(Z)=    -0.59929990764D+03
 NORM(A)=   0.11078223D+01
 Iteration Nr.   6
 **********************
 DD1Dir will call FoFMem   1 times, MxPair=       132
 NAB=    66 NAA=     0 NBB=     0.
 DE(Z)  -0.68214848D+00          E(Z)=    -0.59929928215D+03
 NORM(A)=   0.11078159D+01
 Iteration Nr.   7
 **********************
 DD1Dir will call FoFMem   1 times, MxPair=       132
 NAB=    66 NAA=     0 NBB=     0.
 DE(Z)  -0.68215101D+00          E(Z)=    -0.59929928468D+03
 NORM(A)=   0.11078134D+01
 Iteration Nr.   8
 **********************
 DD1Dir will call FoFMem   1 times, MxPair=       132
 NAB=    66 NAA=     0 NBB=     0.
 DE(Z)  -0.68214865D+00          E(Z)=    -0.59929928232D+03
 NORM(A)=   0.11078091D+01
 Iteration Nr.   9
 **********************
 DD1Dir will call FoFMem   1 times, MxPair=       132
 NAB=    66 NAA=     0 NBB=     0.
 DE(Z)  -0.68214907D+00          E(Z)=    -0.59929928274D+03
 NORM(A)=   0.11078081D+01
 Iteration Nr.  10
 **********************
 DD1Dir will call FoFMem   1 times, MxPair=       132
 NAB=    66 NAA=     0 NBB=     0.
 DE(Z)  -0.68214888D+00          E(Z)=    -0.59929928255D+03
 NORM(A)=   0.11078077D+01
 Iteration Nr.  11
 **********************
 DD1Dir will call FoFMem   1 times, MxPair=       132
 NAB=    66 NAA=     0 NBB=     0.
 DE(Z)  -0.68214887D+00          E(Z)=    -0.59929928254D+03
 NORM(A)=   0.11078077D+01
 Iteration Nr.  12
 **********************
 DD1Dir will call FoFMem   1 times, MxPair=       132
 NAB=    66 NAA=     0 NBB=     0.
 DE(Z)  -0.68214894D+00          E(Z)=    -0.59929928260D+03
 NORM(A)=   0.11078077D+01
 Iteration Nr.  13
 **********************
 DD1Dir will call FoFMem   1 times, MxPair=       132
 NAB=    66 NAA=     0 NBB=     0.
 DE(Z)  -0.68214894D+00          E(Z)=    -0.59929928261D+03
 NORM(A)=   0.11078077D+01
 Iteration Nr.  14
 **********************
 DD1Dir will call FoFMem   1 times, MxPair=       132
 NAB=    66 NAA=     0 NBB=     0.
 DE(Z)  -0.68214893D+00          E(Z)=    -0.59929928260D+03
 NORM(A)=   0.11078077D+01
 Iteration Nr.  15
 **********************
 DD1Dir will call FoFMem   1 times, MxPair=       132
 NAB=    66 NAA=     0 NBB=     0.
 DE(Z)  -0.68214895D+00          E(Z)=    -0.59929928262D+03
 NORM(A)=   0.11078077D+01
 Iteration Nr.  16
 **********************
 DD1Dir will call FoFMem   1 times, MxPair=       132
 NAB=    66 NAA=     0 NBB=     0.
 DE(Z)  -0.68214896D+00          E(Z)=    -0.59929928263D+03
 NORM(A)=   0.11078077D+01
 Iteration Nr.  17
 **********************
 DD1Dir will call FoFMem   1 times, MxPair=       132
 NAB=    66 NAA=     0 NBB=     0.
 DE(Z)  -0.68214895D+00          E(Z)=    -0.59929928262D+03
 NORM(A)=   0.11078077D+01
 Iteration Nr.  18
 **********************
 DD1Dir will call FoFMem   1 times, MxPair=       132
 NAB=    66 NAA=     0 NBB=     0.
 DE(Z)  -0.68214895D+00          E(Z)=    -0.59929928262D+03
 NORM(A)=   0.11078077D+01
 Iteration Nr.  19
 **********************
 DD1Dir will call FoFMem   1 times, MxPair=       132
 NAB=    66 NAA=     0 NBB=     0.
 DE(Z)  -0.68214895D+00          E(Z)=    -0.59929928262D+03
 NORM(A)=   0.11078077D+01
 Iteration Nr.  20
 **********************
 DD1Dir will call FoFMem   1 times, MxPair=       132
 NAB=    66 NAA=     0 NBB=     0.
 DE(Z)  -0.68214894D+00          E(Z)=    -0.59929928261D+03
 NORM(A)=   0.11078077D+01
 Iteration Nr.  21
 **********************
 DD1Dir will call FoFMem   1 times, MxPair=       132
 NAB=    66 NAA=     0 NBB=     0.
 DE(Z)  -0.68214895D+00          E(Z)=    -0.59929928261D+03
 NORM(A)=   0.11078077D+01
 Iteration Nr.  22
 **********************
 DD1Dir will call FoFMem   1 times, MxPair=       132
 NAB=    66 NAA=     0 NBB=     0.
 DE(Z)  -0.68214892D+00          E(Z)=    -0.59929928258D+03
 NORM(A)=   0.11078077D+01
 Iteration Nr.  23
 **********************
 DD1Dir will call FoFMem   1 times, MxPair=       132
 NAB=    66 NAA=     0 NBB=     0.
 DE(Z)  -0.68214895D+00          E(Z)=    -0.59929928262D+03
 NORM(A)=   0.11078077D+01
 Iteration Nr.  24
 **********************
 DD1Dir will call FoFMem   1 times, MxPair=       132
 NAB=    66 NAA=     0 NBB=     0.
 DE(Z)  -0.68214894D+00          E(Z)=    -0.59929928261D+03
 NORM(A)=   0.11078077D+01
 Iteration Nr.  25
 **********************
 DD1Dir will call FoFMem   1 times, MxPair=       132
 NAB=    66 NAA=     0 NBB=     0.
 DE(Z)  -0.68214895D+00          E(Z)=    -0.59929928262D+03
 NORM(A)=   0.11078077D+01
 Discarding MO integrals.
          Differentiating once with respect to electric field.
                with respect to dipole field.
          Electric field/nuclear overlap derivatives assumed to be zero.
          Keep R1 ints in memory in canonical form, NReq=448662239.
          There are     1 degrees of freedom in the 1st order CPHF.  IDoFFX=0.
 LinEq1:  Iter=  0 NonCon=     1 RMS=3.10D-03 Max=1.18D-01
 AX will form     1 AO Fock derivatives at one time.
 LinEq1:  Iter=  1 NonCon=     1 RMS=6.91D-04 Max=9.25D-03
 LinEq1:  Iter=  2 NonCon=     1 RMS=2.28D-04 Max=5.79D-03
 LinEq1:  Iter=  3 NonCon=     1 RMS=9.37D-05 Max=1.38D-03
 LinEq1:  Iter=  4 NonCon=     1 RMS=3.82D-05 Max=4.15D-04
 LinEq1:  Iter=  5 NonCon=     1 RMS=1.07D-05 Max=2.31D-04
 LinEq1:  Iter=  6 NonCon=     1 RMS=2.43D-06 Max=4.13D-05
 LinEq1:  Iter=  7 NonCon=     1 RMS=6.13D-07 Max=9.50D-06
 LinEq1:  Iter=  8 NonCon=     1 RMS=1.52D-07 Max=1.79D-06
 LinEq1:  Iter=  9 NonCon=     1 RMS=3.09D-08 Max=7.47D-07
 LinEq1:  Iter= 10 NonCon=     1 RMS=6.55D-09 Max=8.44D-08
 LinEq1:  Iter= 11 NonCon=     1 RMS=1.04D-09 Max=1.16D-08
 LinEq1:  Iter= 12 NonCon=     1 RMS=1.67D-10 Max=2.90D-09
 LinEq1:  Iter= 13 NonCon=     0 RMS=2.39D-11 Max=3.18D-10
 Linear equations converged to 1.000D-10 1.000D-09 after    13 iterations.
 End of Minotr Frequency-dependent properties file   721 does not exist.
 End of Minotr Frequency-dependent properties file   722 does not exist.

 **********************************************************************

            Population analysis using the QCI/CC density.

 **********************************************************************

     Natural Orbital Coefficients:
                           1         2         3         4         5
     Eigenvalues --     2.00003   2.00003   2.00002   2.00001   2.00001
   1 1   C  1S          0.00000   0.00000  -0.04502   0.07613   0.97649
   2        2S          0.00000   0.00000   0.00134   0.00061  -0.01330
   3        3S          0.00000   0.00000  -0.00138   0.00386   0.03984
   4        4S          0.00000   0.00000  -0.01267  -0.02403   0.00369
   5        5S          0.00000   0.00000  -0.00123  -0.00071  -0.00054
   6        6PX         0.00005  -0.00001   0.00000   0.00000   0.00000
   7        6PY         0.00001   0.00005   0.00000   0.00000   0.00000
   8        6PZ         0.00000   0.00000   0.00053   0.00170   0.00094
   9        7PX         0.00080  -0.00011   0.00000   0.00000   0.00000
  10        7PY         0.00011   0.00080   0.00000   0.00000   0.00000
  11        7PZ         0.00000   0.00000   0.00139   0.00304  -0.00094
  12        8PX         0.00448  -0.00062   0.00000   0.00000   0.00000
  13        8PY         0.00062   0.00448   0.00000   0.00000   0.00000
  14        8PZ         0.00000   0.00000  -0.00366  -0.00407  -0.00334
  15        9PX         0.00044  -0.00006   0.00000   0.00000   0.00000
  16        9PY         0.00006   0.00044   0.00000   0.00000   0.00000
  17        9PZ         0.00000   0.00000   0.00021   0.00016  -0.00050
  18       10D 0        0.00000   0.00000   0.00011   0.00033  -0.00056
  19       10D+1       -0.00015   0.00002   0.00000   0.00000   0.00000
  20       10D-1       -0.00002  -0.00015   0.00000   0.00000   0.00000
  21       10D+2        0.00001   0.00004   0.00000   0.00000   0.00000
  22       10D-2        0.00004  -0.00001   0.00000   0.00000   0.00000
  23       11D 0        0.00000   0.00000   0.00019  -0.00015  -0.00038
  24       11D+1        0.00025  -0.00003   0.00000   0.00000   0.00000
  25       11D-1        0.00003   0.00025   0.00000   0.00000   0.00000
  26       11D+2        0.00013   0.00096   0.00000   0.00000   0.00000
  27       11D-2        0.00096  -0.00013   0.00000   0.00000   0.00000
  28       12D 0        0.00000   0.00000  -0.00080   0.00120  -0.00233
  29       12D+1       -0.00133   0.00019   0.00000   0.00000   0.00000
  30       12D-1       -0.00019  -0.00133   0.00000   0.00000   0.00000
  31       12D+2        0.00022   0.00155   0.00000   0.00000   0.00000
  32       12D-2        0.00155  -0.00022   0.00000   0.00000   0.00000
  33       13F 0        0.00000   0.00000   0.00000   0.00002   0.00021
  34       13F+1       -0.00019   0.00003   0.00000   0.00000   0.00000
  35       13F-1       -0.00003  -0.00019   0.00000   0.00000   0.00000
  36       13F+2        0.00000   0.00001   0.00000   0.00000   0.00000
  37       13F-2        0.00001   0.00000   0.00000   0.00000   0.00000
  38       13F+3        0.00000   0.00000   0.00000   0.00000   0.00000
  39       13F-3        0.00000   0.00000  -0.00006   0.00006   0.00090
  40       14F 0        0.00000   0.00000  -0.00110  -0.00216  -0.00024
  41       14F+1        0.00058  -0.00008   0.00000   0.00000   0.00000
  42       14F-1        0.00008   0.00058   0.00000   0.00000   0.00000
  43       14F+2        0.00005   0.00034   0.00000   0.00000   0.00000
  44       14F-2        0.00034  -0.00005   0.00000   0.00000   0.00000
  45       14F+3        0.00000   0.00000   0.00000   0.00000   0.00000
  46       14F-3        0.00000   0.00000  -0.00085  -0.00136  -0.00182
  47 2   H  1S         -0.00002  -0.00016  -0.00002  -0.00035  -0.00134
  48        2S          0.00015   0.00110   0.00244   0.00338  -0.00084
  49        3S          0.00118   0.00849   0.00181   0.00535  -0.00447
  50        4S         -0.00003  -0.00024   0.00011   0.00010  -0.00014
  51        5PX         0.00000   0.00000   0.00000   0.00000   0.00000
  52        5PY         0.00000   0.00003   0.00004  -0.00002  -0.00048
  53        5PZ         0.00000   0.00001   0.00001   0.00001  -0.00009
  54        6PX         0.00017  -0.00002   0.00000   0.00000   0.00000
  55        6PY         0.00009   0.00063   0.00046   0.00071  -0.00082
  56        6PZ         0.00008   0.00061   0.00001  -0.00009   0.00023
  57        7PX         0.00085  -0.00012   0.00000   0.00000   0.00000
  58        7PY         0.00029   0.00205   0.00053   0.00136  -0.00105
  59        7PZ         0.00003   0.00025   0.00046   0.00093  -0.00008
  60        8D 0        0.00001   0.00004   0.00001   0.00006   0.00014
  61        8D+1       -0.00002   0.00000   0.00000   0.00000   0.00000
  62        8D-1        0.00001   0.00009   0.00002   0.00004  -0.00004
  63        8D+2       -0.00001  -0.00005  -0.00004  -0.00005   0.00028
  64        8D-2        0.00001   0.00000   0.00000   0.00000   0.00000
  65        9D 0        0.00005   0.00039   0.00015   0.00024   0.00060
  66        9D+1        0.00026  -0.00004   0.00000   0.00000   0.00000
  67        9D-1        0.00002   0.00012  -0.00014  -0.00026   0.00000
  68        9D+2       -0.00002  -0.00012   0.00001   0.00003  -0.00009
  69        9D-2        0.00010  -0.00001   0.00000   0.00000   0.00000
  70 3   H  1S         -0.00013   0.00010  -0.00002  -0.00035  -0.00134
  71        2S          0.00088  -0.00068   0.00244   0.00338  -0.00084
  72        3S          0.00676  -0.00527   0.00181   0.00535  -0.00447
  73        4S         -0.00019   0.00015   0.00011   0.00010  -0.00014
  74        5PX         0.00002  -0.00002   0.00004  -0.00002  -0.00041
  75        5PY        -0.00001   0.00001  -0.00002   0.00001   0.00024
  76        5PZ         0.00001  -0.00001   0.00001   0.00001  -0.00009
  77        6PX         0.00049  -0.00027   0.00040   0.00062  -0.00071
  78        6PY        -0.00016   0.00031  -0.00023  -0.00036   0.00041
  79        6PZ         0.00049  -0.00038   0.00001  -0.00009   0.00023
  80        7PX         0.00168  -0.00076   0.00046   0.00118  -0.00091
  81        7PY        -0.00036   0.00123  -0.00027  -0.00068   0.00053
  82        7PZ         0.00020  -0.00016   0.00046   0.00093  -0.00008
  83        8D 0        0.00003  -0.00002   0.00001   0.00006   0.00014
  84        8D+1        0.00006  -0.00006   0.00002   0.00004  -0.00004
  85        8D-1       -0.00005   0.00002  -0.00001  -0.00002   0.00002
  86        8D+2        0.00002  -0.00001   0.00002   0.00003  -0.00014
  87        8D-2       -0.00003   0.00003  -0.00004  -0.00005   0.00024
  88        9D 0        0.00031  -0.00024   0.00015   0.00024   0.00060
  89        9D+1        0.00016   0.00004  -0.00012  -0.00023   0.00000
  90        9D-1        0.00009   0.00021   0.00007   0.00013   0.00000
  91        9D+2        0.00010   0.00003  -0.00001  -0.00002   0.00005
  92        9D-2       -0.00005   0.00011   0.00001   0.00003  -0.00008
  93 4   H  1S          0.00015   0.00006  -0.00002  -0.00035  -0.00134
  94        2S         -0.00103  -0.00042   0.00244   0.00338  -0.00084
  95        3S         -0.00794  -0.00322   0.00181   0.00535  -0.00447
  96        4S          0.00022   0.00009   0.00011   0.00010  -0.00014
  97        5PX         0.00003   0.00001  -0.00004   0.00002   0.00041
  98        5PY         0.00001   0.00001  -0.00002   0.00001   0.00024
  99        5PZ        -0.00001   0.00000   0.00001   0.00001  -0.00009
 100        6PX         0.00054   0.00013  -0.00040  -0.00062   0.00071
 101        6PY         0.00024   0.00026  -0.00023  -0.00036   0.00041
 102        6PZ        -0.00057  -0.00023   0.00001  -0.00009   0.00023
 103        7PX         0.00183   0.00028  -0.00046  -0.00118   0.00091
 104        7PY         0.00068   0.00108  -0.00027  -0.00068   0.00052
 105        7PZ        -0.00024  -0.00010   0.00046   0.00093  -0.00008
 106        8D 0       -0.00004  -0.00001   0.00001   0.00006   0.00014
 107        8D+1        0.00007   0.00004  -0.00002  -0.00004   0.00004
 108        8D-1        0.00005   0.00001  -0.00001  -0.00002   0.00002
 109        8D+2       -0.00003   0.00000   0.00002   0.00003  -0.00014
 110        8D-2       -0.00004  -0.00002   0.00004   0.00005  -0.00024
 111        9D 0       -0.00036  -0.00015   0.00015   0.00024   0.00060
 112        9D+1        0.00015  -0.00008   0.00012   0.00023   0.00000
 113        9D-1       -0.00003   0.00023   0.00007   0.00013   0.00000
 114        9D+2       -0.00009   0.00006  -0.00001  -0.00001   0.00005
 115        9D-2       -0.00008  -0.00009  -0.00001  -0.00003   0.00008
 116 5   Cl 1S          0.00000   0.00000  -0.25124   0.14694  -0.02257
 117        2S          0.00000   0.00000   0.84810  -0.49670   0.07740
 118        3S          0.00000   0.00000  -0.02317   0.00918  -0.00239
 119        4S          0.00000   0.00000   0.06671  -0.04051   0.00635
 120        5S          0.00000   0.00000  -0.00211   0.00787   0.00366
 121        6S          0.00000   0.00000  -0.00149  -0.00206   0.00306
 122        7PX         0.96958  -0.13469   0.00009   0.00015  -0.00001
 123        7PY         0.13469   0.96958   0.00022   0.00037  -0.00002
 124        7PZ        -0.00023  -0.00040   0.49710   0.83831  -0.04306
 125        8PX        -0.01902   0.00264   0.00000   0.00000   0.00000
 126        8PY        -0.00264  -0.01902   0.00000  -0.00001   0.00000
 127        8PZ         0.00000   0.00001  -0.00872  -0.01406   0.00001
 128        9PX         0.05181  -0.00720   0.00001   0.00001   0.00000
 129        9PY         0.00720   0.05181   0.00001   0.00002   0.00000
 130        9PZ        -0.00001  -0.00002   0.02822   0.04975  -0.00242
 131       10PX        -0.00573   0.00080   0.00000   0.00000   0.00000
 132       10PY        -0.00080  -0.00573   0.00000   0.00000   0.00000
 133       10PZ         0.00000   0.00000  -0.00435  -0.00282  -0.00357
 134       11PX        -0.00211   0.00029   0.00000   0.00000   0.00000
 135       11PY        -0.00029  -0.00211   0.00000   0.00000   0.00000
 136       11PZ         0.00000   0.00000  -0.00036  -0.00014  -0.00053
 137       12D 0        0.00000   0.00000   0.00001  -0.00052  -0.00017
 138       12D+1       -0.00032   0.00004   0.00000   0.00000   0.00000
 139       12D-1       -0.00004  -0.00032   0.00000   0.00000   0.00000
 140       12D+2        0.00000   0.00001   0.00000   0.00000   0.00000
 141       12D-2        0.00001   0.00000   0.00000   0.00000   0.00000
 142       13D 0        0.00000   0.00000   0.00087   0.00248   0.00046
 143       13D+1        0.00082  -0.00011   0.00000   0.00000   0.00000
 144       13D-1        0.00011   0.00082   0.00000   0.00000   0.00000
 145       13D+2        0.00000  -0.00002   0.00000   0.00000   0.00000
 146       13D-2       -0.00002   0.00000   0.00000   0.00000   0.00000
 147       14D 0        0.00000   0.00000   0.00059  -0.00015   0.00082
 148       14D+1       -0.00072   0.00010   0.00000   0.00000   0.00000
 149       14D-1       -0.00010  -0.00072   0.00000   0.00000   0.00000
 150       14D+2        0.00000   0.00003   0.00000   0.00000   0.00000
 151       14D-2        0.00003   0.00000   0.00000   0.00000   0.00000
 152       15F 0        0.00000   0.00000   0.00001  -0.00007  -0.00004
 153       15F+1        0.00000   0.00000   0.00000   0.00000   0.00000
 154       15F-1        0.00000   0.00000   0.00000   0.00000   0.00000
 155       15F+2        0.00000   0.00003   0.00000   0.00000   0.00000
 156       15F-2        0.00003   0.00000   0.00000   0.00000   0.00000
 157       15F+3        0.00000   0.00000   0.00000   0.00000   0.00000
 158       15F-3        0.00000   0.00000   0.00001   0.00003   0.00000
 159       16F 0        0.00000   0.00000  -0.00031  -0.00060  -0.00033
 160       16F+1       -0.00023   0.00003   0.00000   0.00000   0.00000
 161       16F-1       -0.00003  -0.00023   0.00000   0.00000   0.00000
 162       16F+2        0.00000  -0.00003   0.00000   0.00000   0.00000
 163       16F-2       -0.00003   0.00000   0.00000   0.00000   0.00000
 164       16F+3        0.00000   0.00000   0.00000   0.00000   0.00000
 165       16F-3        0.00000   0.00000  -0.00002  -0.00005   0.00002
 166 6   F  1S          0.00000   0.00000  -0.00146  -0.01062  -0.04889
 167        2S          0.00000   0.00000   0.00020   0.00044   0.00080
 168        3S          0.00000   0.00000  -0.00007  -0.00046  -0.00199
 169        4S          0.00000   0.00000  -0.00052  -0.00102   0.00048
 170        5S          0.00000   0.00000   0.00014  -0.00164   0.00167
 171        6PX        -0.00004   0.00001   0.00000   0.00000   0.00000
 172        6PY        -0.00001  -0.00004   0.00000   0.00000   0.00000
 173        6PZ         0.00000   0.00000   0.00057   0.00110   0.00012
 174        7PX        -0.00001   0.00000   0.00000   0.00000   0.00000
 175        7PY         0.00000  -0.00001   0.00000   0.00000   0.00000
 176        7PZ         0.00000   0.00000   0.00068   0.00132   0.00003
 177        8PX        -0.00024   0.00003   0.00000   0.00000   0.00000
 178        8PY        -0.00003  -0.00024   0.00000   0.00000   0.00000
 179        8PZ         0.00000   0.00000   0.00009   0.00017   0.00042
 180        9PX        -0.00035   0.00005   0.00000   0.00000   0.00000
 181        9PY        -0.00005  -0.00035   0.00000   0.00000   0.00000
 182        9PZ         0.00000   0.00000   0.00018  -0.00008   0.00069
 183       10D 0        0.00000   0.00000   0.00001   0.00001  -0.00002
 184       10D+1       -0.00001   0.00000   0.00000   0.00000   0.00000
 185       10D-1        0.00000  -0.00001   0.00000   0.00000   0.00000
 186       10D+2        0.00000   0.00001   0.00000   0.00000   0.00000
 187       10D-2        0.00001   0.00000   0.00000   0.00000   0.00000
 188       11D 0        0.00000   0.00000  -0.00003  -0.00010   0.00001
 189       11D+1        0.00005  -0.00001   0.00000   0.00000   0.00000
 190       11D-1        0.00001   0.00005   0.00000   0.00000   0.00000
 191       11D+2        0.00000  -0.00003   0.00000   0.00000   0.00000
 192       11D-2       -0.00003   0.00000   0.00000   0.00000   0.00000
 193       12D 0        0.00000   0.00000  -0.00019  -0.00013   0.00010
 194       12D+1       -0.00022   0.00003   0.00000   0.00000   0.00000
 195       12D-1       -0.00003  -0.00022   0.00000   0.00000   0.00000
 196       12D+2        0.00002   0.00011   0.00000   0.00000   0.00000
 197       12D-2        0.00011  -0.00002   0.00000   0.00000   0.00000
 198       13F 0        0.00000   0.00000   0.00001  -0.00001  -0.00004
 199       13F+1        0.00002   0.00000   0.00000   0.00000   0.00000
 200       13F-1        0.00000   0.00002   0.00000   0.00000   0.00000
 201       13F+2        0.00000  -0.00002   0.00000   0.00000   0.00000
 202       13F-2       -0.00002   0.00000   0.00000   0.00000   0.00000
 203       13F+3        0.00000   0.00000   0.00000   0.00000   0.00000
 204       13F-3        0.00000   0.00000   0.00000   0.00000   0.00000
 205       14F 0        0.00000   0.00000  -0.00004   0.00002   0.00013
 206       14F+1       -0.00006   0.00001   0.00000   0.00000   0.00000
 207       14F-1       -0.00001  -0.00006   0.00000   0.00000   0.00000
 208       14F+2        0.00001   0.00004   0.00000   0.00000   0.00000
 209       14F-2        0.00004  -0.00001   0.00000   0.00000   0.00000
 210       14F+3        0.00000   0.00000   0.00000   0.00000   0.00000
 211       14F-3        0.00000   0.00000   0.00000   0.00000  -0.00001
                           6         7         8         9        10
     Eigenvalues --     2.00000   2.00000   1.98360   1.97543   1.96947
   1 1   C  1S          0.04950  -0.00047   0.01519  -0.07368  -0.14330
   2        2S         -0.00013  -0.00001  -0.04143   0.19989   0.39612
   3        3S          0.00224  -0.00003  -0.01023   0.04632   0.09579
   4        4S         -0.00645   0.00016   0.00414   0.07859   0.19078
   5        5S         -0.00008   0.00010   0.00768  -0.00702  -0.02860
   6        6PX         0.00000   0.00000   0.00000   0.00000  -0.00001
   7        6PY         0.00000   0.00000   0.00000   0.00000  -0.00002
   8        6PZ         0.00005   0.00000   0.00654   0.01006  -0.02867
   9        7PX         0.00000   0.00000   0.00000   0.00000  -0.00001
  10        7PY         0.00000   0.00000   0.00000   0.00001  -0.00002
  11        7PZ        -0.00076   0.00001   0.00710   0.01779  -0.03423
  12        8PX         0.00000   0.00000   0.00000   0.00000   0.00000
  13        8PY         0.00000   0.00000   0.00001   0.00000  -0.00001
  14        8PZ         0.00523   0.00009   0.01697   0.00508  -0.02346
  15        9PX         0.00000   0.00000   0.00000   0.00000   0.00000
  16        9PY         0.00000   0.00000   0.00000   0.00000   0.00000
  17        9PZ         0.00011   0.00001  -0.00071   0.00033  -0.00397
  18       10D 0        0.00004   0.00000   0.00049  -0.00203  -0.00950
  19       10D+1        0.00000   0.00000   0.00000   0.00000   0.00000
  20       10D-1        0.00000   0.00000   0.00000   0.00000  -0.00001
  21       10D+2        0.00000   0.00000   0.00000   0.00000   0.00000
  22       10D-2        0.00000   0.00000   0.00000   0.00000   0.00000
  23       11D 0       -0.00023  -0.00002  -0.00498   0.00481  -0.01888
  24       11D+1        0.00000   0.00000   0.00000   0.00000  -0.00001
  25       11D-1        0.00000   0.00000   0.00000   0.00000  -0.00001
  26       11D+2        0.00000   0.00000   0.00000   0.00000   0.00000
  27       11D-2        0.00000   0.00000   0.00000   0.00000   0.00000
  28       12D 0        0.00029   0.00008   0.00195  -0.00862  -0.01637
  29       12D+1        0.00000   0.00000   0.00000   0.00000   0.00000
  30       12D-1        0.00000   0.00000   0.00000  -0.00001  -0.00001
  31       12D+2        0.00000   0.00000   0.00000   0.00000   0.00000
  32       12D-2        0.00000   0.00000   0.00000   0.00000   0.00000
  33       13F 0       -0.00007   0.00000  -0.00005   0.00252   0.00074
  34       13F+1        0.00000   0.00000   0.00000   0.00000   0.00000
  35       13F-1        0.00000   0.00000   0.00000   0.00000   0.00000
  36       13F+2        0.00000   0.00000   0.00000   0.00000   0.00000
  37       13F-2        0.00000   0.00000   0.00000   0.00000   0.00000
  38       13F+3        0.00000   0.00000   0.00000   0.00000   0.00000
  39       13F-3        0.00001   0.00000  -0.00015   0.00195   0.00397
  40       14F 0        0.00127  -0.00001   0.00473   0.00245  -0.00204
  41       14F+1        0.00000   0.00000   0.00000   0.00000   0.00000
  42       14F-1        0.00000   0.00000   0.00001   0.00000   0.00000
  43       14F+2        0.00000   0.00000   0.00000   0.00000   0.00000
  44       14F-2        0.00000   0.00000   0.00000   0.00000   0.00000
  45       14F+3        0.00000   0.00000   0.00000   0.00000   0.00000
  46       14F-3       -0.00040   0.00003   0.00168  -0.00109   0.00413
  47 2   H  1S         -0.00008   0.00000  -0.00850   0.03717   0.08043
  48        2S          0.00088  -0.00006  -0.01477   0.04407   0.08361
  49        3S          0.00172   0.00004  -0.00052  -0.00479  -0.01193
  50        4S          0.00003   0.00000  -0.00045   0.00052   0.00036
  51        5PX         0.00000   0.00000   0.00000   0.00000   0.00000
  52        5PY         0.00001   0.00000  -0.00107   0.00397   0.00860
  53        5PZ        -0.00004   0.00000   0.00027   0.00098   0.00040
  54        6PX         0.00000   0.00000   0.00000   0.00000   0.00000
  55        6PY         0.00006   0.00000  -0.00067   0.00084   0.00121
  56        6PZ         0.00031  -0.00001   0.00007   0.00245  -0.00059
  57        7PX         0.00000   0.00000   0.00000   0.00000   0.00000
  58        7PY         0.00041   0.00001   0.00142  -0.00494  -0.01031
  59        7PZ        -0.00056   0.00001  -0.00288  -0.00181  -0.00147
  60        8D 0        0.00006   0.00000   0.00014  -0.00034  -0.00091
  61        8D+1        0.00000   0.00000   0.00000   0.00000   0.00000
  62        8D-1       -0.00001   0.00000  -0.00015   0.00051   0.00025
  63        8D+2       -0.00002   0.00000   0.00003  -0.00054  -0.00137
  64        8D-2        0.00000   0.00000   0.00000   0.00000   0.00000
  65        9D 0        0.00008  -0.00001  -0.00001   0.00123   0.00094
  66        9D+1        0.00000   0.00000   0.00000   0.00000   0.00000
  67        9D-1        0.00014   0.00000  -0.00007  -0.00002  -0.00045
  68        9D+2        0.00004   0.00000  -0.00097   0.00225   0.00414
  69        9D-2        0.00000   0.00000   0.00000   0.00000   0.00000
  70 3   H  1S         -0.00008   0.00000  -0.00850   0.03717   0.08042
  71        2S          0.00088  -0.00006  -0.01477   0.04407   0.08361
  72        3S          0.00172   0.00004  -0.00052  -0.00479  -0.01192
  73        4S          0.00003   0.00000  -0.00045   0.00052   0.00036
  74        5PX         0.00001   0.00000  -0.00093   0.00344   0.00745
  75        5PY        -0.00001   0.00000   0.00053  -0.00199  -0.00430
  76        5PZ        -0.00004   0.00000   0.00027   0.00099   0.00041
  77        6PX         0.00006   0.00000  -0.00058   0.00073   0.00105
  78        6PY        -0.00003   0.00000   0.00034  -0.00042  -0.00061
  79        6PZ         0.00031  -0.00001   0.00007   0.00245  -0.00059
  80        7PX         0.00036   0.00001   0.00123  -0.00428  -0.00893
  81        7PY        -0.00021   0.00000  -0.00071   0.00247   0.00516
  82        7PZ        -0.00056   0.00001  -0.00288  -0.00181  -0.00148
  83        8D 0        0.00006   0.00000   0.00014  -0.00034  -0.00091
  84        8D+1       -0.00001   0.00000  -0.00013   0.00044   0.00022
  85        8D-1        0.00000   0.00000   0.00008  -0.00026  -0.00013
  86        8D+2        0.00001   0.00000  -0.00001   0.00027   0.00068
  87        8D-2       -0.00001   0.00000   0.00003  -0.00047  -0.00118
  88        9D 0        0.00008  -0.00001  -0.00001   0.00123   0.00094
  89        9D+1        0.00012   0.00000  -0.00006  -0.00002  -0.00039
  90        9D-1       -0.00007   0.00000   0.00003   0.00001   0.00022
  91        9D+2       -0.00002   0.00000   0.00049  -0.00112  -0.00207
  92        9D-2        0.00003   0.00000  -0.00084   0.00195   0.00359
  93 4   H  1S         -0.00008   0.00000  -0.00850   0.03717   0.08042
  94        2S          0.00088  -0.00006  -0.01477   0.04407   0.08361
  95        3S          0.00172   0.00004  -0.00052  -0.00479  -0.01192
  96        4S          0.00003   0.00000  -0.00045   0.00052   0.00036
  97        5PX        -0.00001   0.00000   0.00093  -0.00344  -0.00745
  98        5PY        -0.00001   0.00000   0.00053  -0.00199  -0.00430
  99        5PZ        -0.00004   0.00000   0.00027   0.00099   0.00041
 100        6PX        -0.00006   0.00000   0.00058  -0.00073  -0.00105
 101        6PY        -0.00003   0.00000   0.00034  -0.00042  -0.00061
 102        6PZ         0.00031  -0.00001   0.00007   0.00245  -0.00058
 103        7PX        -0.00036  -0.00001  -0.00123   0.00428   0.00893
 104        7PY        -0.00021   0.00000  -0.00071   0.00247   0.00515
 105        7PZ        -0.00056   0.00001  -0.00288  -0.00181  -0.00148
 106        8D 0        0.00006   0.00000   0.00014  -0.00034  -0.00091
 107        8D+1        0.00001   0.00000   0.00013  -0.00044  -0.00022
 108        8D-1        0.00000   0.00000   0.00008  -0.00026  -0.00013
 109        8D+2        0.00001   0.00000  -0.00001   0.00027   0.00068
 110        8D-2        0.00001   0.00000  -0.00003   0.00047   0.00118
 111        9D 0        0.00008  -0.00001  -0.00001   0.00123   0.00094
 112        9D+1       -0.00012   0.00000   0.00006   0.00002   0.00039
 113        9D-1       -0.00007   0.00000   0.00003   0.00001   0.00022
 114        9D+2       -0.00002   0.00000   0.00049  -0.00112  -0.00207
 115        9D-2       -0.00003   0.00000   0.00084  -0.00195  -0.00359
 116 5   Cl 1S          0.00011   0.99708  -0.00063   0.06644  -0.03483
 117        2S         -0.00023   0.01040   0.00288  -0.25175   0.13092
 118        3S          0.00005   0.00017  -0.00391   0.52447  -0.27862
 119        4S          0.00007   0.00026  -0.00024   0.06424  -0.03757
 120        5S         -0.00187  -0.00020  -0.01234   0.35087  -0.17073
 121        6S         -0.00054  -0.00012  -0.00455   0.02439   0.01139
 122        7PX         0.00000   0.00000   0.00000   0.00000   0.00001
 123        7PY         0.00000   0.00000   0.00000   0.00000   0.00001
 124        7PZ         0.00778   0.00016   0.00145   0.00456   0.02864
 125        8PX         0.00000   0.00000   0.00000   0.00000  -0.00001
 126        8PY         0.00000   0.00000   0.00000   0.00000  -0.00003
 127        8PZ         0.00052  -0.00004  -0.00200  -0.00575  -0.07179
 128        9PX         0.00000   0.00000   0.00000   0.00000  -0.00001
 129        9PY         0.00000   0.00000   0.00000   0.00000  -0.00001
 130        9PZ         0.00034   0.00003  -0.00254   0.00085  -0.03122
 131       10PX         0.00000   0.00000   0.00000   0.00000  -0.00001
 132       10PY         0.00000   0.00000   0.00000   0.00000  -0.00002
 133       10PZ         0.00099   0.00015   0.00285   0.00320  -0.05187
 134       11PX         0.00000   0.00000   0.00000   0.00000   0.00000
 135       11PY         0.00000   0.00000   0.00000   0.00000   0.00000
 136       11PZ         0.00003   0.00002  -0.00036   0.00266  -0.00864
 137       12D 0       -0.00003   0.00001  -0.00035   0.00458   0.00459
 138       12D+1        0.00000   0.00000   0.00000   0.00000   0.00000
 139       12D-1        0.00000   0.00000   0.00000   0.00000   0.00000
 140       12D+2        0.00000   0.00000   0.00000   0.00000   0.00000
 141       12D-2        0.00000   0.00000   0.00000   0.00000   0.00000
 142       13D 0       -0.00022   0.00000  -0.00163   0.00833   0.00976
 143       13D+1        0.00000   0.00000   0.00000   0.00000   0.00000
 144       13D-1        0.00000   0.00000   0.00000   0.00001   0.00001
 145       13D+2        0.00000   0.00000   0.00000   0.00000   0.00000
 146       13D-2        0.00000   0.00000   0.00000   0.00000   0.00000
 147       14D 0       -0.00015  -0.00004  -0.00181  -0.00019   0.00537
 148       14D+1        0.00000   0.00000   0.00000   0.00000   0.00000
 149       14D-1        0.00000   0.00000   0.00000   0.00000   0.00000
 150       14D+2        0.00000   0.00000   0.00000   0.00000   0.00000
 151       14D-2        0.00000   0.00000   0.00000   0.00000   0.00000
 152       15F 0        0.00005   0.00000   0.00023  -0.00184  -0.00193
 153       15F+1        0.00000   0.00000   0.00000   0.00000   0.00000
 154       15F-1        0.00000   0.00000   0.00000   0.00000   0.00000
 155       15F+2        0.00000   0.00000   0.00000   0.00000   0.00000
 156       15F-2        0.00000   0.00000   0.00000   0.00000   0.00000
 157       15F+3        0.00000   0.00000   0.00000   0.00000   0.00000
 158       15F-3       -0.00001   0.00000  -0.00001   0.00002   0.00009
 159       16F 0       -0.00005   0.00001   0.00004  -0.00093  -0.00170
 160       16F+1        0.00000   0.00000   0.00000   0.00000   0.00000
 161       16F-1        0.00000   0.00000   0.00000   0.00000   0.00000
 162       16F+2        0.00000   0.00000   0.00000   0.00000   0.00000
 163       16F-2        0.00000   0.00000   0.00000   0.00000   0.00000
 164       16F+3        0.00000   0.00000   0.00000   0.00000   0.00000
 165       16F-3        0.00003   0.00000   0.00002  -0.00001  -0.00020
 166 6   F  1S          0.97747  -0.00002   0.21193   0.01308   0.02148
 167        2S         -0.01501   0.00000  -0.53160  -0.03380  -0.05690
 168        3S          0.04207   0.00000  -0.16471  -0.01074  -0.01839
 169        4S          0.00189  -0.00001  -0.36883  -0.02358  -0.04364
 170        5S         -0.00090  -0.00006  -0.04558   0.00401   0.00739
 171        6PX         0.00000   0.00000   0.00000   0.00000   0.00002
 172        6PY         0.00000   0.00000   0.00001   0.00001   0.00004
 173        6PZ         0.00047   0.00000   0.01296   0.01254   0.08862
 174        7PX         0.00000   0.00000   0.00000   0.00000   0.00002
 175        7PY         0.00000   0.00000   0.00001   0.00001   0.00004
 176        7PZ        -0.00013   0.00000   0.01411   0.01533   0.10659
 177        8PX         0.00000   0.00000   0.00000   0.00000   0.00002
 178        8PY         0.00000   0.00000   0.00001   0.00001   0.00004
 179        8PZ         0.00235  -0.00001   0.01193   0.01199   0.08483
 180        9PX         0.00000   0.00000   0.00000   0.00000   0.00000
 181        9PY         0.00000   0.00000   0.00000   0.00000   0.00001
 182        9PZ        -0.00010  -0.00002   0.00199   0.00308   0.02470
 183       10D 0       -0.00002   0.00000  -0.00013   0.00017   0.00059
 184       10D+1        0.00000   0.00000   0.00000   0.00000   0.00000
 185       10D-1        0.00000   0.00000   0.00000   0.00000   0.00000
 186       10D+2        0.00000   0.00000   0.00000   0.00000   0.00000
 187       10D-2        0.00000   0.00000   0.00000   0.00000   0.00000
 188       11D 0       -0.00003   0.00000  -0.00101   0.00089   0.00271
 189       11D+1        0.00000   0.00000   0.00000   0.00000   0.00000
 190       11D-1        0.00000   0.00000   0.00000   0.00000   0.00000
 191       11D+2        0.00000   0.00000   0.00000   0.00000   0.00000
 192       11D-2        0.00000   0.00000   0.00000   0.00000   0.00000
 193       12D 0        0.00079   0.00000  -0.00057   0.00030   0.00385
 194       12D+1        0.00000   0.00000   0.00000   0.00000   0.00000
 195       12D-1        0.00000   0.00000   0.00000   0.00000   0.00000
 196       12D+2        0.00000   0.00000   0.00000   0.00000   0.00000
 197       12D-2        0.00000   0.00000   0.00000   0.00000   0.00000
 198       13F 0       -0.00006   0.00000  -0.00002   0.00013   0.00026
 199       13F+1        0.00000   0.00000   0.00000   0.00000   0.00000
 200       13F-1        0.00000   0.00000   0.00000   0.00000   0.00000
 201       13F+2        0.00000   0.00000   0.00000   0.00000   0.00000
 202       13F-2        0.00000   0.00000   0.00000   0.00000   0.00000
 203       13F+3        0.00000   0.00000   0.00000   0.00000   0.00000
 204       13F-3        0.00001   0.00000   0.00002   0.00002   0.00003
 205       14F 0        0.00020   0.00000  -0.00038  -0.00007   0.00063
 206       14F+1        0.00000   0.00000   0.00000   0.00000   0.00000
 207       14F-1        0.00000   0.00000   0.00000   0.00000   0.00000
 208       14F+2        0.00000   0.00000   0.00000   0.00000   0.00000
 209       14F-2        0.00000   0.00000   0.00000   0.00000   0.00000
 210       14F+3        0.00000   0.00000   0.00000   0.00000   0.00000
 211       14F-3       -0.00001   0.00000  -0.00007  -0.00006  -0.00009
                          11        12        13        14        15
     Eigenvalues --     1.96428   1.96428   1.95916   1.95916   1.94926
   1 1   C  1S          0.00000   0.00000   0.00000   0.00000   0.05390
   2        2S          0.00001   0.00000   0.00000   0.00000  -0.15343
   3        3S          0.00000   0.00000   0.00000   0.00000  -0.03626
   4        4S          0.00000   0.00000   0.00000   0.00000  -0.28395
   5        5S          0.00000   0.00000   0.00000   0.00000  -0.05554
   6        6PX         0.00571   0.09748  -0.03320   0.22828   0.00000
   7        6PY         0.09749  -0.00571   0.22828   0.03320  -0.00003
   8        6PZ        -0.00004  -0.00001  -0.00009  -0.00006  -0.04413
   9        7PX         0.00765   0.13046  -0.04399   0.30250   0.00000
  10        7PY         0.13046  -0.00765   0.30250   0.04399  -0.00004
  11        7PZ        -0.00006  -0.00002  -0.00012  -0.00007  -0.06261
  12        8PX         0.00561   0.09570  -0.03390   0.23312  -0.00001
  13        8PY         0.09570  -0.00561   0.23312   0.03390  -0.00004
  14        8PZ        -0.00004  -0.00001  -0.00009  -0.00006  -0.06304
  15        9PX        -0.00012  -0.00209  -0.00272   0.01872   0.00000
  16        9PY        -0.00209   0.00012   0.01872   0.00272   0.00000
  17        9PZ         0.00000   0.00000  -0.00001   0.00000  -0.00102
  18       10D 0        0.00000   0.00000   0.00000   0.00000   0.00919
  19       10D+1       -0.00016  -0.00277   0.00021  -0.00149   0.00000
  20       10D-1       -0.00277   0.00016  -0.00148  -0.00022   0.00001
  21       10D+2        0.00620  -0.00036   0.01459   0.00213   0.00000
  22       10D-2        0.00036   0.00620  -0.00213   0.01459   0.00000
  23       11D 0        0.00001   0.00000  -0.00001   0.00000   0.04847
  24       11D+1       -0.00074  -0.01261  -0.00103   0.00701   0.00001
  25       11D-1       -0.01259   0.00073   0.00706   0.00102   0.00004
  26       11D+2        0.02045  -0.00119   0.04446   0.00648   0.00000
  27       11D-2        0.00119   0.02044  -0.00648   0.04447   0.00000
  28       12D 0        0.00000   0.00000   0.00000   0.00000   0.02841
  29       12D+1       -0.00036  -0.00604  -0.00078   0.00530   0.00001
  30       12D-1       -0.00602   0.00035   0.00533   0.00077   0.00002
  31       12D+2        0.02008  -0.00117   0.03513   0.00512   0.00000
  32       12D-2        0.00117   0.02007  -0.00512   0.03513   0.00000
  33       13F 0        0.00000   0.00000   0.00000   0.00000  -0.00200
  34       13F+1        0.00001   0.00024   0.00028  -0.00191   0.00000
  35       13F-1        0.00024  -0.00001  -0.00191  -0.00028   0.00000
  36       13F+2       -0.00064   0.00004  -0.00017  -0.00003   0.00000
  37       13F-2       -0.00004  -0.00064   0.00002  -0.00017   0.00000
  38       13F+3        0.00000   0.00000   0.00000   0.00000   0.00000
  39       13F-3        0.00000   0.00000   0.00000   0.00000  -0.00305
  40       14F 0        0.00000   0.00000   0.00001   0.00000  -0.00553
  41       14F+1        0.00003   0.00041   0.00083  -0.00571   0.00000
  42       14F-1        0.00041  -0.00002  -0.00571  -0.00083   0.00000
  43       14F+2       -0.00385   0.00022  -0.00038  -0.00006   0.00001
  44       14F-2       -0.00022  -0.00385   0.00005  -0.00039   0.00000
  45       14F+3        0.00000   0.00000   0.00000   0.00000  -0.00001
  46       14F-3        0.00000   0.00000   0.00000   0.00000  -0.01425
  47 2   H  1S         -0.06720   0.00393  -0.14956  -0.02177  -0.03362
  48        2S         -0.06107   0.00357  -0.15329  -0.02231  -0.00493
  49        3S          0.05698  -0.00333   0.11625   0.01692   0.02010
  50        4S         -0.00603   0.00035   0.01728   0.00251  -0.00007
  51        5PX         0.00012   0.00208  -0.00063   0.00431   0.00000
  52        5PY        -0.00524   0.00031  -0.01221  -0.00178  -0.00215
  53        5PZ        -0.00004   0.00000  -0.00293  -0.00043  -0.00268
  54        6PX         0.00047   0.00800  -0.00196   0.01345   0.00000
  55        6PY         0.00708  -0.00042   0.01091   0.00159   0.00517
  56        6PZ        -0.00259   0.00015   0.00017   0.00002  -0.00094
  57        7PX         0.00054   0.00921  -0.00188   0.01297   0.00000
  58        7PY         0.01379  -0.00081   0.04488   0.00653   0.01058
  59        7PZ         0.00111  -0.00007   0.00777   0.00113   0.00828
  60        8D 0        0.00040  -0.00002   0.00135   0.00020   0.00015
  61        8D+1        0.00000   0.00003  -0.00005   0.00033   0.00000
  62        8D-1       -0.00075   0.00004  -0.00030  -0.00004  -0.00018
  63        8D+2        0.00061  -0.00004   0.00190   0.00028   0.00053
  64        8D-2        0.00006   0.00104  -0.00032   0.00221   0.00000
  65        9D 0       -0.00056   0.00003   0.00149   0.00022   0.00068
  66        9D+1       -0.00009  -0.00150  -0.00014   0.00098   0.00000
  67        9D-1       -0.00321   0.00019   0.00343   0.00050   0.00206
  68        9D+2       -0.00157   0.00009  -0.00262  -0.00038   0.00109
  69        9D-2        0.00009   0.00162  -0.00041   0.00282   0.00000
  70 3   H  1S          0.03020  -0.06016   0.09363  -0.11864  -0.03363
  71        2S          0.02745  -0.05468   0.09597  -0.12160  -0.00494
  72        3S         -0.02560   0.05101  -0.07278   0.09222   0.02010
  73        4S          0.00271  -0.00540  -0.01082   0.01371  -0.00007
  74        5PX         0.00297  -0.00360   0.00833  -0.00703  -0.00186
  75        5PY         0.00044   0.00316  -0.00086   0.00718   0.00107
  76        5PZ         0.00002  -0.00004   0.00183  -0.00233  -0.00268
  77        6PX         0.00083   0.00729  -0.00058   0.01170   0.00448
  78        6PY         0.00779  -0.00006   0.01265   0.00296  -0.00259
  79        6PZ         0.00116  -0.00232  -0.00012   0.00014  -0.00094
  80        7PX        -0.00124   0.01276  -0.01918   0.03488   0.00916
  81        7PY         0.01024  -0.00259   0.02295  -0.01077  -0.00529
  82        7PZ        -0.00050   0.00099  -0.00488   0.00618   0.00829
  83        8D 0       -0.00018   0.00036  -0.00084   0.00107   0.00015
  84        8D+1        0.00030  -0.00057   0.00030  -0.00011  -0.00016
  85        8D-1       -0.00015   0.00035   0.00013   0.00030   0.00009
  86        8D+2        0.00095   0.00014   0.00211   0.00045  -0.00027
  87        8D-2        0.00023   0.00070  -0.00015   0.00200   0.00046
  88        9D 0        0.00025  -0.00050  -0.00093   0.00118   0.00068
  89        9D+1        0.00058  -0.00283  -0.00147   0.00267   0.00179
  90        9D-1       -0.00188   0.00086   0.00175  -0.00083  -0.00103
  91        9D+2        0.00091   0.00134   0.00112   0.00257  -0.00054
  92        9D-2        0.00134  -0.00086   0.00254  -0.00092   0.00095
  93 4   H  1S          0.03700   0.05623   0.05593   0.14041  -0.03362
  94        2S          0.03363   0.05110   0.05732   0.14392  -0.00494
  95        3S         -0.03137  -0.04768  -0.04347  -0.10914   0.02010
  96        4S          0.00332   0.00504  -0.00646  -0.01622  -0.00007
  97        5PX        -0.00337  -0.00323  -0.00598  -0.00912   0.00186
  98        5PY         0.00007  -0.00319   0.00123  -0.00712   0.00107
  99        5PZ         0.00003   0.00004   0.00110   0.00276  -0.00268
 100        6PX         0.00003   0.00733  -0.00278   0.01138  -0.00448
 101        6PY         0.00775  -0.00085   0.01297   0.00076  -0.00259
 102        6PZ         0.00142   0.00216  -0.00007  -0.00017  -0.00094
 103        7PX         0.00272   0.01253   0.00845   0.03891  -0.00916
 104        7PY         0.01047   0.00137   0.01893   0.01686  -0.00529
 105        7PZ        -0.00062  -0.00093  -0.00292  -0.00733   0.00829
 106        8D 0       -0.00022  -0.00034  -0.00050  -0.00126   0.00015
 107        8D+1       -0.00037  -0.00053  -0.00025  -0.00019   0.00016
 108        8D-1       -0.00019  -0.00033   0.00021  -0.00025   0.00009
 109        8D+2        0.00092  -0.00024   0.00215   0.00018  -0.00027
 110        8D-2       -0.00015   0.00073  -0.00042   0.00196  -0.00046
 111        9D 0        0.00031   0.00047  -0.00056  -0.00140   0.00068
 112        9D+1       -0.00090  -0.00274   0.00065   0.00297  -0.00179
 113        9D-1       -0.00197  -0.00063   0.00144   0.00129  -0.00103
 114        9D+2        0.00074  -0.00143   0.00180  -0.00215  -0.00055
 115        9D-2       -0.00143  -0.00070  -0.00217  -0.00160  -0.00095
 116 5   Cl 1S          0.00000   0.00000   0.00000   0.00000   0.01035
 117        2S          0.00000   0.00000   0.00000   0.00000  -0.03945
 118        3S          0.00000   0.00000   0.00000   0.00000   0.08179
 119        4S          0.00000   0.00000   0.00000   0.00000   0.01260
 120        5S          0.00000   0.00000   0.00000   0.00000   0.06951
 121        6S          0.00000   0.00000   0.00000   0.00000   0.01964
 122        7PX        -0.00052  -0.00894   0.00637  -0.04384   0.00002
 123        7PY        -0.00894   0.00052  -0.04383  -0.00637  -0.00003
 124        7PZ         0.00000   0.00000   0.00002   0.00001   0.02486
 125        8PX         0.00124   0.02117  -0.01507   0.10362  -0.00006
 126        8PY         0.02117  -0.00124   0.10362   0.01507   0.00007
 127        8PZ        -0.00001   0.00000  -0.00004  -0.00003  -0.05825
 128        9PX         0.00058   0.00982  -0.00697   0.04791  -0.00003
 129        9PY         0.00982  -0.00058   0.04791   0.00697   0.00003
 130        9PZ         0.00000   0.00000  -0.00002  -0.00001  -0.02915
 131       10PX         0.00061   0.01046  -0.00813   0.05590  -0.00005
 132       10PY         0.01046  -0.00061   0.05590   0.00813   0.00004
 133       10PZ        -0.00001   0.00000  -0.00002  -0.00001  -0.06911
 134       11PX         0.00012   0.00207  -0.00048   0.00331  -0.00001
 135       11PY         0.00207  -0.00012   0.00331   0.00048   0.00000
 136       11PZ         0.00000   0.00000   0.00000   0.00000  -0.02338
 137       12D 0        0.00000   0.00000   0.00000   0.00000  -0.00482
 138       12D+1       -0.00011  -0.00193   0.00091  -0.00625   0.00000
 139       12D-1       -0.00193   0.00011  -0.00625  -0.00091   0.00000
 140       12D+2        0.00011  -0.00001   0.00054   0.00008   0.00000
 141       12D-2        0.00001   0.00011  -0.00008   0.00054   0.00000
 142       13D 0        0.00000   0.00000   0.00001   0.00000  -0.00770
 143       13D+1       -0.00017  -0.00297   0.00161  -0.01107   0.00000
 144       13D-1       -0.00297   0.00017  -0.01107  -0.00161  -0.00001
 145       13D+2        0.00033  -0.00002   0.00066   0.00009   0.00000
 146       13D-2        0.00002   0.00033  -0.00010   0.00065   0.00000
 147       14D 0        0.00000   0.00000   0.00000   0.00000   0.00129
 148       14D+1        0.00001   0.00011   0.00000   0.00002   0.00000
 149       14D-1        0.00011  -0.00001   0.00002   0.00000   0.00000
 150       14D+2       -0.00068   0.00004  -0.00009  -0.00001   0.00000
 151       14D-2       -0.00004  -0.00068   0.00001  -0.00009   0.00000
 152       15F 0        0.00000   0.00000   0.00000   0.00000   0.00101
 153       15F+1        0.00005   0.00091  -0.00039   0.00266   0.00000
 154       15F-1        0.00091  -0.00005   0.00266   0.00039   0.00000
 155       15F+2       -0.00012   0.00001  -0.00034  -0.00005   0.00000
 156       15F-2       -0.00001  -0.00011   0.00005  -0.00033   0.00000
 157       15F+3        0.00000   0.00000   0.00000   0.00000   0.00000
 158       15F-3        0.00000   0.00000   0.00000   0.00000  -0.00007
 159       16F 0        0.00000   0.00000   0.00000   0.00000   0.00139
 160       16F+1        0.00003   0.00059  -0.00030   0.00204   0.00000
 161       16F-1        0.00059  -0.00003   0.00204   0.00030   0.00000
 162       16F+2        0.00002   0.00000   0.00017   0.00003   0.00000
 163       16F-2        0.00000   0.00002  -0.00002   0.00017   0.00000
 164       16F+3        0.00000   0.00000   0.00000   0.00000   0.00000
 165       16F-3        0.00000   0.00000   0.00000   0.00000   0.00015
 166 6   F  1S          0.00000   0.00000   0.00000   0.00000  -0.01154
 167        2S          0.00000   0.00000   0.00000   0.00000   0.02545
 168        3S          0.00000   0.00000   0.00000   0.00000   0.00776
 169        4S          0.00000   0.00000   0.00000   0.00000   0.01641
 170        5S          0.00000   0.00000   0.00000   0.00000   0.00477
 171        6PX         0.01943   0.33146   0.02329  -0.16012   0.00006
 172        6PY         0.33146  -0.01943  -0.16013  -0.02329   0.00016
 173        6PZ        -0.00015  -0.00005   0.00007   0.00004   0.34807
 174        7PX         0.02318   0.39537   0.02761  -0.18986   0.00007
 175        7PY         0.39536  -0.02317  -0.18986  -0.02761   0.00019
 176        7PZ        -0.00018  -0.00006   0.00008   0.00005   0.41492
 177        8PX         0.01875   0.31987   0.02323  -0.15975   0.00006
 178        8PY         0.31987  -0.01875  -0.15976  -0.02323   0.00016
 179        8PZ        -0.00015  -0.00005   0.00007   0.00004   0.34202
 180        9PX         0.00594   0.10127   0.00825  -0.05672   0.00002
 181        9PY         0.10127  -0.00594  -0.05673  -0.00825   0.00005
 182        9PZ        -0.00005  -0.00001   0.00002   0.00001   0.10785
 183       10D 0        0.00000   0.00000   0.00000   0.00000   0.00077
 184       10D+1        0.00003   0.00059  -0.00001   0.00009   0.00000
 185       10D-1        0.00059  -0.00003   0.00009   0.00001   0.00000
 186       10D+2        0.00002   0.00000   0.00004   0.00001   0.00000
 187       10D-2        0.00000   0.00002  -0.00001   0.00004   0.00000
 188       11D 0        0.00000   0.00000   0.00000   0.00000   0.00192
 189       11D+1        0.00014   0.00237  -0.00018   0.00121   0.00000
 190       11D-1        0.00237  -0.00014   0.00121   0.00018   0.00000
 191       11D+2        0.00005   0.00000   0.00024   0.00004   0.00000
 192       11D-2        0.00000   0.00005  -0.00004   0.00025   0.00000
 193       12D 0        0.00000   0.00000   0.00000   0.00000   0.00953
 194       12D+1        0.00034   0.00588   0.00051  -0.00354   0.00000
 195       12D-1        0.00588  -0.00034  -0.00354  -0.00051   0.00001
 196       12D+2        0.00004   0.00000  -0.00026  -0.00004   0.00000
 197       12D-2        0.00000   0.00005   0.00004  -0.00026   0.00000
 198       13F 0        0.00000   0.00000   0.00000   0.00000   0.00017
 199       13F+1        0.00001   0.00021  -0.00004   0.00025   0.00000
 200       13F-1        0.00021  -0.00001   0.00025   0.00004   0.00000
 201       13F+2        0.00005   0.00000   0.00011   0.00002   0.00000
 202       13F-2        0.00000   0.00005  -0.00002   0.00011   0.00000
 203       13F+3        0.00000   0.00000   0.00000   0.00000   0.00000
 204       13F-3        0.00000   0.00000   0.00000   0.00000  -0.00003
 205       14F 0        0.00000   0.00000   0.00000   0.00000   0.00176
 206       14F+1        0.00008   0.00142   0.00012  -0.00085   0.00000
 207       14F-1        0.00142  -0.00008  -0.00085  -0.00012   0.00000
 208       14F+2       -0.00012   0.00001  -0.00023  -0.00003   0.00000
 209       14F-2       -0.00001  -0.00012   0.00003  -0.00023   0.00000
 210       14F+3        0.00000   0.00000   0.00000   0.00000   0.00000
 211       14F-3        0.00000   0.00000   0.00000   0.00000   0.00009
                          16        17        18        19        20
     Eigenvalues --     1.94912   1.94912   1.93524   0.05992   0.02504
   1 1   C  1S          0.00001   0.00000  -0.01493  -0.02618   0.00000
   2        2S         -0.00003   0.00001   0.04856   0.07336  -0.00001
   3        3S         -0.00001   0.00000   0.01613   0.02689   0.00000
   4        4S         -0.00005   0.00002   0.08971  -0.24241   0.00003
   5        5S         -0.00001   0.00000   0.03969  -0.03274   0.00000
   6        6PX        -0.00805   0.06813  -0.00002   0.00005   0.03095
   7        6PY         0.06813   0.00805  -0.00006   0.00012   0.15543
   8        6PZ        -0.00004  -0.00001  -0.13022   0.27855  -0.00007
   9        7PX        -0.01119   0.09466  -0.00003   0.00008   0.05761
  10        7PY         0.09466   0.01119  -0.00008   0.00019   0.28930
  11        7PZ        -0.00005  -0.00002  -0.18286   0.44343  -0.00014
  12        8PX        -0.00867   0.07332  -0.00001   0.00004   0.02569
  13        8PY         0.07332   0.00867  -0.00003   0.00009   0.12900
  14        8PZ        -0.00004  -0.00001  -0.07599   0.20187  -0.00006
  15        9PX        -0.00146   0.01233   0.00000   0.00000   0.00575
  16        9PY         0.01233   0.00146   0.00000   0.00000   0.02887
  17        9PZ        -0.00001   0.00000  -0.00157  -0.00046  -0.00001
  18       10D 0        0.00000   0.00000  -0.01123  -0.00917  -0.00002
  19       10D+1        0.00046  -0.00387   0.00000   0.00000   0.00489
  20       10D-1       -0.00386  -0.00046  -0.00001  -0.00001   0.02459
  21       10D+2        0.00504   0.00060   0.00000   0.00000   0.00354
  22       10D-2       -0.00060   0.00504   0.00000   0.00000   0.00071
  23       11D 0        0.00002   0.00000  -0.04646   0.07077  -0.00005
  24       11D+1        0.00186  -0.01575  -0.00001   0.00002   0.01130
  25       11D-1       -0.01573  -0.00186  -0.00004   0.00005   0.05685
  26       11D+2        0.01715   0.00203   0.00000   0.00000   0.06892
  27       11D-2       -0.00204   0.01714   0.00000   0.00000   0.01372
  28       12D 0        0.00000   0.00000  -0.00364  -0.01704  -0.00001
  29       12D+1       -0.00016   0.00135   0.00000  -0.00001   0.00350
  30       12D-1        0.00135   0.00016   0.00000  -0.00001   0.01757
  31       12D+2        0.01036   0.00123   0.00000   0.00000   0.01279
  32       12D-2       -0.00123   0.01036   0.00000   0.00000   0.00255
  33       13F 0        0.00000   0.00000  -0.00334  -0.00532   0.00001
  34       13F+1        0.00027  -0.00225   0.00000   0.00000  -0.00188
  35       13F-1       -0.00225  -0.00027   0.00000  -0.00001  -0.00945
  36       13F+2       -0.00034  -0.00004   0.00000   0.00000   0.00303
  37       13F-2        0.00004  -0.00035   0.00000   0.00000   0.00060
  38       13F+3        0.00000   0.00000   0.00000   0.00000   0.00000
  39       13F-3        0.00000   0.00000   0.00117  -0.00060   0.00000
  40       14F 0        0.00001   0.00000  -0.00061   0.01188   0.00000
  41       14F+1        0.00085  -0.00720   0.00000   0.00001  -0.00051
  42       14F-1       -0.00720  -0.00085   0.00000   0.00001  -0.00256
  43       14F+2       -0.00329  -0.00039  -0.00001   0.00002  -0.00283
  44       14F-2        0.00039  -0.00330   0.00000   0.00001  -0.00056
  45       14F+3        0.00000   0.00000   0.00000  -0.00002   0.00000
  46       14F-3        0.00000   0.00000   0.00951  -0.04039   0.00000
  47 2   H  1S         -0.04710  -0.00557   0.02932  -0.00779   0.04255
  48        2S         -0.04648  -0.00550   0.02263   0.08467   0.26067
  49        3S          0.00542   0.00064   0.01994   0.07440   0.16030
  50        4S          0.00122   0.00014   0.00185   0.00773   0.07254
  51        5PX        -0.00013   0.00107   0.00000   0.00000   0.00057
  52        5PY        -0.00360  -0.00043   0.00254  -0.00213  -0.00859
  53        5PZ         0.00012   0.00001  -0.00317   0.01420  -0.01192
  54        6PX        -0.00045   0.00380   0.00000   0.00001   0.00151
  55        6PY         0.00564   0.00067  -0.00163   0.01056   0.05957
  56        6PZ        -0.00116  -0.00014  -0.01042   0.02965  -0.00480
  57        7PX        -0.00035   0.00300   0.00000   0.00000  -0.00056
  58        7PY         0.00979   0.00116  -0.00177   0.01411   0.04957
  59        7PZ         0.00305   0.00036   0.00324  -0.01347   0.00524
  60        8D 0        0.00040   0.00005  -0.00087   0.00074   0.00246
  61        8D+1        0.00000  -0.00002   0.00000   0.00000   0.00036
  62        8D-1       -0.00030  -0.00004  -0.00172   0.00683  -0.00390
  63        8D+2        0.00052   0.00006  -0.00062   0.00195   0.00248
  64        8D-2       -0.00007   0.00060   0.00000   0.00000   0.00042
  65        9D 0       -0.00017  -0.00002  -0.00288   0.00656  -0.00347
  66        9D+1        0.00014  -0.00117   0.00000   0.00000   0.00086
  67        9D-1       -0.00041  -0.00005  -0.00056  -0.00562   0.01545
  68        9D+2       -0.00108  -0.00013   0.00034  -0.00121  -0.00968
  69        9D-2       -0.00014   0.00114   0.00000   0.00000   0.00021
  70 3   H  1S          0.02837  -0.03800   0.02932  -0.00779  -0.01394
  71        2S          0.02800  -0.03750   0.02263   0.08467  -0.08542
  72        3S         -0.00326   0.00437   0.01993   0.07439  -0.05253
  73        4S         -0.00074   0.00098   0.00185   0.00773  -0.02377
  74        5PX         0.00231  -0.00219   0.00220  -0.00185   0.00382
  75        5PY        -0.00034   0.00201  -0.00127   0.00108   0.00100
  76        5PZ        -0.00007   0.00010  -0.00317   0.01420   0.00391
  77        6PX        -0.00141   0.00509  -0.00141   0.00913  -0.01326
  78        6PY         0.00436  -0.00029   0.00081  -0.00526   0.01607
  79        6PZ         0.00069  -0.00093  -0.01042   0.02965   0.00156
  80        7PX        -0.00389   0.00774  -0.00153   0.01222  -0.01544
  81        7PY         0.00505  -0.00238   0.00089  -0.00707   0.00575
  82        7PZ        -0.00184   0.00246   0.00323  -0.01346  -0.00172
  83        8D 0       -0.00024   0.00032  -0.00087   0.00075  -0.00081
  84        8D+1        0.00014  -0.00021  -0.00149   0.00591   0.00198
  85        8D-1       -0.00011   0.00011   0.00086  -0.00342   0.00088
  86        8D+2        0.00058   0.00010   0.00031  -0.00097   0.00218
  87        8D-2       -0.00003   0.00055  -0.00054   0.00169   0.00032
  88        9D 0        0.00011  -0.00014  -0.00288   0.00655   0.00113
  89        9D+1       -0.00026  -0.00064  -0.00048  -0.00486  -0.00230
  90        9D-1       -0.00094  -0.00044   0.00028   0.00282   0.00615
  91        9D+2        0.00048   0.00103  -0.00017   0.00060  -0.00072
  92        9D-2        0.00102  -0.00041   0.00029  -0.00105   0.00325
  93 4   H  1S          0.01872   0.04358   0.02932  -0.00779  -0.02860
  94        2S          0.01848   0.04300   0.02263   0.08467  -0.17526
  95        3S         -0.00215  -0.00501   0.01994   0.07439  -0.10779
  96        4S         -0.00049  -0.00113   0.00185   0.00773  -0.04877
  97        5PX        -0.00173  -0.00267  -0.00220   0.00186  -0.00610
  98        5PY         0.00014  -0.00203  -0.00127   0.00108  -0.00098
  99        5PZ        -0.00005  -0.00011  -0.00317   0.01420   0.00802
 100        6PX         0.00018   0.00528   0.00141  -0.00913   0.03180
 101        6PY         0.00417   0.00130   0.00081  -0.00526   0.02503
 102        6PZ         0.00046   0.00107  -0.01042   0.02965   0.00319
 103        7PX         0.00198   0.00844   0.00153  -0.01223   0.02995
 104        7PY         0.00435   0.00349   0.00089  -0.00706   0.01478
 105        7PZ        -0.00122  -0.00283   0.00323  -0.01346  -0.00355
 106        8D 0       -0.00016  -0.00037  -0.00088   0.00075  -0.00165
 107        8D+1       -0.00009  -0.00024   0.00148  -0.00591  -0.00297
 108        8D-1       -0.00008  -0.00013   0.00086  -0.00341  -0.00011
 109        8D+2        0.00059   0.00004   0.00031  -0.00098   0.00224
 110        8D-2       -0.00010   0.00054   0.00054  -0.00169   0.00063
 111        9D 0        0.00007   0.00016  -0.00288   0.00655   0.00231
 112        9D+1        0.00040  -0.00056   0.00048   0.00487   0.00734
 113        9D-1       -0.00102   0.00021   0.00028   0.00281   0.00807
 114        9D+2        0.00070  -0.00089  -0.00017   0.00061  -0.00257
 115        9D-2       -0.00090  -0.00063  -0.00029   0.00105  -0.00603
 116 5   Cl 1S          0.00000   0.00000   0.00054  -0.01701   0.00000
 117        2S         -0.00001   0.00000  -0.00184   0.05695   0.00000
 118        3S          0.00002  -0.00001   0.01169  -0.15881   0.00000
 119        4S          0.00000   0.00000   0.00463  -0.04000   0.00000
 120        5S          0.00001   0.00000   0.01251  -0.04780   0.00000
 121        6S          0.00000   0.00000  -0.01272   0.01594   0.00000
 122        7PX        -0.02625   0.22201  -0.00004  -0.00003   0.00412
 123        7PY         0.22201   0.02625  -0.00009  -0.00007   0.02070
 124        7PZ        -0.00009  -0.00005  -0.20997  -0.16500  -0.00001
[...]
  79        6PZ        -0.32860  -0.07060  -0.03749  -0.15697  -0.05915
  80        7PX         1.08782  -9.56069   1.18967  -1.68982  -0.44530
  81        7PY        -0.63221  -0.28167  10.49864   0.97615   3.98202
  82        7PZ        -1.50962  -3.23870  -1.68573   0.07798  -0.27883
  83        8D 0       -0.03593   0.00824   0.00423   0.03055   0.00558
  84        8D+1        0.01265  -0.02788   0.00817   0.00655   0.00104
  85        8D-1       -0.00728  -0.00519   0.03636  -0.00374  -0.00767
  86        8D+2        0.06169   0.04388  -0.09090   0.01742  -0.02952
  87        8D-2       -0.10684   0.03124  -0.04939  -0.03018  -0.00257
  88        9D 0       -0.46754   0.37987   0.19722  -0.10562   0.08460
  89        9D+1       -0.22362  -0.08646  -0.25183  -0.03464  -0.03189
  90        9D-1        0.12870   0.24417  -0.22972   0.01953   0.12990
  91        9D+2       -0.11017  -1.32152   1.14030  -0.34027   0.40718
  92        9D-2        0.18980   0.56657   1.34709   0.58972   0.34047
  93 4   H  1S         -0.03527  -0.01123   0.00717  -0.00582  -0.02544
  94        2S          0.31873   2.92984  -1.87285  -0.53546   2.18639
  95        3S          7.31966  23.35094 -14.92373  -3.32978  25.60050
  96        4S          1.54753  -1.51106   0.96649  -1.96761  10.90539
  97        5PX        -0.02752   0.10249   0.00143  -0.07757   0.10607
  98        5PY        -0.01582  -0.01102  -0.10896  -0.04477   0.04990
  99        5PZ         0.06073   0.00402  -0.00251   0.02980  -0.01200
 100        6PX        -0.56260  -2.09029   0.43250   0.65946  -1.18430
 101        6PY        -0.32541  -0.25950   1.73109   0.38063  -0.56966
 102        6PZ        -0.32842   0.06761  -0.04384  -0.15719   0.18269
 103        7PX        -1.08682  -9.62783  -0.32031   1.68986  -6.70867
 104        7PY        -0.63225   1.22987  10.43036   0.97576  -3.08661
 105        7PZ        -1.50992   3.07649  -1.97087   0.07748   0.85995
 106        8D 0       -0.03592  -0.00781   0.00496   0.03056  -0.01725
 107        8D+1       -0.01269  -0.02849  -0.00557  -0.00654   0.01327
 108        8D-1       -0.00732   0.00845   0.03572  -0.00375   0.00617
 109        8D+2        0.06175  -0.05188  -0.08655   0.01743   0.01448
 110        8D-2        0.10680   0.03563   0.04642   0.03017   0.03639
 111        9D 0       -0.46763  -0.36060   0.23052  -0.10564  -0.26187
 112        9D+1        0.22343  -0.06413   0.25832   0.03469  -0.25772
 113        9D-1        0.12876  -0.26401  -0.20633   0.01973  -0.12527
 114        9D+2       -0.11044   1.41918   1.01578  -0.34052   0.23683
 115        9D-2       -0.18978   0.44189  -1.39328  -0.58952   0.18945
 116 5   Cl 1S          0.02018   0.00000   0.00001   0.01158   0.00000
 117        2S          0.27827   0.00003   0.00010   0.15990   0.00000
 118        3S          0.77797   0.00010   0.00027   0.45183   0.00001
 119        4S         -0.03858  -0.00001  -0.00002  -0.01056   0.00000
 120        5S         -4.35881  -0.00052  -0.00149  -2.97986  -0.00005
 121        6S        -10.03401  -0.00106  -0.00297 -13.53090  -0.00011
 122        7PX         0.00000   0.00009   0.00000   0.00000   0.00254
 123        7PY         0.00000   0.00000  -0.00009  -0.00001   0.00225
 124        7PZ        -0.00499   0.00000   0.00000  -0.02385   0.00000
 125        8PX        -0.00001   0.00692  -0.00031  -0.00006   0.04795
 126        8PY        -0.00004  -0.00031  -0.00692  -0.00015   0.04246
 127        8PZ        -0.07015   0.00000   0.00000  -0.33404  -0.00003
 128        9PX         0.00000  -0.00144   0.00007   0.00001  -0.00868
 129        9PY         0.00000   0.00007   0.00145   0.00004  -0.00768
 130        9PZ         0.00336   0.00000   0.00000   0.08370   0.00001
 131       10PX         0.00106   0.04854  -0.00220   0.00093  -0.33391
 132       10PY         0.00267  -0.00220  -0.04855   0.00227  -0.29571
 133       10PZ         5.98847   0.00066   0.00192   5.15480   0.00024
 134       11PX         0.00027  -1.14107   0.05171   0.00061   0.19631
 135       11PY        -0.00002   0.05173   1.14103   0.00153   0.17386
 136       11PZ         0.83131   0.00024  -0.00033   3.43201  -0.00009
 137       12D 0        0.06755   0.00000   0.00005   0.00174   0.00000
 138       12D+1        0.00002   0.03187  -0.00145   0.00000   0.00281
 139       12D-1        0.00006  -0.00144  -0.03186   0.00000   0.00248
 140       12D+2        0.00000   0.00045   0.00986   0.00000  -0.00820
 141       12D-2        0.00000  -0.00983   0.00044   0.00000  -0.00925
 142       13D 0       -0.38915  -0.00001  -0.00022  -0.07020   0.00002
 143       13D+1       -0.00011  -0.11703   0.00531  -0.00002  -0.01909
 144       13D-1       -0.00033   0.00530   0.11701  -0.00005  -0.01688
 145       13D+2        0.00001  -0.00104  -0.02276   0.00000   0.02949
 146       13D-2        0.00000   0.02266  -0.00100   0.00000   0.03326
 147       14D 0       -1.42119  -0.00022  -0.00024  -1.27578  -0.00025
 148       14D+1       -0.00047   0.25225  -0.01144  -0.00040   0.24911
 149       14D-1       -0.00100  -0.01143  -0.25219  -0.00098   0.22049
 150       14D+2       -0.00002   0.00229   0.04989   0.00000  -0.13640
 151       14D-2        0.00001  -0.04970   0.00218   0.00000  -0.15370
 152       15F 0       -0.04275  -0.00001  -0.00001  -0.00004  -0.00002
 153       15F+1       -0.00002   0.00180  -0.00008   0.00000   0.01320
 154       15F-1       -0.00004  -0.00008  -0.00179   0.00000   0.01168
 155       15F+2        0.00000   0.00030   0.00668  -0.00001  -0.00725
 156       15F-2        0.00000  -0.00668   0.00030  -0.00001  -0.00816
 157       15F+3        0.00000   0.00000   0.00000   0.00001   0.00000
 158       15F-3       -0.00946   0.00000   0.00000   0.02238  -0.00001
 159       16F 0        0.23649   0.00003   0.00007   0.09518   0.00006
 160       16F+1        0.00011  -0.00346   0.00017   0.00004  -0.04638
 161       16F-1        0.00025   0.00014   0.00341   0.00010  -0.04104
 162       16F+2        0.00000  -0.00169  -0.03758   0.00002   0.02941
 163       16F-2       -0.00001   0.03758  -0.00169   0.00001   0.03312
 164       16F+3        0.00001  -0.00002  -0.00001  -0.00002  -0.00001
 165       16F-3        0.01942   0.00001  -0.00001  -0.04172   0.00002
 166 6   F  1S          0.03847   0.00001   0.00001  -0.02382   0.00000
 167        2S          0.13400   0.00002   0.00005  -0.09110   0.00000
 168        3S         -0.07016  -0.00001  -0.00003   0.03771   0.00000
 169        4S         -0.35201  -0.00005  -0.00015   0.00895  -0.00001
 170        5S          0.03341   0.00002   0.00010  -5.77512  -0.00006
 171        6PX         0.00000  -0.00761   0.00035   0.00000  -0.00118
 172        6PY         0.00000   0.00035   0.00761   0.00000  -0.00105
 173        6PZ         0.00570   0.00000   0.00000   0.00242   0.00000
 174        7PX        -0.00002   0.03868  -0.00175   0.00000   0.00428
 175        7PY        -0.00001  -0.00175  -0.03868   0.00000   0.00379
 176        7PZ        -0.06517  -0.00001   0.00000   0.00171   0.00000
 177        8PX         0.00014  -0.26232   0.01189  -0.00004  -0.00039
 178        8PY         0.00019   0.01189   0.26230  -0.00011  -0.00034
 179        8PZ         0.64148   0.00012   0.00011  -0.23061  -0.00001
 180        9PX        -0.00008  -0.75869   0.03438  -0.00042   0.16837
 181        9PY        -0.00061   0.03440   0.75866  -0.00110   0.14911
 182        9PZ        -0.84672   0.00004  -0.00057  -2.44298  -0.00012
 183       10D 0        0.01113   0.00000  -0.00001  -0.00830   0.00000
 184       10D+1        0.00000  -0.01288   0.00058   0.00000  -0.00157
 185       10D-1        0.00000   0.00058   0.01288  -0.00001  -0.00139
 186       10D+2        0.00000  -0.00023  -0.00513   0.00000  -0.00177
 187       10D-2        0.00000   0.00511  -0.00023   0.00000  -0.00200
 188       11D 0       -0.04126  -0.00002   0.00002   0.01718   0.00000
 189       11D+1       -0.00002   0.04159  -0.00189   0.00000   0.00268
 190       11D-1       -0.00002  -0.00188  -0.04157   0.00001   0.00238
 191       11D+2       -0.00001   0.00082   0.01808   0.00000   0.00626
 192       11D-2        0.00000  -0.01804   0.00080   0.00000   0.00707
 193       12D 0        0.41407   0.00009   0.00005  -0.01390  -0.00003
 194       12D+1        0.00014  -0.12563   0.00570   0.00000   0.02487
 195       12D-1        0.00028   0.00568   0.12556  -0.00002   0.02202
 196       12D+2        0.00003  -0.00304  -0.06730   0.00000  -0.01131
 197       12D-2       -0.00001   0.06717  -0.00300   0.00000  -0.01274
 198       13F 0       -0.02764   0.00000  -0.00003  -0.00783   0.00001
 199       13F+1       -0.00001  -0.01629   0.00074   0.00000  -0.00627
 200       13F-1       -0.00004   0.00074   0.01630  -0.00001  -0.00555
 201       13F+2       -0.00001   0.00039   0.00875   0.00000  -0.00177
 202       13F-2        0.00000  -0.00877   0.00040   0.00000  -0.00200
 203       13F+3        0.00000   0.00001   0.00000   0.00000   0.00000
 204       13F-3        0.01235   0.00000   0.00001  -0.00206   0.00000
 205       14F 0        0.06798  -0.00001   0.00006   0.01258  -0.00002
 206       14F+1        0.00002   0.03645  -0.00165   0.00001   0.01415
 207       14F-1        0.00009  -0.00166  -0.03649   0.00001   0.01254
 208       14F+2        0.00002  -0.00108  -0.02416   0.00000   0.00435
 209       14F-2        0.00000   0.02420  -0.00110   0.00000   0.00493
 210       14F+3       -0.00001  -0.00002   0.00000   0.00000   0.00000
 211       14F-3       -0.01666   0.00000  -0.00002   0.00353   0.00000
                         211
     Eigenvalues --     0.00000
   1 1   C  1S          0.00000
   2        2S          0.00001
   3        3S          0.00000
   4        4S          0.00005
   5        5S         -0.00005
   6        6PX        -0.00479
   7        6PY         0.00541
   8        6PZ         0.00000
   9        7PX         1.01880
  10        7PY        -1.15049
  11        7PZ         0.00031
  12        8PX        11.46970
  13        8PY       -12.95169
  14        8PZ         0.00358
  15        9PX         5.21245
  16        9PY        -5.88592
  17        9PZ         0.00165
  18       10D 0        0.00000
  19       10D+1       -0.00148
  20       10D-1        0.00166
  21       10D+2       -0.01550
  22       10D-2        0.01373
  23       11D 0       -0.00008
  24       11D+1       -0.14603
  25       11D-1        0.16464
  26       11D+2       -0.32971
  27       11D-2        0.29208
  28       12D 0       -0.00040
  29       12D+1       -0.90489
  30       12D-1        1.02215
  31       12D+2        0.36790
  32       12D-2       -0.32669
  33       13F 0        0.00002
  34       13F+1        0.02540
  35       13F-1       -0.02869
  36       13F+2       -0.00880
  37       13F-2        0.00784
  38       13F+3       -0.00001
  39       13F-3        0.00000
  40       14F 0       -0.00021
  41       14F+1       -0.26541
  42       14F-1        0.29979
  43       14F+2        0.06655
  44       14F-2       -0.05933
  45       14F+3        0.00005
  46       14F-3        0.00004
  47 2   H  1S          0.01944
  48        2S         -1.67046
  49        3S        -19.55840
  50        4S         -8.33153
  51        5PX         0.03251
  52        5PY         0.08924
  53        5PZ         0.00909
  54        6PX        -0.32710
  55        6PY        -1.00128
  56        6PZ        -0.13875
  57        7PX        -2.25575
  58        7PY        -5.61806
  59        7PZ        -0.65221
  60        8D 0        0.01317
  61        8D+1        0.00427
  62        8D-1        0.01118
  63        8D+2        0.02961
  64        8D-2        0.01877
  65        9D 0        0.20038
  66        9D+1       -0.06730
  67        9D-1       -0.21787
  68        9D+2        0.21592
  69        9D-2       -0.36565
  70 3   H  1S         -0.02463
  71        2S          2.11660
  72        3S         24.78315
  73        4S         10.55721
  74        5PX        -0.10569
  75        5PY         0.04311
  76        5PZ        -0.01157
  77        6PX         1.17677
  78        6PY        -0.49918
  79        6PZ         0.17643
  80        7PX         6.70344
  81        7PY        -2.62706
  82        7PZ         0.82998
  83        8D 0       -0.01670
  84        8D+1       -0.01326
  85        8D-1        0.00530
  86        8D+2        0.01098
  87        8D-2       -0.03698
  88        9D 0       -0.25367
  89        9D+1        0.25546
  90        9D-1       -0.11041
  91        9D+2        0.28806
  92        9D-2       -0.14963
  93 4   H  1S          0.00519
  94        2S         -0.44620
  95        3S         -5.22457
  96        4S         -2.22563
  97        5PX         0.00336
  98        5PY        -0.05350
  99        5PZ         0.00246
 100        6PX        -0.00989
 101        6PY         0.55210
 102        6PZ        -0.03743
 103        7PX        -0.36594
 104        7PY         3.63598
 105        7PZ        -0.17653
 106        8D 0        0.00353
 107        8D+1        0.00058
 108        8D-1       -0.00698
 109        8D+2       -0.02797
 110        8D-2        0.00703
 111        9D 0        0.05337
 112        9D+1        0.00074
 113        9D-1        0.11574
 114        9D+2        0.43880
 115        9D-2       -0.32010
 116 5   Cl 1S          0.00000
 117        2S          0.00000
 118        3S          0.00001
 119        4S          0.00000
 120        5S         -0.00004
 121        6S         -0.00008
 122        7PX        -0.00225
 123        7PY         0.00254
 124        7PZ         0.00000
 125        8PX        -0.04246
 126        8PY         0.04795
 127        8PZ        -0.00002
 128        9PX         0.00768
 129        9PY        -0.00868
 130        9PZ         0.00000
 131       10PX         0.29571
 132       10PY        -0.33392
 133       10PZ         0.00014
 134       11PX        -0.17384
 135       11PY         0.19632
 136       11PZ        -0.00005
 137       12D 0        0.00000
 138       12D+1       -0.00248
 139       12D-1        0.00279
 140       12D+2       -0.00925
 141       12D-2        0.00820
 142       13D 0        0.00001
 143       13D+1        0.01689
 144       13D-1       -0.01905
 145       13D+2        0.03328
 146       13D-2       -0.02948
 147       14D 0       -0.00013
 148       14D+1       -0.22056
 149       14D-1        0.24892
 150       14D+2       -0.15400
 151       14D-2        0.13630
 152       15F 0       -0.00001
 153       15F+1       -0.01168
 154       15F-1        0.01318
 155       15F+2       -0.00819
 156       15F-2        0.00724
 157       15F+3       -0.00001
 158       15F-3        0.00000
 159       16F 0        0.00003
 160       16F+1        0.04106
 161       16F-1       -0.04632
 162       16F+2        0.03321
 163       16F-2       -0.02938
 164       16F+3        0.00002
 165       16F-3        0.00001
 166 6   F  1S          0.00000
 167        2S          0.00000
 168        3S          0.00000
 169        4S         -0.00001
 170        5S         -0.00005
 171        6PX         0.00105
 172        6PY        -0.00118
 173        6PZ         0.00000
 174        7PX        -0.00379
 175        7PY         0.00428
 176        7PZ         0.00000
 177        8PX         0.00034
 178        8PY        -0.00039
 179        8PZ        -0.00001
 180        9PX        -0.14911
 181        9PY         0.16838
 182        9PZ        -0.00007
 183       10D 0        0.00000
 184       10D+1        0.00139
 185       10D-1       -0.00158
 186       10D+2       -0.00200
 187       10D-2        0.00178
 188       11D 0        0.00000
 189       11D+1       -0.00237
 190       11D-1        0.00269
 191       11D+2        0.00707
 192       11D-2       -0.00626
 193       12D 0       -0.00001
 194       12D+1       -0.02202
 195       12D-1        0.02486
 196       12D+2       -0.01277
 197       12D-2        0.01129
 198       13F 0        0.00000
 199       13F+1        0.00555
 200       13F-1       -0.00627
 201       13F+2       -0.00199
 202       13F-2        0.00177
 203       13F+3        0.00000
 204       13F-3        0.00000
 205       14F 0       -0.00001
 206       14F+1       -0.01254
 207       14F-1        0.01416
 208       14F+2        0.00490
 209       14F-2       -0.00436
 210       14F+3        0.00000
 211       14F-3        0.00000
          Condensed to atoms (all electrons):
              1          2          3          4          5          6
     1  C    6.989413  -0.004963  -0.004964  -0.004962  -0.048589  -0.096356
     2  H   -0.004963   0.546595   0.020217   0.020217  -0.018997   0.002676
     3  H   -0.004964   0.020217   0.546598   0.020217  -0.018996   0.002681
     4  H   -0.004962   0.020217   0.020217   0.546598  -0.018996   0.002679
     5  Cl  -0.048589  -0.018997  -0.018996  -0.018996  17.700503   0.026060
     6  F   -0.096356   0.002676   0.002681   0.002679   0.026060   9.914448
 Mulliken atomic charges:
              1
     1  C   -0.829577
     2  H    0.434255
     3  H    0.434247
     4  H    0.434247
     5  Cl  -0.620984
     6  F   -0.852188
 Sum of Mulliken atomic charges =  -1.00000
 Mulliken charges with hydrogens summed into heavy atoms:
              1
     1  C    0.473172
     5  Cl  -0.620984
     6  F   -0.852188
 Sum of Mulliken charges with hydrogens summed into heavy atoms =  -1.00000
 Electronic spatial extent (au):  <R**2>=            490.1482
 Charge=             -1.0000 electrons
 Dipole moment (field-independent basis, Debye):
    X=             -0.0006    Y=              0.0008    Z=              4.2255  Tot=              4.2255
 Quadrupole moment (field-independent basis, Debye-Ang):
   XX=            -28.1756   YY=            -28.1756   ZZ=            -62.8921
   XY=              0.0000   XZ=             -0.0049   YZ=             -0.0144
 Traceless Quadrupole moment (field-independent basis, Debye-Ang):
   XX=             11.5721   YY=             11.5722   ZZ=            -23.1443
   XY=              0.0000   XZ=             -0.0049   YZ=             -0.0144
 Octapole moment (field-independent basis, Debye-Ang**2):
  XXX=             -0.0243  YYY=             -0.9712  ZZZ=             50.7760  XYY=             -0.0086
  XXY=              0.9374  XXZ=             -4.1611  XZZ=             -0.0064  YZZ=              0.0115
  YYZ=             -4.1603  XYZ=             -0.0002
 Hexadecapole moment (field-independent basis, Debye-Ang**3):
 XXXX=            -41.2371 YYYY=            -41.2370 ZZZZ=           -762.5401 XXXY=              0.0004
 XXXZ=             -0.0506 YYYX=             -0.0002 YYYZ=              0.5170 ZZZX=             -0.0656
 ZZZY=             -0.1891 XXYY=            -13.7458 XXZZ=           -103.3580 YYZZ=           -103.3591
 XXYZ=             -0.6799 YYXZ=             -0.0166 ZZXY=              0.0002
 N-N= 8.502741202724D+01 E-N=-1.604255131991D+03  KE= 5.991907680030D+02
 1\1\GINC-TRAPISTA\SP\RQCISD-FC\Aug-CC-pVTZ\C1H3Cl1F1(1-)\BRUNS\23-Aug-
 2020\0\\# QCISD aug-cc-pvtz nosymm density=current output=wfn\\clch3f_
 ts-wavefunction\\-1,1\C,0,0.000175,0.000029,-0.487709\H,0,0.000019,-1.
 05257,-0.620726\H,0,-0.911312,0.526365,-0.621245\H,0,0.91175,0.526132,
 -0.62157\Cl,0,0.000555,0.000962,1.644718\F,0,-0.000186,-0.000921,-2.59
 3468\\Version=EM64L-G09RevB.01\HF=-598.6171337\MP2=-599.2914607\MP3=-5
 99.3101798\MP4D=-599.3250712\MP4DQ=-599.31064\MP4SDQ=-599.3199469\QCIS
 D=-599.3193131\RMSD=9.123e-09\Dipole=0.0002824,0.0007513,1.6532194\Qua
 drupole=8.6036024,8.6036117,-17.2072141,-0.0000042,-0.0036688,-0.01074
 27\PG=C01 [X(C1H3Cl1F1)]\\@

 Writing a WFN file to GAUSSIAN.wfn.


 WHEN HAVING A MEETING OF THE MINDS,
 MAKE SURE YOU HAVE THE EQUIPMENT FOR IT.
 Job cpu time:  0 days  3 hours 36 minutes 58.1 seconds.
 File lengths (MBytes):  RWF=  29002 Int=      0 D2E=      0 Chk=      4 Scr=      1
 Normal termination of Gaussian 09 at Sun Aug 23 21:02:39 2020.
