 Entering Gaussian System, Link 0=/home/bruns/programas/chemistry/gaussian/g09/g09
 Input=GAUSSIAN.com
 Output=GAUSSIAN.log
 Initial command:
 /home/bruns/programas/chemistry/gaussian/g09/l1.exe /home/bruns/programas/chemistry/gaussian/work/Gau-5402.inp -scrdir=/home/bruns/programas/chemistry/gaussian/work/
 Entering Link 1 = /home/bruns/programas/chemistry/gaussian/g09/l1.exe PID=      5404.
  
 Copyright (c) 1988,1990,1992,1993,1995,1998,2003,2009,2010,
            Gaussian, Inc.  All Rights Reserved.
  
 This is part of the Gaussian(R) 09 program.  It is based on
 the Gaussian(R) 03 system (copyright 2003, Gaussian, Inc.),
 the Gaussian(R) 98 system (copyright 1998, Gaussian, Inc.),
 the Gaussian(R) 94 system (copyright 1995, Gaussian, Inc.),
 the Gaussian 92(TM) system (copyright 1992, Gaussian, Inc.),
 the Gaussian 90(TM) system (copyright 1990, Gaussian, Inc.),
 the Gaussian 88(TM) system (copyright 1988, Gaussian, Inc.),
 the Gaussian 86(TM) system (copyright 1986, Carnegie Mellon
 University), and the Gaussian 82(TM) system (copyright 1983,
 Carnegie Mellon University). Gaussian is a federally registered
 trademark of Gaussian, Inc.
  
 This software contains proprietary and confidential information,
 including trade secrets, belonging to Gaussian, Inc.
  
 This software is provided under written license and may be
 used, copied, transmitted, or stored only in accord with that
 written license.
  
 The following legend is applicable only to US Government
 contracts under FAR:
  
                    RESTRICTED RIGHTS LEGEND
  
 Use, reproduction and disclosure by the US Government is
 subject to restrictions as set forth in subparagraphs (a)
 and (c) of the Commercial Computer Software - Restricted
 Rights clause in FAR 52.227-19.
  
 Gaussian, Inc.
 340 Quinnipiac St., Bldg. 40, Wallingford CT 06492
  
  
 ---------------------------------------------------------------
 Warning -- This program may not be used in any manner that
 competes with the business of Gaussian, Inc. or will provide
 assistance to any competitor of Gaussian, Inc.  The licensee
 of this program is prohibited from giving any competitor of
 Gaussian, Inc. access to this program.  By using this program,
 the user acknowledges that Gaussian, Inc. is engaged in the
 business of creating and licensing software in the field of
 computational chemistry and represents and warrants to the
 licensee that it is not a competitor of Gaussian, Inc. and that
 it will not use this program in any manner prohibited above.
 ---------------------------------------------------------------
  

 Cite this work as:
 Gaussian 09, Revision B.01,
 M. J. Frisch, G. W. Trucks, H. B. Schlegel, G. E. Scuseria, 
 M. A. Robb, J. R. Cheeseman, G. Scalmani, V. Barone, B. Mennucci, 
 G. A. Petersson, H. Nakatsuji, M. Caricato, X. Li, H. P. Hratchian, 
 A. F. Izmaylov, J. Bloino, G. Zheng, J. L. Sonnenberg, M. Hada, 
 M. Ehara, K. Toyota, R. Fukuda, J. Hasegawa, M. Ishida, T. Nakajima, 
 Y. Honda, O. Kitao, H. Nakai, T. Vreven, J. A. Montgomery, Jr., 
 J. E. Peralta, F. Ogliaro, M. Bearpark, J. J. Heyd, E. Brothers, 
 K. N. Kudin, V. N. Staroverov, T. Keith, R. Kobayashi, J. Normand, 
 K. Raghavachari, A. Rendell, J. C. Burant, S. S. Iyengar, J. Tomasi, 
 M. Cossi, N. Rega, J. M. Millam, M. Klene, J. E. Knox, J. B. Cross, 
 V. Bakken, C. Adamo, J. Jaramillo, R. Gomperts, R. E. Stratmann, 
 O. Yazyev, A. J. Austin, R. Cammi, C. Pomelli, J. W. Ochterski, 
 R. L. Martin, K. Morokuma, V. G. Zakrzewski, G. A. Voth, 
 P. Salvador, J. J. Dannenberg, S. Dapprich, A. D. Daniels, 
 O. Farkas, J. B. Foresman, J. V. Ortiz, J. Cioslowski, 
 and D. J. Fox, Gaussian, Inc., Wallingford CT, 2010.
 
 ******************************************
 Gaussian 09:  EM64L-G09RevB.01 12-Aug-2010
                24-Aug-2020 
 ******************************************
 %nproc=8
 Will use up to    8 processors via shared memory.
 %mem=8GB
 -----------------------------------------------------
 # QCISD aug-cc-pvtz nosymm density=current output=wfn
 -----------------------------------------------------
 1/30=1,38=1/1;
 2/12=2,15=1,17=6,18=5,40=1/2;
 3/5=16,6=1,7=10,11=9,16=1,25=1,30=1,71=1/1,2,3;
 4//1;
 5/5=2,38=5/2;
 8/6=4,9=120000,10=1/1,4;
 9/5=8,15=1/13;
 11/28=-7,31=1,32=3,42=3/11;
 10/5=6,13=10,31=1/2;
 6/7=2,8=2,9=2,10=2,22=-1,31=1/1;
 99/5=1,6=1100,9=1/99;
 ----------------------
 clch3f_ts-wavefunction
 ----------------------
 Symbolic Z-matrix:
 Charge = -1 Multiplicity = 1
 C                     0.00018   0.00003  -0.49771 
 H                     0.00002  -1.05257  -0.62073 
 H                    -0.91131   0.52637  -0.62125 
 H                     0.91175   0.52613  -0.62157 
 Cl                    0.00056   0.00096   1.64472 
 F                    -0.01019  -0.00092  -2.59347 
 
                          Input orientation:                          
 ---------------------------------------------------------------------
 Center     Atomic      Atomic             Coordinates (Angstroms)
 Number     Number       Type             X           Y           Z
 ---------------------------------------------------------------------
      1          6           0        0.000175    0.000029   -0.497709
      2          1           0        0.000019   -1.052570   -0.620726
      3          1           0       -0.911312    0.526365   -0.621245
      4          1           0        0.911750    0.526132   -0.621570
      5         17           0        0.000555    0.000962    1.644718
      6          9           0       -0.010186   -0.000921   -2.593468
 ---------------------------------------------------------------------
                    Distance matrix (angstroms):
                    1          2          3          4          5
     1  C    0.000000
     2  H    1.059763   0.000000
     3  H    1.059764   1.823063   0.000000
     4  H    1.059762   1.823062   1.823062   0.000000
     5  Cl   2.142427   2.498433   2.498427   2.498428   0.000000
     6  F    2.095785   2.235572   2.231529   2.239672   4.238200
                    6
     6  F    0.000000
 Symmetry turned off by external request.
 This structure is nearly, but not quite of a higher symmetry.
 Consider Symm=Loose if the higher symmetry is desired.
 Stoichiometry    CH3ClF(1-)
 Framework group  C1[X(CH3ClF)]
 Deg. of freedom    12
 Full point group                 C1      NOp   1
 Rotational constants (GHZ):    150.8659332      2.2147100      2.2147072
 Standard basis: Aug-CC-pVTZ (5D, 7F)
 Integral buffers will be    131072 words long.
 Raffenetti 1 integral format.
 Two-electron integral symmetry is turned off.
   211 basis functions,   339 primitive gaussians,   244 cartesian basis functions
    18 alpha electrons       18 beta electrons
       nuclear repulsion energy        84.9840055254 Hartrees.
 NAtoms=    6 NActive=    6 NUniq=    6 SFac= 1.00D+00 NAtFMM=   50 NAOKFM=F Big=F
 One-electron integrals computed using PRISM.
 NBasis=   211 RedAO= T  NBF=   211
 NBsUse=   211 1.00D-06 NBFU=   211
 Harris functional with IExCor=  205 diagonalized for initial guess.
 ExpMin= 2.53D-02 ExpMax= 4.56D+05 ExpMxC= 1.44D+03 IAcc=3 IRadAn=         0 AccDes= 0.00D+00
 HarFok:  IExCor=  205 AccDes= 0.00D+00 IRadAn=         0 IDoV= 1
 ScaDFX=  1.000000  1.000000  1.000000  1.000000
 FoFCou: FMM=F IPFlag=           0 FMFlag=      100000 FMFlg1=           0
         NFxFlg=           0 DoJE=T BraDBF=F KetDBF=T FulRan=T
         Omega=  0.000000  0.000000  1.000000  0.000000  0.000000 ICntrl=     500 IOpCl=  0
         NMat0=    1 NMatS0=    1 NMatT0=    0 NMatD0=    1 NMtDS0=    0 NMtDT0=    0
         I1Cent=           4 NGrid=           0.
 Symmetry not used in FoFCou.
 Requested convergence on RMS density matrix=1.00D-08 within 128 cycles.
 Requested convergence on MAX density matrix=1.00D-06.
 Requested convergence on             energy=1.00D-06.
 No special actions if energy rises.
 Keep R1 ints in memory in canonical form, NReq=454274131.
 SCF Done:  E(RHF) =  -598.617123010     A.U. after   12 cycles
             Convg  =    0.9412D-08             -V/T =  2.0001
 ExpMin= 2.53D-02 ExpMax= 4.56D+05 ExpMxC= 1.44D+03 IAcc=3 IRadAn=         5 AccDes= 0.00D+00
 HarFok:  IExCor=  205 AccDes= 0.00D+00 IRadAn=         5 IDoV=-2
 ScaDFX=  1.000000  1.000000  1.000000  1.000000
 Range of M.O.s used for correlation:     8   211
 NBasis=   211 NAE=    18 NBE=    18 NFC=     7 NFV=     0
 NROrb=    204 NOA=    11 NOB=    11 NVA=   193 NVB=   193

 **** Warning!!: The largest alpha MO coefficient is  0.35242149D+02

 Semi-Direct transformation.
 ModeAB=           2 MOrb=            11 LenV=    1072528236
 LASXX=     44979418 LTotXX=    44979418 LenRXX=    44979418
 LTotAB=    45631872 MaxLAS=    67073160 LenRXY=    67073160
 NonZer=    89958836 LenScr=   135708672 LnRSAI=           0
 LnScr1=           0 LExtra=           0 Total=    247761250
 MaxDsk=          -1 SrtSym=           F ITran=            4
 JobTyp=0 Pass  1:  I=   1 to  11.
 (rs|ai) integrals will be sorted in core.
 Spin components of T(2) and E(2):
     alpha-alpha T2 =       0.2567354656D-01 E2=     -0.8208208662D-01
     alpha-beta  T2 =       0.1452558505D+00 E2=     -0.5099784416D+00
     beta-beta   T2 =       0.2567354656D-01 E2=     -0.8208208662D-01
 ANorm=    0.1093893479D+01
 E2 =    -0.6741426149D+00 EUMP2 =    -0.59929126562494D+03
 R2 and R3 integrals will be kept in memory, NReq=   900794930.
 Iterations=  50 Convergence= 0.100D-07
 Iteration Nr.   1
 **********************
 DD1Dir will call FoFMem   1 times, MxPair=       132
 NAB=    66 NAA=     0 NBB=     0.
 MP4(R+Q)=  0.14438853D-01
 E3=       -0.18701026D-01        EUMP3=      -0.59930996665D+03
 E4(DQ)=   -0.45156106D-03        UMP4(DQ)=   -0.59931041821D+03
 E4(SDQ)=  -0.98177409D-02        UMP4(SDQ)=  -0.59931978439D+03
 DE(Corr)= -0.67840479     E(Corr)=     -599.29552780    
 NORM(A)=   0.10996849D+01
 Iteration Nr.   2
 **********************
 DD1Dir will call FoFMem   1 times, MxPair=       132
 NAB=    66 NAA=     0 NBB=     0.
 DE(Corr)= -0.70060458     E(CORR)=     -599.31772759     Delta=-2.22D-02
 NORM(A)=   0.11070392D+01
 Iteration Nr.   3
 **********************
 DD1Dir will call FoFMem   1 times, MxPair=       132
 NAB=    66 NAA=     0 NBB=     0.
 DE(Corr)= -0.69820765     E(CORR)=     -599.31533066     Delta= 2.40D-03
 NORM(A)=   0.11110243D+01
 Iteration Nr.   4
 **********************
 DD1Dir will call FoFMem   1 times, MxPair=       132
 NAB=    66 NAA=     0 NBB=     0.
 DE(Corr)= -0.70126673     E(CORR)=     -599.31838974     Delta=-3.06D-03
 NORM(A)=   0.11131281D+01
 Iteration Nr.   5
 **********************
 DD1Dir will call FoFMem   1 times, MxPair=       132
 NAB=    66 NAA=     0 NBB=     0.
 DE(Corr)= -0.70186171     E(CORR)=     -599.31898472     Delta=-5.95D-04
 NORM(A)=   0.11141592D+01
 Iteration Nr.   6
 **********************
 DD1Dir will call FoFMem   1 times, MxPair=       132
 NAB=    66 NAA=     0 NBB=     0.
 DE(Corr)= -0.70200850     E(CORR)=     -599.31913151     Delta=-1.47D-04
 NORM(A)=   0.11144851D+01
 Iteration Nr.   7
 **********************
 DD1Dir will call FoFMem   1 times, MxPair=       132
 NAB=    66 NAA=     0 NBB=     0.
 DE(Corr)= -0.70203822     E(CORR)=     -599.31916123     Delta=-2.97D-05
 NORM(A)=   0.11145161D+01
 Iteration Nr.   8
 **********************
 DD1Dir will call FoFMem   1 times, MxPair=       132
 NAB=    66 NAA=     0 NBB=     0.
 DE(Corr)= -0.70205210     E(CORR)=     -599.31917511     Delta=-1.39D-05
 NORM(A)=   0.11145340D+01
 Iteration Nr.   9
 **********************
 DD1Dir will call FoFMem   1 times, MxPair=       132
 NAB=    66 NAA=     0 NBB=     0.
 DE(Corr)= -0.70202888     E(CORR)=     -599.31915189     Delta= 2.32D-05
 NORM(A)=   0.11145371D+01
 Iteration Nr.  10
 **********************
 DD1Dir will call FoFMem   1 times, MxPair=       132
 NAB=    66 NAA=     0 NBB=     0.
 DE(Corr)= -0.70204818     E(CORR)=     -599.31917119     Delta=-1.93D-05
 NORM(A)=   0.11145373D+01
 Iteration Nr.  11
 **********************
 DD1Dir will call FoFMem   1 times, MxPair=       132
 NAB=    66 NAA=     0 NBB=     0.
 DE(Corr)= -0.70203899     E(CORR)=     -599.31916200     Delta= 9.19D-06
 NORM(A)=   0.11145402D+01
 Iteration Nr.  12
 **********************
 DD1Dir will call FoFMem   1 times, MxPair=       132
 NAB=    66 NAA=     0 NBB=     0.
 DE(Corr)= -0.70204274     E(CORR)=     -599.31916575     Delta=-3.75D-06
 NORM(A)=   0.11145407D+01
 Iteration Nr.  13
 **********************
 DD1Dir will call FoFMem   1 times, MxPair=       132
 NAB=    66 NAA=     0 NBB=     0.
 DE(Corr)= -0.70204331     E(CORR)=     -599.31916632     Delta=-5.66D-07
 NORM(A)=   0.11145414D+01
 Iteration Nr.  14
 **********************
 DD1Dir will call FoFMem   1 times, MxPair=       132
 NAB=    66 NAA=     0 NBB=     0.
 DE(Corr)= -0.70204353     E(CORR)=     -599.31916654     Delta=-2.24D-07
 NORM(A)=   0.11145415D+01
 Iteration Nr.  15
 **********************
 DD1Dir will call FoFMem   1 times, MxPair=       132
 NAB=    66 NAA=     0 NBB=     0.
 DE(Corr)= -0.70204344     E(CORR)=     -599.31916645     Delta= 9.06D-08
 NORM(A)=   0.11145414D+01
 Iteration Nr.  16
 **********************
 DD1Dir will call FoFMem   1 times, MxPair=       132
 NAB=    66 NAA=     0 NBB=     0.
 DE(Corr)= -0.70204365     E(CORR)=     -599.31916666     Delta=-2.03D-07
 NORM(A)=   0.11145413D+01
 Iteration Nr.  17
 **********************
 DD1Dir will call FoFMem   1 times, MxPair=       132
 NAB=    66 NAA=     0 NBB=     0.
 DE(Corr)= -0.70204352     E(CORR)=     -599.31916653     Delta= 1.31D-07
 NORM(A)=   0.11145411D+01
 Iteration Nr.  18
 **********************
 DD1Dir will call FoFMem   1 times, MxPair=       132
 NAB=    66 NAA=     0 NBB=     0.
 DE(Corr)= -0.70204355     E(CORR)=     -599.31916656     Delta=-3.67D-08
 NORM(A)=   0.11145410D+01
 Iteration Nr.  19
 **********************
 DD1Dir will call FoFMem   1 times, MxPair=       132
 NAB=    66 NAA=     0 NBB=     0.
 DE(Corr)= -0.70204350     E(CORR)=     -599.31916651     Delta= 5.28D-08
 NORM(A)=   0.11145409D+01
 Iteration Nr.  20
 **********************
 DD1Dir will call FoFMem   1 times, MxPair=       132
 NAB=    66 NAA=     0 NBB=     0.
 DE(Corr)= -0.70204350     E(CORR)=     -599.31916651     Delta=-2.60D-09
 NORM(A)=   0.11145408D+01
 Iteration Nr.  21
 **********************
 DD1Dir will call FoFMem   1 times, MxPair=       132
 NAB=    66 NAA=     0 NBB=     0.
 DE(Corr)= -0.70204348     E(CORR)=     -599.31916649     Delta= 1.92D-08
 NORM(A)=   0.11145408D+01
 Iteration Nr.  22
 **********************
 DD1Dir will call FoFMem   1 times, MxPair=       132
 NAB=    66 NAA=     0 NBB=     0.
 DE(Corr)= -0.70204348     E(CORR)=     -599.31916649     Delta= 3.00D-09
 NORM(A)=   0.11145408D+01
 Iteration Nr.  23
 **********************
 DD1Dir will call FoFMem   1 times, MxPair=       132
 NAB=    66 NAA=     0 NBB=     0.
 DE(Corr)= -0.70204348     E(CORR)=     -599.31916649     Delta= 5.07D-09
 NORM(A)=   0.11145408D+01
 Iteration Nr.  24
 **********************
 DD1Dir will call FoFMem   1 times, MxPair=       132
 NAB=    66 NAA=     0 NBB=     0.
 DE(Corr)= -0.70204348     E(CORR)=     -599.31916649     Delta=-1.52D-09
 NORM(A)=   0.11145408D+01
 Iteration Nr.  25
 **********************
 DD1Dir will call FoFMem   1 times, MxPair=       132
 NAB=    66 NAA=     0 NBB=     0.
 DE(Corr)= -0.70204347     E(CORR)=     -599.31916648     Delta= 4.49D-09
 NORM(A)=   0.11145408D+01
 Iteration Nr.  26
 **********************
 DD1Dir will call FoFMem   1 times, MxPair=       132
 NAB=    66 NAA=     0 NBB=     0.
 DE(Corr)= -0.70204348     E(CORR)=     -599.31916649     Delta=-4.40D-09
 NORM(A)=   0.11145408D+01
 Iteration Nr.  27
 **********************
 DD1Dir will call FoFMem   1 times, MxPair=       132
 NAB=    66 NAA=     0 NBB=     0.
 DE(Corr)= -0.70204347     E(CORR)=     -599.31916648     Delta= 2.93D-09
 NORM(A)=   0.11145408D+01
 Largest amplitude= 6.61D-02

 Z-AMPLITUDE ITERATIONS

 Iteration Nr.   1
 **********************
 DD1Dir will call FoFMem   1 times, MxPair=       132
 NAB=    66 NAA=     0 NBB=     0.
 DE(Z)  -0.68265141D+00          E(Z)=    -0.59929977442D+03
 NORM(A)=   0.11145637D+01
 Iteration Nr.   2
 **********************
 DD1Dir will call FoFMem   1 times, MxPair=       132
 NAB=    66 NAA=     0 NBB=     0.
 DE(Z)  -0.68265393D+00          E(Z)=    -0.59929977694D+03
 NORM(A)=   0.11144175D+01
 Iteration Nr.   3
 **********************
 DD1Dir will call FoFMem   1 times, MxPair=       132
 NAB=    66 NAA=     0 NBB=     0.
 DE(Z)  -0.68263968D+00          E(Z)=    -0.59929976269D+03
 NORM(A)=   0.11145828D+01
 Iteration Nr.   4
 **********************
 DD1Dir will call FoFMem   1 times, MxPair=       132
 NAB=    66 NAA=     0 NBB=     0.
 DE(Z)  -0.68265561D+00          E(Z)=    -0.59929977862D+03
 NORM(A)=   0.11149481D+01
 Iteration Nr.   5
 **********************
 DD1Dir will call FoFMem   1 times, MxPair=       132
 NAB=    66 NAA=     0 NBB=     0.
 DE(Z)  -0.68269109D+00          E(Z)=    -0.59929981410D+03
 NORM(A)=   0.11078853D+01
 Iteration Nr.   6
 **********************
 DD1Dir will call FoFMem   1 times, MxPair=       132
 NAB=    66 NAA=     0 NBB=     0.
 DE(Z)  -0.68198238D+00          E(Z)=    -0.59929910539D+03
 NORM(A)=   0.11078800D+01
 Iteration Nr.   7
 **********************
 DD1Dir will call FoFMem   1 times, MxPair=       132
 NAB=    66 NAA=     0 NBB=     0.
 DE(Z)  -0.68198467D+00          E(Z)=    -0.59929910768D+03
 NORM(A)=   0.11078738D+01
 Iteration Nr.   8
 **********************
 DD1Dir will call FoFMem   1 times, MxPair=       132
 NAB=    66 NAA=     0 NBB=     0.
 DE(Z)  -0.68198318D+00          E(Z)=    -0.59929910619D+03
 NORM(A)=   0.11078711D+01
 Iteration Nr.   9
 **********************
 DD1Dir will call FoFMem   1 times, MxPair=       132
 NAB=    66 NAA=     0 NBB=     0.
 DE(Z)  -0.68198236D+00          E(Z)=    -0.59929910537D+03
 NORM(A)=   0.11078702D+01
 Iteration Nr.  10
 **********************
 DD1Dir will call FoFMem   1 times, MxPair=       132
 NAB=    66 NAA=     0 NBB=     0.
 DE(Z)  -0.68198272D+00          E(Z)=    -0.59929910573D+03
 NORM(A)=   0.11078698D+01
 Iteration Nr.  11
 **********************
 DD1Dir will call FoFMem   1 times, MxPair=       132
 NAB=    66 NAA=     0 NBB=     0.
 DE(Z)  -0.68198267D+00          E(Z)=    -0.59929910568D+03
 NORM(A)=   0.11078697D+01
 Iteration Nr.  12
 **********************
 DD1Dir will call FoFMem   1 times, MxPair=       132
 NAB=    66 NAA=     0 NBB=     0.
 DE(Z)  -0.68198251D+00          E(Z)=    -0.59929910552D+03
 NORM(A)=   0.11078697D+01
 Iteration Nr.  13
 **********************
 DD1Dir will call FoFMem   1 times, MxPair=       132
 NAB=    66 NAA=     0 NBB=     0.
 DE(Z)  -0.68198266D+00          E(Z)=    -0.59929910567D+03
 NORM(A)=   0.11078697D+01
 Iteration Nr.  14
 **********************
 DD1Dir will call FoFMem   1 times, MxPair=       132
 NAB=    66 NAA=     0 NBB=     0.
 DE(Z)  -0.68198264D+00          E(Z)=    -0.59929910565D+03
 NORM(A)=   0.11078698D+01
 Iteration Nr.  15
 **********************
 DD1Dir will call FoFMem   1 times, MxPair=       132
 NAB=    66 NAA=     0 NBB=     0.
 DE(Z)  -0.68198264D+00          E(Z)=    -0.59929910565D+03
 NORM(A)=   0.11078698D+01
 Iteration Nr.  16
 **********************
 DD1Dir will call FoFMem   1 times, MxPair=       132
 NAB=    66 NAA=     0 NBB=     0.
 DE(Z)  -0.68198265D+00          E(Z)=    -0.59929910566D+03
 NORM(A)=   0.11078698D+01
 Iteration Nr.  17
 **********************
 DD1Dir will call FoFMem   1 times, MxPair=       132
 NAB=    66 NAA=     0 NBB=     0.
 DE(Z)  -0.68198266D+00          E(Z)=    -0.59929910567D+03
 NORM(A)=   0.11078698D+01
 Iteration Nr.  18
 **********************
 DD1Dir will call FoFMem   1 times, MxPair=       132
 NAB=    66 NAA=     0 NBB=     0.
 DE(Z)  -0.68198265D+00          E(Z)=    -0.59929910566D+03
 NORM(A)=   0.11078698D+01
 Iteration Nr.  19
 **********************
 DD1Dir will call FoFMem   1 times, MxPair=       132
 NAB=    66 NAA=     0 NBB=     0.
 DE(Z)  -0.68198266D+00          E(Z)=    -0.59929910567D+03
 NORM(A)=   0.11078698D+01
 Iteration Nr.  20
 **********************
 DD1Dir will call FoFMem   1 times, MxPair=       132
 NAB=    66 NAA=     0 NBB=     0.
 DE(Z)  -0.68198265D+00          E(Z)=    -0.59929910566D+03
 NORM(A)=   0.11078698D+01
 Iteration Nr.  21
 **********************
 DD1Dir will call FoFMem   1 times, MxPair=       132
 NAB=    66 NAA=     0 NBB=     0.
 DE(Z)  -0.68198265D+00          E(Z)=    -0.59929910566D+03
 NORM(A)=   0.11078698D+01
 Iteration Nr.  22
 **********************
 DD1Dir will call FoFMem   1 times, MxPair=       132
 NAB=    66 NAA=     0 NBB=     0.
 DE(Z)  -0.68198265D+00          E(Z)=    -0.59929910566D+03
 NORM(A)=   0.11078698D+01
 Iteration Nr.  23
 **********************
 DD1Dir will call FoFMem   1 times, MxPair=       132
 NAB=    66 NAA=     0 NBB=     0.
 DE(Z)  -0.68198265D+00          E(Z)=    -0.59929910566D+03
 NORM(A)=   0.11078698D+01
 Discarding MO integrals.
          Differentiating once with respect to electric field.
                with respect to dipole field.
          Electric field/nuclear overlap derivatives assumed to be zero.
          Keep R1 ints in memory in canonical form, NReq=448662239.
          There are     1 degrees of freedom in the 1st order CPHF.  IDoFFX=0.
 LinEq1:  Iter=  0 NonCon=     1 RMS=3.11D-03 Max=1.20D-01
 AX will form     1 AO Fock derivatives at one time.
 LinEq1:  Iter=  1 NonCon=     1 RMS=6.94D-04 Max=9.46D-03
 LinEq1:  Iter=  2 NonCon=     1 RMS=2.29D-04 Max=5.72D-03
 LinEq1:  Iter=  3 NonCon=     1 RMS=9.49D-05 Max=1.45D-03
 LinEq1:  Iter=  4 NonCon=     1 RMS=3.84D-05 Max=4.10D-04
 LinEq1:  Iter=  5 NonCon=     1 RMS=1.06D-05 Max=2.26D-04
 LinEq1:  Iter=  6 NonCon=     1 RMS=2.42D-06 Max=4.25D-05
 LinEq1:  Iter=  7 NonCon=     1 RMS=6.06D-07 Max=9.14D-06
 LinEq1:  Iter=  8 NonCon=     1 RMS=1.49D-07 Max=1.80D-06
 LinEq1:  Iter=  9 NonCon=     1 RMS=3.03D-08 Max=7.47D-07
 LinEq1:  Iter= 10 NonCon=     1 RMS=6.54D-09 Max=8.90D-08
 LinEq1:  Iter= 11 NonCon=     1 RMS=1.05D-09 Max=1.16D-08
 LinEq1:  Iter= 12 NonCon=     1 RMS=1.68D-10 Max=2.85D-09
 LinEq1:  Iter= 13 NonCon=     0 RMS=2.40D-11 Max=3.21D-10
 Linear equations converged to 1.000D-10 1.000D-09 after    13 iterations.
 End of Minotr Frequency-dependent properties file   721 does not exist.
 End of Minotr Frequency-dependent properties file   722 does not exist.

 **********************************************************************

            Population analysis using the QCI/CC density.

 **********************************************************************

     Natural Orbital Coefficients:
                           1         2         3         4         5
     Eigenvalues --     2.00003   2.00003   2.00002   2.00001   2.00001
   1 1   C  1S         -0.00001   0.00001  -0.04328   0.08033   0.97619
   2        2S          0.00000   0.00000   0.00131   0.00050  -0.01332
   3        3S          0.00000   0.00000  -0.00132   0.00400   0.03985
   4        4S          0.00002  -0.00002  -0.01265  -0.02361   0.00311
   5        5S          0.00002  -0.00002  -0.00120  -0.00062  -0.00061
   6        6PX        -0.00004   0.00004   0.00000   0.00000   0.00001
   7        6PY         0.00004   0.00004   0.00000   0.00000   0.00000
   8        6PZ         0.00000   0.00000   0.00053   0.00168   0.00087
   9        7PX        -0.00060   0.00060   0.00000   0.00000  -0.00001
  10        7PY         0.00059   0.00060   0.00000   0.00000   0.00000
  11        7PZ         0.00000   0.00000   0.00142   0.00304  -0.00091
  12        8PX        -0.00324   0.00322  -0.00001  -0.00001  -0.00002
  13        8PY         0.00320   0.00325   0.00000   0.00000   0.00000
  14        8PZ        -0.00001   0.00001  -0.00373  -0.00410  -0.00309
  15        9PX        -0.00030   0.00030   0.00000   0.00000   0.00000
  16        9PY         0.00030   0.00030   0.00000   0.00000   0.00000
  17        9PZ         0.00000   0.00000   0.00021   0.00017  -0.00049
  18       10D 0        0.00000   0.00000   0.00011   0.00033  -0.00057
  19       10D+1        0.00011  -0.00011   0.00000   0.00000   0.00000
  20       10D-1       -0.00011  -0.00011   0.00000   0.00000   0.00000
  21       10D+2        0.00003   0.00003   0.00000   0.00000   0.00000
  22       10D-2       -0.00003   0.00003   0.00000   0.00000   0.00000
  23       11D 0        0.00000   0.00000   0.00022  -0.00009  -0.00029
  24       11D+1       -0.00018   0.00018   0.00000   0.00000   0.00000
  25       11D-1        0.00018   0.00018   0.00000   0.00000   0.00000
  26       11D+2        0.00071   0.00072   0.00000   0.00000   0.00000
  27       11D-2       -0.00072   0.00071   0.00000   0.00000  -0.00001
  28       12D 0        0.00001  -0.00001  -0.00078   0.00122  -0.00236
  29       12D+1        0.00092  -0.00092   0.00000   0.00001  -0.00001
  30       12D-1       -0.00091  -0.00093   0.00000   0.00000   0.00000
  31       12D+2        0.00114   0.00115   0.00000   0.00000   0.00000
  32       12D-2       -0.00115   0.00114   0.00000   0.00000  -0.00001
  33       13F 0        0.00000   0.00000   0.00001   0.00003   0.00019
  34       13F+1        0.00013  -0.00013   0.00000   0.00000   0.00000
  35       13F-1       -0.00013  -0.00014   0.00000   0.00000   0.00000
  36       13F+2        0.00001   0.00001   0.00000   0.00000   0.00000
  37       13F-2       -0.00001   0.00001   0.00000   0.00000   0.00000
  38       13F+3        0.00000   0.00000   0.00000   0.00000   0.00000
  39       13F-3        0.00000   0.00000  -0.00006   0.00007   0.00090
  40       14F 0        0.00000   0.00000  -0.00113  -0.00215  -0.00019
  41       14F+1       -0.00041   0.00041   0.00000   0.00000   0.00000
  42       14F-1        0.00040   0.00041   0.00000   0.00000   0.00000
  43       14F+2        0.00024   0.00024   0.00000   0.00000   0.00000
  44       14F-2       -0.00024   0.00024   0.00000   0.00000   0.00000
  45       14F+3        0.00000   0.00000   0.00000   0.00000   0.00000
  46       14F-3        0.00000   0.00000  -0.00086  -0.00136  -0.00191
  47 2   H  1S         -0.00011  -0.00011  -0.00002  -0.00035  -0.00135
  48        2S          0.00083   0.00086   0.00245   0.00333  -0.00067
  49        3S          0.00612   0.00619   0.00182   0.00529  -0.00434
  50        4S         -0.00019  -0.00019   0.00011   0.00009  -0.00013
  51        5PX         0.00000   0.00000   0.00000   0.00000   0.00000
  52        5PY         0.00002   0.00002   0.00004  -0.00003  -0.00048
  53        5PZ         0.00001   0.00001   0.00001   0.00002  -0.00009
  54        6PX        -0.00013   0.00014   0.00000   0.00000   0.00000
  55        6PY         0.00046   0.00047   0.00046   0.00070  -0.00080
  56        6PZ         0.00044   0.00044  -0.00001  -0.00010   0.00024
  57        7PX        -0.00065   0.00065   0.00000   0.00000   0.00000
  58        7PY         0.00148   0.00149   0.00054   0.00135  -0.00102
  59        7PZ         0.00019   0.00019   0.00047   0.00092  -0.00006
  60        8D 0        0.00003   0.00003   0.00001   0.00007   0.00014
  61        8D+1        0.00001  -0.00001   0.00000   0.00000   0.00000
  62        8D-1        0.00007   0.00007   0.00002   0.00005  -0.00004
  63        8D+2       -0.00003  -0.00003  -0.00004  -0.00005   0.00028
  64        8D-2       -0.00001   0.00001   0.00000   0.00000   0.00000
  65        9D 0        0.00027   0.00028   0.00015   0.00025   0.00063
  66        9D+1       -0.00018   0.00018   0.00000   0.00000   0.00000
  67        9D-1        0.00009   0.00009  -0.00014  -0.00025   0.00001
  68        9D+2       -0.00009  -0.00009   0.00001   0.00003  -0.00010
  69        9D-2       -0.00008   0.00008   0.00000   0.00000   0.00000
  70 3   H  1S          0.00015  -0.00004  -0.00002  -0.00035  -0.00135
  71        2S         -0.00116   0.00031   0.00245   0.00332  -0.00068
  72        3S         -0.00841   0.00221   0.00181   0.00529  -0.00436
  73        4S          0.00026  -0.00007   0.00011   0.00009  -0.00013
  74        5PX        -0.00003   0.00001   0.00004  -0.00002  -0.00042
  75        5PY         0.00002   0.00000  -0.00002   0.00001   0.00024
  76        5PZ        -0.00001   0.00000   0.00001   0.00002  -0.00009
  77        6PX        -0.00053   0.00024   0.00039   0.00060  -0.00070
  78        6PY         0.00036   0.00007  -0.00023  -0.00035   0.00040
  79        6PZ        -0.00060   0.00016  -0.00001  -0.00010   0.00024
  80        7PX        -0.00164   0.00091   0.00046   0.00117  -0.00088
  81        7PY         0.00122   0.00050  -0.00027  -0.00067   0.00051
  82        7PZ        -0.00027   0.00007   0.00047   0.00092  -0.00006
  83        8D 0       -0.00004   0.00001   0.00001   0.00006   0.00014
  84        8D+1       -0.00008   0.00001   0.00002   0.00004  -0.00003
  85        8D-1        0.00004  -0.00002  -0.00001  -0.00002   0.00002
  86        8D+2       -0.00002   0.00001   0.00002   0.00003  -0.00014
  87        8D-2        0.00004  -0.00001  -0.00004  -0.00005   0.00024
  88        9D 0       -0.00038   0.00010   0.00015   0.00025   0.00063
  89        9D+1       -0.00008   0.00015  -0.00012  -0.00022   0.00001
  90        9D-1        0.00012   0.00019   0.00007   0.00013   0.00000
  91        9D+2       -0.00004   0.00011  -0.00001  -0.00001   0.00005
  92        9D-2        0.00012   0.00003   0.00001   0.00002  -0.00008
  93 4   H  1S         -0.00004   0.00015  -0.00002  -0.00035  -0.00135
  94        2S          0.00031  -0.00115   0.00245   0.00334  -0.00065
  95        3S          0.00229  -0.00840   0.00184   0.00530  -0.00432
  96        4S         -0.00007   0.00026   0.00011   0.00010  -0.00013
  97        5PX        -0.00001   0.00003  -0.00004   0.00002   0.00042
  98        5PY         0.00000   0.00002  -0.00002   0.00001   0.00024
  99        5PZ         0.00000  -0.00001   0.00001   0.00002  -0.00009
 100        6PX        -0.00024   0.00053  -0.00040  -0.00061   0.00069
 101        6PY         0.00007   0.00036  -0.00023  -0.00035   0.00040
 102        6PZ         0.00016  -0.00060  -0.00001  -0.00010   0.00024
 103        7PX        -0.00092   0.00163  -0.00047  -0.00117   0.00088
 104        7PY         0.00049   0.00122  -0.00027  -0.00068   0.00051
 105        7PZ         0.00007  -0.00026   0.00047   0.00092  -0.00006
 106        8D 0        0.00001  -0.00004   0.00001   0.00007   0.00014
 107        8D+1       -0.00001   0.00008  -0.00002  -0.00004   0.00003
 108        8D-1       -0.00003   0.00004  -0.00001  -0.00002   0.00002
 109        8D+2        0.00001  -0.00002   0.00002   0.00003  -0.00014
 110        8D-2        0.00001  -0.00004   0.00004   0.00005  -0.00024
 111        9D 0        0.00010  -0.00038   0.00015   0.00025   0.00063
 112        9D+1       -0.00015   0.00007   0.00012   0.00022  -0.00001
 113        9D-1        0.00019   0.00012   0.00007   0.00013   0.00000
 114        9D+2        0.00011  -0.00003   0.00000  -0.00001   0.00005
 115        9D-2       -0.00003  -0.00012  -0.00001  -0.00002   0.00009
 116 5   Cl 1S         -0.00005   0.00005  -0.25059   0.14801  -0.02283
 117        2S          0.00017  -0.00017   0.84589  -0.50031   0.07825
 118        3S          0.00000   0.00000  -0.02309   0.00933  -0.00239
 119        4S          0.00001  -0.00001   0.06655  -0.04076   0.00643
 120        5S         -0.00001   0.00001  -0.00211   0.00778   0.00351
 121        6S          0.00000   0.00000  -0.00154  -0.00213   0.00300
 122        7PX        -0.69554   0.68877   0.00002  -0.00043   0.00003
 123        7PY         0.68877   0.69554   0.00022   0.00036  -0.00002
 124        7PZ        -0.00055  -0.00005   0.50090   0.83587  -0.04716
 125        8PX         0.01361  -0.01347   0.00000   0.00001   0.00000
 126        8PY        -0.01347  -0.01361   0.00000  -0.00001   0.00000
 127        8PZ         0.00001   0.00000  -0.00878  -0.01404   0.00011
 128        9PX        -0.03719   0.03682   0.00000  -0.00002   0.00000
 129        9PY         0.03682   0.03719   0.00001   0.00002   0.00000
 130        9PZ        -0.00003   0.00000   0.02844   0.04954  -0.00267
 131       10PX         0.00411  -0.00406   0.00000   0.00000   0.00000
 132       10PY        -0.00407  -0.00410   0.00000   0.00000   0.00000
 133       10PZ         0.00000   0.00000  -0.00435  -0.00275  -0.00347
 134       11PX         0.00152  -0.00151   0.00000   0.00000   0.00000
 135       11PY        -0.00151  -0.00152   0.00000   0.00000   0.00000
 136       11PZ         0.00000   0.00000  -0.00036  -0.00015  -0.00053
 137       12D 0        0.00000   0.00000   0.00001  -0.00051  -0.00017
 138       12D+1        0.00023  -0.00022   0.00000   0.00000   0.00000
 139       12D-1       -0.00022  -0.00023   0.00000   0.00000   0.00000
 140       12D+2        0.00001   0.00001   0.00000   0.00000   0.00000
 141       12D-2       -0.00001   0.00001   0.00000   0.00000   0.00000
 142       13D 0        0.00000   0.00000   0.00088   0.00244   0.00042
 143       13D+1       -0.00057   0.00057   0.00000   0.00000   0.00000
 144       13D-1        0.00057   0.00058   0.00000   0.00000   0.00000
 145       13D+2       -0.00001  -0.00001   0.00000   0.00000   0.00000
 146       13D-2        0.00001  -0.00001   0.00000   0.00000   0.00000
 147       14D 0        0.00000   0.00000   0.00058  -0.00018   0.00080
 148       14D+1        0.00051  -0.00050   0.00000   0.00000   0.00000
 149       14D-1       -0.00050  -0.00051   0.00000   0.00000   0.00000
 150       14D+2        0.00002   0.00002   0.00000   0.00000   0.00000
 151       14D-2       -0.00002   0.00002   0.00000   0.00000   0.00000
 152       15F 0        0.00000   0.00000   0.00001  -0.00007  -0.00003
 153       15F+1        0.00000   0.00000   0.00000   0.00000   0.00000
 154       15F-1        0.00000   0.00000   0.00000   0.00000   0.00000
 155       15F+2        0.00002   0.00002   0.00000   0.00000   0.00000
 156       15F-2       -0.00002   0.00002   0.00000   0.00000   0.00000
 157       15F+3        0.00000   0.00000   0.00000   0.00000   0.00000
 158       15F-3        0.00000   0.00000   0.00001   0.00003   0.00000
 159       16F 0        0.00000   0.00000  -0.00032  -0.00058  -0.00031
 160       16F+1        0.00016  -0.00016   0.00000   0.00000   0.00000
 161       16F-1       -0.00016  -0.00016   0.00000   0.00000   0.00000
 162       16F+2       -0.00002  -0.00002   0.00000   0.00000   0.00000
 163       16F-2        0.00002  -0.00002   0.00000   0.00000   0.00000
 164       16F+3        0.00000   0.00000   0.00000   0.00000   0.00000
 165       16F-3        0.00000   0.00000  -0.00002  -0.00005   0.00002
 166 6   F  1S          0.00001  -0.00001  -0.00144  -0.01041  -0.04976
 167        2S          0.00000   0.00000   0.00020   0.00043   0.00080
 168        3S          0.00000   0.00000  -0.00007  -0.00045  -0.00202
 169        4S         -0.00001   0.00001  -0.00055  -0.00105   0.00056
 170        5S         -0.00002   0.00002   0.00010  -0.00168   0.00178
 171        6PX         0.00003  -0.00003   0.00000   0.00001   0.00000
 172        6PY        -0.00003  -0.00003   0.00000   0.00000   0.00000
 173        6PZ         0.00000   0.00000   0.00058   0.00111   0.00011
 174        7PX         0.00001   0.00000   0.00000   0.00001   0.00000
 175        7PY        -0.00001   0.00000   0.00000   0.00000   0.00000
 176        7PZ         0.00000   0.00000   0.00069   0.00132   0.00002
 177        8PX         0.00017  -0.00017   0.00000   0.00000   0.00000
 178        8PY        -0.00017  -0.00018   0.00000   0.00000   0.00000
 179        8PZ        -0.00001   0.00001   0.00008   0.00017   0.00048
 180        9PX         0.00025  -0.00025   0.00000   0.00000   0.00000
 181        9PY        -0.00025  -0.00025   0.00000   0.00000   0.00000
 182        9PZ        -0.00001   0.00001   0.00017  -0.00009   0.00071
 183       10D 0        0.00000   0.00000   0.00001   0.00001  -0.00002
 184       10D+1        0.00000   0.00000   0.00000   0.00000   0.00000
 185       10D-1        0.00000   0.00000   0.00000   0.00000   0.00000
 186       10D+2        0.00000   0.00000   0.00000   0.00000   0.00000
 187       10D-2        0.00000   0.00000   0.00000   0.00000   0.00000
 188       11D 0        0.00000   0.00000  -0.00003  -0.00010   0.00001
 189       11D+1       -0.00003   0.00003   0.00000   0.00000   0.00000
 190       11D-1        0.00003   0.00003   0.00000   0.00000   0.00000
 191       11D+2       -0.00002  -0.00002   0.00000   0.00000   0.00000
 192       11D-2        0.00002  -0.00002   0.00000   0.00000   0.00000
 193       12D 0        0.00000   0.00000  -0.00019  -0.00012   0.00011
 194       12D+1        0.00016  -0.00016   0.00000  -0.00001   0.00000
 195       12D-1       -0.00016  -0.00016   0.00000   0.00000   0.00000
 196       12D+2        0.00008   0.00008   0.00000   0.00000   0.00000
 197       12D-2       -0.00008   0.00008   0.00000   0.00000   0.00000
 198       13F 0        0.00000   0.00000   0.00001  -0.00001  -0.00004
 199       13F+1       -0.00001   0.00001   0.00000   0.00000   0.00000
 200       13F-1        0.00001   0.00001   0.00000   0.00000   0.00000
 201       13F+2       -0.00001  -0.00001   0.00000   0.00000   0.00000
 202       13F-2        0.00001  -0.00001   0.00000   0.00000   0.00000
 203       13F+3        0.00000   0.00000   0.00000   0.00000   0.00000
 204       13F-3        0.00000   0.00000   0.00000   0.00000   0.00000
 205       14F 0        0.00000   0.00000  -0.00004   0.00002   0.00013
 206       14F+1        0.00004  -0.00004   0.00000   0.00000   0.00000
 207       14F-1       -0.00004  -0.00004   0.00000   0.00000   0.00000
 208       14F+2        0.00003   0.00003   0.00000   0.00000   0.00000
 209       14F-2       -0.00003   0.00003   0.00000   0.00000   0.00000
 210       14F+3        0.00000   0.00000   0.00000   0.00000   0.00000
 211       14F-3        0.00000   0.00000   0.00000   0.00000  -0.00001
                           6         7         8         9        10
     Eigenvalues --     2.00000   2.00000   1.98361   1.97543   1.96949
   1 1   C  1S          0.05039  -0.00046   0.01542  -0.07338  -0.14372
   2        2S         -0.00012  -0.00001  -0.04201   0.19911   0.39727
   3        3S          0.00230  -0.00003  -0.01040   0.04620   0.09614
   4        4S         -0.00699   0.00016   0.00556   0.07906   0.19079
   5        5S         -0.00016   0.00010   0.00785  -0.00690  -0.02889
   6        6PX         0.00000   0.00000   0.00008   0.00000  -0.00008
   7        6PY         0.00000   0.00000   0.00000   0.00000  -0.00001
   8        6PZ         0.00004   0.00000   0.00646   0.01034  -0.02723
   9        7PX        -0.00001   0.00000   0.00013   0.00001  -0.00011
  10        7PY         0.00000   0.00000   0.00000   0.00001  -0.00001
  11        7PZ        -0.00075   0.00000   0.00706   0.01790  -0.03246
  12        8PX         0.00001   0.00000   0.00020   0.00000  -0.00011
  13        8PY         0.00000   0.00000   0.00001   0.00000  -0.00001
  14        8PZ         0.00519   0.00009   0.01660   0.00589  -0.02271
  15        9PX         0.00000   0.00000   0.00000   0.00000   0.00002
  16        9PY         0.00000   0.00000   0.00000   0.00000   0.00000
  17        9PZ         0.00011   0.00001  -0.00071   0.00033  -0.00407
  18       10D 0        0.00004   0.00000   0.00051  -0.00214  -0.00956
  19       10D+1        0.00000   0.00000   0.00000   0.00000   0.00000
  20       10D-1        0.00000   0.00000   0.00000   0.00000  -0.00001
  21       10D+2        0.00000   0.00000   0.00000   0.00000   0.00000
  22       10D-2        0.00000   0.00000   0.00000   0.00000   0.00000
  23       11D 0       -0.00023  -0.00002  -0.00529   0.00462  -0.01876
  24       11D+1       -0.00001   0.00000  -0.00011   0.00001   0.00005
  25       11D-1        0.00000   0.00000   0.00000   0.00000  -0.00001
  26       11D+2        0.00000   0.00000   0.00000   0.00000   0.00000
  27       11D-2       -0.00001   0.00000   0.00006  -0.00001  -0.00006
  28       12D 0        0.00027   0.00008   0.00206  -0.00841  -0.01668
  29       12D+1       -0.00001   0.00000  -0.00001  -0.00005  -0.00006
  30       12D-1        0.00000   0.00000   0.00000  -0.00001  -0.00001
  31       12D+2        0.00000   0.00000   0.00000   0.00000   0.00000
  32       12D-2       -0.00001   0.00000   0.00005  -0.00003  -0.00011
  33       13F 0       -0.00007   0.00000   0.00000   0.00242   0.00064
  34       13F+1        0.00000   0.00000   0.00001   0.00000  -0.00001
  35       13F-1        0.00000   0.00000   0.00000   0.00000   0.00000
  36       13F+2        0.00000   0.00000   0.00000   0.00000   0.00000
  37       13F-2        0.00000   0.00000  -0.00001   0.00000   0.00000
  38       13F+3        0.00000   0.00000   0.00000   0.00000   0.00000
  39       13F-3        0.00001   0.00000  -0.00014   0.00194   0.00397
  40       14F 0        0.00127  -0.00001   0.00471   0.00261  -0.00198
  41       14F+1        0.00001   0.00000   0.00005   0.00000  -0.00001
  42       14F-1        0.00000   0.00000   0.00001   0.00000   0.00000
  43       14F+2        0.00000   0.00000   0.00000   0.00000   0.00000
  44       14F-2        0.00000   0.00000  -0.00005   0.00001   0.00003
  45       14F+3        0.00000   0.00000   0.00000   0.00000   0.00000
  46       14F-3       -0.00044   0.00003   0.00187  -0.00100   0.00404
  47 2   H  1S         -0.00008   0.00000  -0.00858   0.03717   0.08052
  48        2S          0.00098  -0.00006  -0.01531   0.04377   0.08371
  49        3S          0.00181   0.00004  -0.00090  -0.00491  -0.01204
  50        4S          0.00003   0.00000  -0.00047   0.00051   0.00039
  51        5PX         0.00000   0.00000   0.00000   0.00000   0.00000
  52        5PY         0.00001   0.00000  -0.00109   0.00399   0.00863
  53        5PZ        -0.00004   0.00000   0.00028   0.00095   0.00034
  54        6PX         0.00000   0.00000   0.00002   0.00000  -0.00001
  55        6PY         0.00008   0.00000  -0.00073   0.00080   0.00121
  56        6PZ         0.00032  -0.00001   0.00008   0.00243  -0.00051
  57        7PX        -0.00001   0.00000   0.00001  -0.00002  -0.00006
  58        7PY         0.00043   0.00001   0.00135  -0.00496  -0.01033
  59        7PZ        -0.00055   0.00001  -0.00280  -0.00173  -0.00131
  60        8D 0        0.00006   0.00000   0.00014  -0.00035  -0.00091
  61        8D+1        0.00000   0.00000   0.00000   0.00000   0.00000
  62        8D-1       -0.00001   0.00000  -0.00015   0.00049   0.00023
  63        8D+2       -0.00002   0.00000   0.00003  -0.00054  -0.00137
  64        8D-2        0.00000   0.00000   0.00000   0.00000   0.00000
  65        9D 0        0.00009  -0.00001  -0.00006   0.00122   0.00101
  66        9D+1        0.00000   0.00000   0.00000   0.00000   0.00000
  67        9D-1        0.00014   0.00000  -0.00006   0.00004  -0.00038
  68        9D+2        0.00004   0.00000  -0.00098   0.00225   0.00415
  69        9D-2        0.00000   0.00000   0.00001   0.00000  -0.00001
  70 3   H  1S         -0.00008   0.00000  -0.00863   0.03717   0.08056
  71        2S          0.00096  -0.00006  -0.01528   0.04376   0.08367
  72        3S          0.00179   0.00004  -0.00072  -0.00497  -0.01228
  73        4S          0.00003   0.00000  -0.00046   0.00052   0.00041
  74        5PX         0.00001   0.00000  -0.00094   0.00345   0.00748
  75        5PY        -0.00001   0.00000   0.00055  -0.00199  -0.00432
  76        5PZ        -0.00004   0.00000   0.00028   0.00096   0.00035
  77        6PX         0.00006   0.00000  -0.00060   0.00069   0.00103
  78        6PY        -0.00004   0.00000   0.00036  -0.00040  -0.00060
  79        6PZ         0.00032  -0.00001   0.00002   0.00244  -0.00046
  80        7PX         0.00037   0.00001   0.00120  -0.00431  -0.00897
  81        7PY        -0.00022   0.00000  -0.00069   0.00248   0.00515
  82        7PZ        -0.00056   0.00001  -0.00283  -0.00174  -0.00132
  83        8D 0        0.00006   0.00000   0.00014  -0.00035  -0.00091
  84        8D+1       -0.00001   0.00000  -0.00013   0.00043   0.00021
  85        8D-1        0.00000   0.00000   0.00008  -0.00025  -0.00012
  86        8D+2        0.00001   0.00000  -0.00002   0.00027   0.00068
  87        8D-2       -0.00001   0.00000   0.00003  -0.00047  -0.00119
  88        9D 0        0.00008  -0.00001  -0.00006   0.00122   0.00100
  89        9D+1        0.00012   0.00000  -0.00007   0.00004  -0.00032
  90        9D-1       -0.00007   0.00000   0.00004  -0.00002   0.00018
  91        9D+2       -0.00002   0.00000   0.00050  -0.00113  -0.00208
  92        9D-2        0.00003   0.00000  -0.00085   0.00195   0.00360
  93 4   H  1S         -0.00008   0.00000  -0.00852   0.03718   0.08049
  94        2S          0.00099  -0.00006  -0.01534   0.04379   0.08375
  95        3S          0.00182   0.00004  -0.00108  -0.00484  -0.01180
  96        4S          0.00003   0.00000  -0.00048   0.00050   0.00037
  97        5PX        -0.00001   0.00000   0.00094  -0.00346  -0.00747
  98        5PY        -0.00001   0.00000   0.00054  -0.00199  -0.00431
  99        5PZ        -0.00004   0.00000   0.00027   0.00096   0.00035
 100        6PX        -0.00007   0.00000   0.00067  -0.00070  -0.00107
 101        6PY        -0.00004   0.00000   0.00037  -0.00040  -0.00061
 102        6PZ         0.00032  -0.00001   0.00014   0.00241  -0.00057
 103        7PX        -0.00038  -0.00001  -0.00114   0.00428   0.00892
 104        7PY        -0.00021   0.00000  -0.00067   0.00248   0.00518
 105        7PZ        -0.00054   0.00001  -0.00278  -0.00173  -0.00132
 106        8D 0        0.00006   0.00000   0.00014  -0.00035  -0.00091
 107        8D+1        0.00001   0.00000   0.00012  -0.00043  -0.00020
 108        8D-1        0.00000   0.00000   0.00007  -0.00025  -0.00012
 109        8D+2        0.00001   0.00000  -0.00002   0.00027   0.00069
 110        8D-2        0.00001   0.00000  -0.00003   0.00047   0.00119
 111        9D 0        0.00009  -0.00001  -0.00006   0.00123   0.00102
 112        9D+1       -0.00012   0.00000   0.00003  -0.00003   0.00034
 113        9D-1       -0.00007   0.00000   0.00002  -0.00002   0.00020
 114        9D+2       -0.00002   0.00000   0.00049  -0.00113  -0.00207
 115        9D-2       -0.00003   0.00000   0.00085  -0.00195  -0.00360
 116 5   Cl 1S          0.00007   0.99708  -0.00064   0.06648  -0.03479
 117        2S         -0.00007   0.01040   0.00292  -0.25193   0.13076
 118        3S          0.00005   0.00017  -0.00391   0.52471  -0.27822
 119        4S          0.00008   0.00026  -0.00025   0.06428  -0.03748
 120        5S         -0.00181  -0.00020  -0.01230   0.35096  -0.17055
 121        6S         -0.00050  -0.00011  -0.00461   0.02452   0.01130
 122        7PX         0.00001   0.00000   0.00000   0.00000   0.00001
 123        7PY         0.00000   0.00000   0.00000   0.00000   0.00001
 124        7PZ         0.00733   0.00016   0.00152   0.00459   0.02880
 125        8PX         0.00000   0.00000   0.00000  -0.00001  -0.00003
 126        8PY         0.00000   0.00000   0.00000   0.00000  -0.00003
 127        8PZ         0.00051  -0.00003  -0.00227  -0.00602  -0.07208
 128        9PX         0.00000   0.00000   0.00000   0.00000  -0.00001
 129        9PY         0.00000   0.00000   0.00000   0.00000  -0.00001
 130        9PZ         0.00032   0.00003  -0.00264   0.00068  -0.03141
 131       10PX         0.00000   0.00000  -0.00003   0.00002   0.00001
 132       10PY         0.00000   0.00000   0.00000   0.00000  -0.00002
 133       10PZ         0.00096   0.00015   0.00271   0.00302  -0.05237
 134       11PX         0.00000   0.00000   0.00000   0.00001   0.00000
 135       11PY         0.00000   0.00000   0.00000   0.00000   0.00000
 136       11PZ         0.00002   0.00002  -0.00040   0.00263  -0.00875
 137       12D 0       -0.00003   0.00001  -0.00035   0.00449   0.00453
 138       12D+1        0.00000   0.00000   0.00000   0.00000   0.00000
 139       12D-1        0.00000   0.00000   0.00000   0.00000   0.00000
 140       12D+2        0.00000   0.00000   0.00000   0.00000   0.00000
 141       12D-2        0.00000   0.00000   0.00000   0.00000   0.00000
 142       13D 0       -0.00022   0.00000  -0.00163   0.00820   0.00969
 143       13D+1        0.00000   0.00000   0.00000   0.00000   0.00001
 144       13D-1        0.00000   0.00000   0.00000   0.00001   0.00001
 145       13D+2        0.00000   0.00000   0.00000   0.00000   0.00000
 146       13D-2        0.00000   0.00000   0.00000   0.00000   0.00000
 147       14D 0       -0.00014  -0.00004  -0.00184  -0.00018   0.00539
 148       14D+1        0.00000   0.00000   0.00001  -0.00001  -0.00002
 149       14D-1        0.00000   0.00000   0.00000   0.00000   0.00000
 150       14D+2        0.00000   0.00000   0.00000   0.00000   0.00000
 151       14D-2        0.00000   0.00000   0.00000   0.00000   0.00000
 152       15F 0        0.00005   0.00000   0.00023  -0.00180  -0.00192
 153       15F+1        0.00000   0.00000   0.00000   0.00000   0.00000
 154       15F-1        0.00000   0.00000   0.00000   0.00000   0.00000
 155       15F+2        0.00000   0.00000   0.00000   0.00000   0.00000
 156       15F-2        0.00000   0.00000   0.00000   0.00000   0.00000
 157       15F+3        0.00000   0.00000   0.00000   0.00000   0.00000
 158       15F-3       -0.00001   0.00000  -0.00001   0.00002   0.00009
 159       16F 0       -0.00005   0.00001   0.00005  -0.00093  -0.00171
 160       16F+1        0.00000   0.00000  -0.00001   0.00000   0.00000
 161       16F-1        0.00000   0.00000   0.00000   0.00000   0.00000
 162       16F+2        0.00000   0.00000   0.00000   0.00000   0.00000
 163       16F-2        0.00000   0.00000  -0.00001   0.00000   0.00001
 164       16F+3        0.00000   0.00000   0.00000   0.00000   0.00000
 165       16F-3        0.00003   0.00000   0.00002  -0.00001  -0.00021
 166 6   F  1S          0.97743  -0.00002   0.21189   0.01315   0.02162
 167        2S         -0.01503   0.00000  -0.53161  -0.03405  -0.05732
 168        3S          0.04206   0.00000  -0.16471  -0.01081  -0.01853
 169        4S          0.00193  -0.00001  -0.36876  -0.02363  -0.04391
 170        5S         -0.00084  -0.00006  -0.04529   0.00420   0.00781
 171        6PX         0.00000   0.00000   0.00015  -0.00001  -0.00012
 172        6PY         0.00000   0.00000   0.00001   0.00001   0.00004
 173        6PZ         0.00048   0.00000   0.01352   0.01270   0.08750
 174        7PX         0.00000   0.00000   0.00018  -0.00001  -0.00014
 175        7PY         0.00000   0.00000   0.00001   0.00001   0.00005
 176        7PZ        -0.00012   0.00000   0.01475   0.01551   0.10528
 177        8PX         0.00001   0.00000   0.00015   0.00001  -0.00010
 178        8PY         0.00000   0.00000   0.00001   0.00001   0.00004
 179        8PZ         0.00240  -0.00001   0.01247   0.01225   0.08373
 180        9PX         0.00000   0.00000   0.00004   0.00001  -0.00004
 181        9PY         0.00000   0.00000   0.00000   0.00000   0.00001
 182        9PZ        -0.00008  -0.00002   0.00220   0.00315   0.02424
 183       10D 0       -0.00002   0.00000  -0.00013   0.00017   0.00060
 184       10D+1        0.00000   0.00000   0.00000   0.00000   0.00000
 185       10D-1        0.00000   0.00000   0.00000   0.00000   0.00000
 186       10D+2        0.00000   0.00000   0.00000   0.00000   0.00000
 187       10D-2        0.00000   0.00000   0.00000   0.00000   0.00000
 188       11D 0       -0.00003   0.00000  -0.00104   0.00091   0.00275
 189       11D+1        0.00000   0.00000  -0.00001   0.00001   0.00002
 190       11D-1        0.00000   0.00000   0.00000   0.00000   0.00000
 191       11D+2        0.00000   0.00000   0.00000   0.00000   0.00000
 192       11D-2        0.00000   0.00000   0.00000   0.00000   0.00000
 193       12D 0        0.00080   0.00000  -0.00055   0.00035   0.00386
 194       12D+1        0.00001   0.00000   0.00000   0.00001   0.00004
 195       12D-1        0.00000   0.00000   0.00000   0.00000   0.00000
 196       12D+2        0.00000   0.00000   0.00000   0.00000   0.00000
 197       12D-2        0.00000   0.00000   0.00000   0.00000   0.00000
 198       13F 0       -0.00006   0.00000  -0.00002   0.00013   0.00027
 199       13F+1        0.00000   0.00000   0.00000   0.00000   0.00000
 200       13F-1        0.00000   0.00000   0.00000   0.00000   0.00000
 201       13F+2        0.00000   0.00000   0.00000   0.00000   0.00000
 202       13F-2        0.00000   0.00000   0.00000   0.00000   0.00000
 203       13F+3        0.00000   0.00000   0.00000   0.00000   0.00000
 204       13F-3        0.00001   0.00000   0.00001   0.00002   0.00003
 205       14F 0        0.00020   0.00000  -0.00040  -0.00006   0.00063
 206       14F+1        0.00000   0.00000  -0.00001   0.00000   0.00001
 207       14F-1        0.00000   0.00000   0.00000   0.00000   0.00000
 208       14F+2        0.00000   0.00000   0.00000   0.00000   0.00000
 209       14F-2        0.00000   0.00000   0.00000   0.00000   0.00000
 210       14F+3        0.00000   0.00000   0.00000   0.00000   0.00000
 211       14F-3       -0.00001   0.00000  -0.00007  -0.00006  -0.00009
                          11        12        13        14        15
     Eigenvalues --     1.96437   1.96436   1.95924   1.95923   1.94911
   1 1   C  1S          0.00027  -0.00027   0.00003  -0.00003  -0.00113
   2        2S         -0.00076   0.00077  -0.00011   0.00010   0.00321
   3        3S         -0.00020   0.00020  -0.00005   0.00005   0.00075
   4        4S          0.00016  -0.00016   0.00075  -0.00074   0.00643
   5        5S          0.00001  -0.00001  -0.00006   0.00006   0.00127
   6        6PX        -0.06910   0.06928   0.16356  -0.16318   0.05378
   7        6PY         0.06946   0.06891   0.16322   0.16353   0.04151
   8        6PZ         0.00001  -0.00007  -0.00015   0.00000   0.00094
   9        7PX        -0.09257   0.09283   0.21679  -0.21630   0.07475
  10        7PY         0.09305   0.09234   0.21633   0.21675   0.05769
  11        7PZ         0.00002  -0.00010  -0.00023   0.00004   0.00135
  12        8PX        -0.06786   0.06786   0.16730  -0.16703   0.05747
  13        8PY         0.06821   0.06751   0.16695   0.16738   0.04433
  14        8PZ        -0.00006   0.00000  -0.00006  -0.00009   0.00125
  15        9PX         0.00154  -0.00156   0.01340  -0.01340   0.00969
  16        9PY        -0.00154  -0.00155   0.01337   0.01343   0.00748
  17        9PZ         0.00001  -0.00001   0.00000  -0.00001   0.00001
  18       10D 0        0.00002  -0.00001  -0.00001   0.00001  -0.00020
  19       10D+1        0.00191  -0.00192  -0.00091   0.00090  -0.00296
  20       10D-1       -0.00191  -0.00191  -0.00090  -0.00089  -0.00228
  21       10D+2        0.00443   0.00439   0.01049   0.01047   0.00307
  22       10D-2       -0.00441   0.00441   0.01050  -0.01046   0.00398
  23       11D 0       -0.00002   0.00004  -0.00013   0.00012  -0.00108
  24       11D+1        0.00898  -0.00903   0.00538  -0.00540  -0.01226
  25       11D-1       -0.00902  -0.00897   0.00540   0.00544  -0.00945
  26       11D+2        0.01473   0.01447   0.03210   0.03201   0.01044
  27       11D-2       -0.01465   0.01453   0.03215  -0.03197   0.01351
  28       12D 0        0.00004  -0.00003  -0.00009   0.00008  -0.00059
  29       12D+1        0.00425  -0.00437   0.00403  -0.00399   0.00096
  30       12D-1       -0.00426  -0.00434   0.00405   0.00402   0.00076
  31       12D+2        0.01433   0.01407   0.02551   0.02539   0.00620
  32       12D-2       -0.01426   0.01413   0.02555  -0.02536   0.00802
  33       13F 0        0.00001  -0.00001   0.00000   0.00000   0.00005
  34       13F+1       -0.00017   0.00018  -0.00142   0.00142  -0.00177
  35       13F-1        0.00017   0.00018  -0.00142  -0.00142  -0.00136
  36       13F+2       -0.00046  -0.00045  -0.00009  -0.00008  -0.00020
  37       13F-2        0.00046  -0.00045  -0.00009   0.00008  -0.00026
  38       13F+3        0.00000   0.00000   0.00000   0.00000   0.00000
  39       13F-3       -0.00001   0.00001   0.00001  -0.00001   0.00007
  40       14F 0       -0.00002   0.00002   0.00005  -0.00004   0.00012
  41       14F+1       -0.00027   0.00027  -0.00413   0.00412  -0.00574
  42       14F-1        0.00027   0.00027  -0.00412  -0.00412  -0.00444
  43       14F+2       -0.00276  -0.00270  -0.00009  -0.00008  -0.00199
  44       14F-2        0.00275  -0.00271  -0.00010   0.00009  -0.00258
  45       14F+3        0.00000   0.00000   0.00000   0.00000   0.00000
  46       14F-3        0.00006  -0.00006   0.00007  -0.00007   0.00034
  47 2   H  1S         -0.04793  -0.04726  -0.10711  -0.10724  -0.02786
  48        2S         -0.04335  -0.04252  -0.10931  -0.10910  -0.02815
  49        3S          0.04110   0.04079   0.08412   0.08464   0.00268
  50        4S         -0.00409  -0.00408   0.01227   0.01231   0.00065
  51        5PX        -0.00147   0.00148   0.00309  -0.00309   0.00084
  52        5PY        -0.00376  -0.00371  -0.00876  -0.00876  -0.00216
  53        5PZ         0.00002   0.00002  -0.00198  -0.00198   0.00017
  54        6PX        -0.00569   0.00567   0.00963  -0.00964   0.00296
  55        6PY         0.00509   0.00510   0.00791   0.00799   0.00329
  56        6PZ        -0.00200  -0.00193   0.00027   0.00028  -0.00070
  57        7PX        -0.00658   0.00651   0.00948  -0.00941   0.00224
  58        7PY         0.00997   0.00992   0.03214   0.03236   0.00567
  59        7PZ         0.00050   0.00042   0.00537   0.00537   0.00164
  60        8D 0        0.00029   0.00029   0.00096   0.00096   0.00024
  61        8D+1       -0.00001   0.00001   0.00022  -0.00022  -0.00002
  62        8D-1       -0.00053  -0.00053  -0.00017  -0.00017  -0.00017
  63        8D+2        0.00043   0.00042   0.00136   0.00136   0.00031
  64        8D-2       -0.00075   0.00074   0.00159  -0.00158   0.00047
  65        9D 0       -0.00041  -0.00036   0.00103   0.00104  -0.00011
  66        9D+1        0.00109  -0.00108   0.00071  -0.00069  -0.00093
  67        9D-1       -0.00236  -0.00235   0.00241   0.00242  -0.00033
  68        9D+2       -0.00114  -0.00114  -0.00188  -0.00189  -0.00068
  69        9D-2       -0.00118   0.00115   0.00205  -0.00202   0.00089
  70 3   H  1S          0.06496  -0.01742  -0.03936   0.14627  -0.01705
  71        2S          0.05839  -0.01557  -0.04027   0.14917  -0.01747
  72        3S         -0.05628   0.01519   0.03084  -0.11517   0.00152
  73        4S          0.00556  -0.00151   0.00451  -0.01681   0.00040
  74        5PX         0.00467  -0.00017  -0.00068   0.01093  -0.00066
  75        5PY        -0.00207   0.00243   0.00526  -0.00500   0.00151
  76        5PZ        -0.00003   0.00001  -0.00073   0.00271   0.00012
  77        6PX        -0.00500   0.00551   0.00908  -0.00758   0.00346
  78        6PY         0.00533   0.00573   0.00995   0.00848   0.00200
  79        6PZ         0.00266  -0.00070   0.00008  -0.00034  -0.00044
  80        7PX        -0.01058   0.00763   0.01668  -0.03639   0.00429
  81        7PY         0.00893   0.00584   0.00532   0.02502   0.00056
  82        7PZ        -0.00073   0.00016   0.00196  -0.00729   0.00093
  83        8D 0       -0.00040   0.00011   0.00035  -0.00132   0.00015
  84        8D+1        0.00063  -0.00016   0.00010   0.00024  -0.00011
  85        8D-1       -0.00036   0.00011   0.00030  -0.00005   0.00003
  86        8D+2        0.00053   0.00080   0.00163   0.00143   0.00039
  87        8D-2       -0.00037   0.00064   0.00152  -0.00132   0.00044
  88        9D 0        0.00048  -0.00011   0.00037  -0.00140  -0.00008
  89        9D+1        0.00258  -0.00149   0.00126  -0.00275  -0.00074
  90        9D-1       -0.00196  -0.00085   0.00039   0.00188  -0.00083
  91        9D+2       -0.00039   0.00156   0.00276  -0.00065   0.00112
  92        9D-2        0.00155   0.00042   0.00079   0.00261   0.00015
  93 4   H  1S         -0.01742   0.06508   0.14653  -0.03909   0.04708
  94        2S         -0.01586   0.05892   0.14917  -0.03967   0.04568
  95        3S          0.01478  -0.05558  -0.11537   0.03093  -0.00572
  96        4S         -0.00149   0.00561  -0.01677   0.00449  -0.00109
  97        5PX         0.00018  -0.00470  -0.01093   0.00065  -0.00320
  98        5PY         0.00243  -0.00210  -0.00501   0.00525  -0.00168
  99        5PZ         0.00000  -0.00002   0.00270  -0.00072  -0.00012
 100        6PX        -0.00548   0.00497   0.00769  -0.00912   0.00468
 101        6PY         0.00584   0.00524   0.00849   0.00994   0.00327
 102        6PZ        -0.00074   0.00270  -0.00044   0.00012   0.00116
 103        7PX        -0.00762   0.01055   0.03645  -0.01667   0.00834
 104        7PY         0.00601   0.00881   0.02502   0.00523   0.00525
 105        7PZ         0.00017  -0.00055  -0.00743   0.00197  -0.00316
 106        8D 0        0.00011  -0.00039  -0.00131   0.00035  -0.00040
 107        8D+1        0.00016  -0.00063  -0.00024  -0.00010  -0.00025
 108        8D-1        0.00011  -0.00036  -0.00005   0.00030  -0.00015
 109        8D+2        0.00081   0.00052   0.00143   0.00163   0.00033
 110        8D-2       -0.00065   0.00037   0.00132  -0.00151   0.00042
 111        9D 0       -0.00017   0.00057  -0.00144   0.00039   0.00013
 112        9D+1        0.00149  -0.00259   0.00271  -0.00124  -0.00028
 113        9D-1       -0.00086  -0.00195   0.00187   0.00039  -0.00035
 114        9D+2        0.00161  -0.00043  -0.00064   0.00274  -0.00039
 115        9D-2       -0.00045  -0.00157  -0.00259  -0.00079  -0.00098
 116 5   Cl 1S          0.00004  -0.00004   0.00000   0.00000  -0.00022
 117        2S         -0.00016   0.00016   0.00000   0.00000   0.00083
 118        3S          0.00034  -0.00035   0.00001  -0.00001  -0.00170
 119        4S          0.00005  -0.00005   0.00000   0.00000  -0.00026
 120        5S          0.00023  -0.00023  -0.00002   0.00002  -0.00143
 121        6S          0.00004  -0.00004   0.00003  -0.00003  -0.00046
 122        7PX         0.00621  -0.00623  -0.03085   0.03082   0.17695
 123        7PY        -0.00625  -0.00620  -0.03078  -0.03088   0.13659
 124        7PZ        -0.00002   0.00003  -0.00005   0.00007  -0.00060
 125        8PX        -0.01472   0.01476   0.07289  -0.07282  -0.40481
 126        8PY         0.01479   0.01468   0.07274   0.07297  -0.31248
 127        8PZ         0.00005  -0.00006   0.00012  -0.00018   0.00140
 128        9PX        -0.00683   0.00685   0.03371  -0.03368  -0.19555
 129        9PY         0.00686   0.00681   0.03364   0.03375  -0.15095
 130        9PZ         0.00002  -0.00003   0.00005  -0.00008   0.00070
 131       10PX        -0.00733   0.00738   0.03945  -0.03943  -0.29099
 132       10PY         0.00736   0.00734   0.03937   0.03951  -0.22462
 133       10PZ        -0.00001   0.00001   0.00010  -0.00013   0.00158
 134       11PX        -0.00150   0.00150   0.00240  -0.00239  -0.04918
 135       11PY         0.00151   0.00149   0.00239   0.00240  -0.03797
 136       11PZ        -0.00002   0.00002  -0.00001   0.00000   0.00052
 137       12D 0       -0.00001   0.00001   0.00000   0.00001   0.00010
 138       12D+1        0.00133  -0.00134  -0.00438   0.00437   0.00018
 139       12D-1       -0.00134  -0.00133  -0.00437  -0.00438   0.00014
 140       12D+2        0.00008   0.00008   0.00039   0.00039   0.00015
 141       12D-2       -0.00008   0.00008   0.00038  -0.00038   0.00019
 142       13D 0       -0.00001   0.00002  -0.00001   0.00002   0.00016
 143       13D+1        0.00205  -0.00206  -0.00775   0.00774   0.00054
 144       13D-1       -0.00206  -0.00205  -0.00774  -0.00776   0.00042
 145       13D+2        0.00023   0.00023   0.00046   0.00046   0.00034
 146       13D-2       -0.00023   0.00023   0.00045  -0.00045   0.00044
 147       14D 0       -0.00001   0.00001  -0.00002   0.00002  -0.00003
 148       14D+1       -0.00005   0.00004   0.00003  -0.00003   0.00266
 149       14D-1        0.00005   0.00004   0.00003   0.00003   0.00205
 150       14D+2       -0.00046  -0.00047  -0.00005  -0.00005   0.00003
 151       14D-2        0.00046  -0.00047  -0.00005   0.00005   0.00004
 152       15F 0        0.00000   0.00000   0.00000   0.00000  -0.00002
 153       15F+1       -0.00062   0.00063   0.00186  -0.00186  -0.00111
 154       15F-1        0.00063   0.00062   0.00185   0.00186  -0.00086
 155       15F+2       -0.00008  -0.00008  -0.00024  -0.00024  -0.00006
 156       15F-2        0.00008  -0.00008  -0.00024   0.00024  -0.00008
 157       15F+3        0.00000   0.00000   0.00000   0.00000   0.00000
 158       15F-3        0.00000   0.00000   0.00000   0.00000   0.00000
 159       16F 0        0.00000   0.00000   0.00000  -0.00001  -0.00003
 160       16F+1       -0.00042   0.00042   0.00142  -0.00142  -0.00142
 161       16F-1        0.00042   0.00042   0.00142   0.00142  -0.00110
 162       16F+2        0.00001   0.00001   0.00013   0.00013  -0.00012
 163       16F-2       -0.00001   0.00001   0.00013  -0.00013  -0.00016
 164       16F+3        0.00000   0.00000   0.00000   0.00000   0.00000
 165       16F-3        0.00000   0.00000   0.00000   0.00000   0.00000
 166 6   F  1S          0.00003  -0.00003  -0.00007   0.00007   0.00022
 167        2S         -0.00006   0.00006   0.00018  -0.00018  -0.00048
 168        3S         -0.00002   0.00002   0.00006  -0.00006  -0.00014
 169        4S         -0.00010   0.00010   0.00023  -0.00023  -0.00029
 170        5S         -0.00006   0.00006   0.00018  -0.00018  -0.00012
 171        6PX        -0.23420   0.23560  -0.11448   0.11458  -0.01793
 172        6PY         0.23543   0.23437  -0.11424  -0.11482  -0.01378
 173        6PZ         0.00158  -0.00181   0.00041  -0.00031  -0.00740
 174        7PX        -0.27937   0.28104  -0.13574   0.13586  -0.02122
 175        7PY         0.28084   0.27958  -0.13546  -0.13615  -0.01631
 176        7PZ         0.00188  -0.00216   0.00047  -0.00035  -0.00882
 177        8PX        -0.22586   0.22722  -0.11417   0.11430  -0.01817
 178        8PY         0.22705   0.22604  -0.11393  -0.11454  -0.01396
 179        8PZ         0.00148  -0.00170   0.00050  -0.00040  -0.00727
 180        9PX        -0.07099   0.07143  -0.04026   0.04031  -0.00883
 181        9PY         0.07137   0.07106  -0.04018  -0.04039  -0.00680
 182        9PZ         0.00046  -0.00053   0.00025  -0.00021  -0.00225
 183       10D 0        0.00001  -0.00001   0.00000   0.00000  -0.00002
 184       10D+1       -0.00043   0.00043   0.00006  -0.00007   0.00009
 185       10D-1        0.00043   0.00042   0.00006   0.00007   0.00007
 186       10D+2        0.00001   0.00002   0.00003   0.00003   0.00001
 187       10D-2       -0.00001   0.00002   0.00003  -0.00003   0.00001
 188       11D 0        0.00001  -0.00001  -0.00002   0.00001  -0.00005
 189       11D+1       -0.00171   0.00172   0.00086  -0.00086   0.00047
 190       11D-1        0.00172   0.00171   0.00086   0.00086   0.00036
 191       11D+2        0.00003   0.00004   0.00018   0.00017   0.00011
 192       11D-2       -0.00003   0.00004   0.00018  -0.00017   0.00014
 193       12D 0        0.00003  -0.00004   0.00003  -0.00002  -0.00022
 194       12D+1       -0.00418   0.00421  -0.00251   0.00252   0.00025
 195       12D-1        0.00420   0.00419  -0.00250  -0.00253   0.00020
 196       12D+2        0.00001   0.00004  -0.00021  -0.00018  -0.00022
 197       12D-2       -0.00001   0.00004  -0.00021   0.00019  -0.00029
 198       13F 0        0.00000   0.00000   0.00000   0.00000  -0.00001
 199       13F+1       -0.00016   0.00015   0.00018  -0.00018   0.00005
 200       13F-1        0.00016   0.00015   0.00018   0.00018   0.00004
 201       13F+2        0.00004   0.00004   0.00008   0.00008   0.00004
 202       13F-2       -0.00004   0.00004   0.00008  -0.00008   0.00005
 203       13F+3        0.00000   0.00000   0.00000   0.00000   0.00000
 204       13F-3        0.00000   0.00000   0.00000   0.00000   0.00000
 205       14F 0        0.00001  -0.00001   0.00001  -0.00001  -0.00004
 206       14F+1       -0.00102   0.00104  -0.00061   0.00062   0.00001
 207       14F-1        0.00103   0.00103  -0.00061  -0.00062   0.00001
 208       14F+2       -0.00010  -0.00009  -0.00017  -0.00016  -0.00010
 209       14F-2        0.00010  -0.00008  -0.00017   0.00017  -0.00013
 210       14F+3        0.00000   0.00000   0.00000   0.00000   0.00000
 211       14F-3        0.00000   0.00000   0.00000   0.00000   0.00000
                          16        17        18        19        20
     Eigenvalues --     1.94911   1.94879   1.93535   0.06018   0.02495
   1 1   C  1S         -0.00087   0.05332  -0.01580  -0.02406   0.00054
   2        2S          0.00247  -0.15180   0.05098   0.06679  -0.00204
   3        3S          0.00058  -0.03583   0.01676   0.02431  -0.00120
   4        4S          0.00495  -0.29219   0.08713  -0.22169   0.00498
   5        5S          0.00098  -0.05762   0.03919  -0.02903   0.00085
   6        6PX         0.04155   0.00238  -0.00013   0.00011   0.11017
   7        6PY        -0.05386  -0.00002  -0.00006   0.00012  -0.11002
   8        6PZ         0.00076  -0.04567  -0.12871   0.27936  -0.00001
   9        7PX         0.05775   0.00326  -0.00018   0.00053   0.20456
  10        7PY        -0.07486  -0.00002  -0.00008   0.00019  -0.20428
  11        7PZ         0.00109  -0.06472  -0.18059   0.44329  -0.00007
  12        8PX         0.04449   0.00223   0.00002   0.00045   0.09355
  13        8PY        -0.05763  -0.00003  -0.00003   0.00009  -0.09341
  14        8PZ         0.00101  -0.06419  -0.07659   0.20175  -0.00031
  15        9PX         0.00749   0.00040  -0.00001  -0.00007   0.02094
  16        9PY        -0.00971   0.00000   0.00000   0.00000  -0.02091
  17        9PZ         0.00001  -0.00123  -0.00166  -0.00006   0.00017
  18       10D 0       -0.00015   0.00935  -0.01106  -0.00881  -0.00007
  19       10D+1       -0.00228  -0.00008  -0.00001  -0.00004   0.01806
  20       10D-1        0.00295   0.00001  -0.00001  -0.00001  -0.01804
  21       10D+2       -0.00398   0.00000   0.00000   0.00000  -0.00260
  22       10D-2        0.00307   0.00018  -0.00001   0.00002   0.00263
  23       11D 0       -0.00084   0.04982  -0.04570   0.06671  -0.00107
  24       11D+1       -0.00946  -0.00011  -0.00011  -0.00015   0.04239
  25       11D-1        0.01224   0.00004  -0.00003   0.00005  -0.04238
  26       11D+2       -0.01352   0.00000   0.00000   0.00000  -0.04936
  27       11D-2        0.01043   0.00049  -0.00002   0.00030   0.04951
  28       12D 0       -0.00045   0.02815  -0.00380  -0.01696   0.00007
  29       12D+1        0.00068   0.00016  -0.00004  -0.00013   0.01334
  30       12D-1       -0.00091   0.00002   0.00000  -0.00001  -0.01333
  31       12D+2       -0.00799   0.00000   0.00000   0.00000  -0.01045
  32       12D-2        0.00617   0.00020   0.00002   0.00018   0.01048
  33       13F 0        0.00004  -0.00208  -0.00328  -0.00586   0.00003
  34       13F+1       -0.00136  -0.00009  -0.00001  -0.00003  -0.00681
  35       13F-1        0.00177   0.00000   0.00000  -0.00001   0.00679
  36       13F+2        0.00026   0.00000   0.00000   0.00000  -0.00225
  37       13F-2       -0.00020   0.00001   0.00000  -0.00002   0.00225
  38       13F+3        0.00000   0.00000   0.00000   0.00000  -0.00001
  39       13F-3        0.00005  -0.00308   0.00115  -0.00053   0.00004
  40       14F 0        0.00008  -0.00547  -0.00087   0.01161  -0.00020
  41       14F+1       -0.00442  -0.00031   0.00003   0.00002  -0.00190
  42       14F-1        0.00574  -0.00001   0.00000   0.00001   0.00190
  43       14F+2        0.00256   0.00001   0.00000   0.00002   0.00151
  44       14F-2       -0.00198   0.00002  -0.00002  -0.00008  -0.00152
  45       14F+3        0.00000  -0.00001   0.00000  -0.00001   0.00002
  46       14F-3        0.00026  -0.01509   0.00917  -0.03771   0.00066
  47 2   H  1S          0.03761  -0.03379   0.02884  -0.00683  -0.02853
  48        2S          0.03648  -0.00312   0.02282   0.08001  -0.18426
  49        3S         -0.00470   0.02197   0.02032   0.06878  -0.11788
  50        4S         -0.00088   0.00012   0.00193   0.00722  -0.05107
  51        5PX         0.00065   0.00003   0.00000   0.00000   0.00204
  52        5PY         0.00289  -0.00214   0.00248  -0.00201   0.00617
  53        5PZ        -0.00010  -0.00267  -0.00321   0.01430   0.00863
  54        6PX         0.00229   0.00009   0.00000   0.00009   0.00539
  55        6PY        -0.00455   0.00552  -0.00154   0.00982  -0.04217
  56        6PZ         0.00094  -0.00100  -0.01029   0.02820   0.00380
  57        7PX         0.00172   0.00005   0.00002   0.00008  -0.00112
  58        7PY        -0.00792   0.01110  -0.00164   0.01272  -0.03610
  59        7PZ        -0.00246   0.00807   0.00317  -0.01401  -0.00377
  60        8D 0       -0.00032   0.00014  -0.00085   0.00060  -0.00182
  61        8D+1       -0.00002   0.00000   0.00000   0.00000   0.00128
  62        8D-1        0.00024  -0.00020  -0.00171   0.00673   0.00280
  63        8D+2       -0.00042   0.00052  -0.00061   0.00186  -0.00181
  64        8D-2        0.00037   0.00002   0.00000   0.00001   0.00152
  65        9D 0        0.00010   0.00083  -0.00283   0.00597   0.00221
  66        9D+1       -0.00072  -0.00003  -0.00002   0.00002   0.00315
  67        9D-1        0.00033   0.00202  -0.00055  -0.00588  -0.01096
  68        9D+2        0.00084   0.00108   0.00035  -0.00113   0.00679
  69        9D-2        0.00069   0.00003   0.00000   0.00003   0.00077
  70 3   H  1S         -0.04273  -0.03518   0.02889  -0.00697   0.04046
  71        2S         -0.04257  -0.00467   0.02287   0.08038   0.25136
  72        3S          0.00468   0.02181   0.02046   0.06958   0.15891
  73        4S          0.00100   0.00010   0.00194   0.00736   0.06971
  74        5PX        -0.00306  -0.00195   0.00216  -0.00175  -0.00776
  75        5PY         0.00130   0.00114  -0.00125   0.00102   0.00362
  76        5PZ         0.00021  -0.00268  -0.00321   0.01431  -0.01181
  77        6PX         0.00370   0.00491  -0.00133   0.00869   0.04862
  78        6PY        -0.00378  -0.00279   0.00076  -0.00495  -0.03036
  79        6PZ        -0.00109  -0.00089  -0.01029   0.02810  -0.00537
  80        7PX         0.00712   0.00990  -0.00140   0.01114   0.04235
  81        7PY        -0.00535  -0.00568   0.00082  -0.00639  -0.02398
  82        7PZ         0.00254   0.00819   0.00318  -0.01405   0.00517
  83        8D 0        0.00037   0.00015  -0.00085   0.00061   0.00248
  84        8D+1       -0.00023  -0.00017  -0.00148   0.00581  -0.00355
  85        8D-1        0.00015   0.00010   0.00085  -0.00336   0.00151
  86        8D+2       -0.00044  -0.00026   0.00030  -0.00092  -0.00175
  87        8D-2        0.00030   0.00047  -0.00053   0.00161   0.00191
  88        9D 0       -0.00016   0.00081  -0.00283   0.00599  -0.00359
  89        9D+1       -0.00017   0.00177  -0.00049  -0.00512   0.01246
  90        9D-1        0.00062  -0.00104   0.00027   0.00297  -0.00853
  91        9D+2        0.00014  -0.00051  -0.00017   0.00059   0.00439
  92        9D-2       -0.00109   0.00091   0.00030  -0.00100  -0.00815
  93 4   H  1S          0.00678  -0.03239   0.02880  -0.00669  -0.01009
  94        2S          0.00613  -0.00156   0.02277   0.07963  -0.06786
  95        3S         -0.00115   0.02213   0.02017   0.06798  -0.04393
  96        4S         -0.00016   0.00013   0.00191   0.00708  -0.01880
  97        5PX         0.00008   0.00177  -0.00215   0.00173  -0.00055
  98        5PY        -0.00117   0.00100  -0.00124   0.00100  -0.00354
  99        5PZ         0.00002  -0.00267  -0.00321   0.01428   0.00317
 100        6PX         0.00259  -0.00465   0.00133  -0.00829   0.01718
 101        6PY        -0.00279  -0.00273   0.00076  -0.00483   0.00144
 102        6PZ         0.00017  -0.00110  -0.01029   0.02831   0.00134
 103        7PX         0.00269  -0.00932   0.00144  -0.01091   0.01090
 104        7PY        -0.00166  -0.00540   0.00083  -0.00635   0.00803
 105        7PZ        -0.00052   0.00796   0.00315  -0.01395  -0.00140
 106        8D 0       -0.00006   0.00014  -0.00085   0.00060  -0.00066
 107        8D+1       -0.00005   0.00018   0.00148  -0.00584  -0.00003
 108        8D-1        0.00001   0.00011   0.00085  -0.00337  -0.00203
 109        8D+2       -0.00048  -0.00026   0.00030  -0.00094  -0.00147
 110        8D-2        0.00036  -0.00044   0.00052  -0.00162   0.00160
 111        9D 0        0.00000   0.00086  -0.00282   0.00594   0.00065
 112        9D+1       -0.00061  -0.00173   0.00045   0.00507   0.00562
 113        9D-1        0.00100  -0.00098   0.00027   0.00292  -0.00171
 114        9D+2       -0.00103  -0.00057  -0.00018   0.00054  -0.00216
 115        9D-2        0.00045  -0.00096  -0.00031   0.00096  -0.00163
 116 5   Cl 1S         -0.00017   0.01021   0.00050  -0.01679   0.00001
 117        2S          0.00064  -0.03896  -0.00167   0.05630  -0.00003
 118        3S         -0.00131   0.08052   0.01125  -0.15674   0.00009
 119        4S         -0.00020   0.01243   0.00452  -0.03986   0.00000
 120        5S         -0.00110   0.06904   0.01221  -0.04600   0.00004
 121        6S         -0.00035   0.02043  -0.01254   0.01584  -0.00016
 122        7PX         0.13653   0.00604   0.00004   0.00001   0.01489
 123        7PY        -0.17701   0.00002  -0.00009  -0.00007  -0.01487
 124        7PZ        -0.00034   0.02661  -0.21013  -0.16341   0.00017
 125        8PX        -0.31235  -0.01380  -0.00008  -0.00002  -0.02319
 126        8PY         0.40495  -0.00005   0.00020   0.00016   0.02316
 127        8PZ         0.00079  -0.06215   0.46463   0.36066  -0.00044
 128        9PX        -0.15088  -0.00667  -0.00003   0.00000  -0.02476
 129        9PY         0.19562  -0.00002   0.00009   0.00009   0.02472
 130        9PZ         0.00040  -0.03100   0.21829   0.20647  -0.00024
 131       10PX        -0.22451  -0.00996  -0.00007   0.00004   0.01182
 132       10PY         0.29107  -0.00005   0.00014   0.00001  -0.01181
 133       10PZ         0.00101  -0.07218   0.31777   0.02931   0.00008
 134       11PX        -0.03795  -0.00174   0.00001   0.00008   0.00418
 135       11PY         0.04920  -0.00001   0.00002   0.00000  -0.00417
 136       11PZ         0.00036  -0.02399   0.04618   0.00728   0.00003
 137       12D 0        0.00008  -0.00472  -0.01240   0.06748  -0.00061
 138       12D+1        0.00013  -0.00002   0.00001   0.00003  -0.04096
 139       12D-1       -0.00017   0.00000  -0.00001   0.00005   0.04090
 140       12D+2       -0.00020   0.00000   0.00000   0.00000  -0.00060
 141       12D-2        0.00015   0.00001   0.00000   0.00000   0.00057
 142       13D 0        0.00013  -0.00754  -0.01943   0.09789  -0.00083
 143       13D+1        0.00042  -0.00003   0.00002   0.00003  -0.06117
 144       13D-1       -0.00054  -0.00001  -0.00001   0.00007   0.06108
 145       13D+2       -0.00044   0.00000   0.00000   0.00000  -0.00095
 146       13D-2        0.00034   0.00001   0.00000   0.00000   0.00090
 147       14D 0       -0.00002   0.00153  -0.01324   0.03015  -0.00009
 148       14D+1        0.00204   0.00006   0.00003   0.00000  -0.00662
 149       14D-1       -0.00265   0.00000  -0.00001   0.00002   0.00661
 150       14D+2       -0.00006   0.00000   0.00000   0.00000  -0.00018
 151       14D-2        0.00006   0.00000   0.00000   0.00000   0.00017
 152       15F 0       -0.00002   0.00098   0.00459  -0.00358   0.00003
 153       15F+1       -0.00086  -0.00003   0.00000   0.00000   0.00352
 154       15F-1        0.00111   0.00000   0.00000   0.00000  -0.00352
[...]
  80        7PX        -0.44548   6.18044  -7.72819  -1.64601   6.69585
  81        7PY        -0.79860   8.44383   5.86339   1.00302  -2.81387
  82        7PZ        -1.97691   0.18204  -3.08120   0.05219   0.78803
  83        8D 0       -0.03534  -0.00484   0.01637   0.02447  -0.01787
  84        8D+1        0.00569   0.02428  -0.02056   0.00836  -0.01352
  85        8D-1       -0.00714   0.03483   0.01723  -0.00462   0.00613
  86        8D+2        0.07188  -0.09542  -0.02400   0.02431   0.01306
  87        8D-2       -0.10472  -0.07024   0.01563  -0.04263  -0.03779
  88        9D 0       -0.43774  -0.10094   0.53743  -0.14803  -0.25848
  89        9D+1       -0.22984  -0.19893  -0.15643  -0.03494   0.24070
  90        9D-1        0.16987  -0.33432   0.03996   0.01849  -0.11142
  91        9D+2       -0.33712   1.62640  -0.47686  -0.34798   0.26199
  92        9D-2        0.27645   0.80059   1.24042   0.61582  -0.15659
  93 4   H  1S         -0.03648   0.00431   0.00071  -0.00908   0.00686
  94        2S          0.63216  -3.06597   1.33347  -0.55652  -0.57399
  95        3S         10.88730 -24.58941  10.11488  -3.47466  -6.71240
  96        4S          1.28810   1.91188  -0.94470  -1.90711  -2.88406
  97        5PX        -0.01190  -0.06616   0.08877  -0.08170  -0.00124
  98        5PY        -0.01615  -0.08815  -0.06113  -0.04657  -0.05863
  99        5PZ         0.06007  -0.00291  -0.00319   0.03149   0.00278
 100        6PX        -0.86111   1.52103  -1.42218   0.62665   0.04751
 101        6PY        -0.37130   1.57057   0.73563   0.35461   0.60455
 102        6PZ        -0.31984  -0.06445   0.05175  -0.16896  -0.04343
 103        7PX        -2.49655   5.31514  -7.98582   1.81395  -0.02335
 104        7PY        -0.50177   8.04583   6.57006   0.99500   3.90229
 105        7PZ        -1.01177  -3.20558   1.50988  -0.01172  -0.21053
 106        8D 0       -0.03780   0.00526   0.00062   0.02559   0.00491
 107        8D+1       -0.01457   0.00936  -0.02667  -0.00829  -0.00069
 108        8D-1       -0.00505   0.02564   0.02949  -0.00491  -0.00671
 109        8D+2        0.05477  -0.03887  -0.10188   0.02468  -0.02971
 110        8D-2        0.11220   0.03203   0.04352   0.04222   0.00501
 111        9D 0       -0.54418   0.39279  -0.12844  -0.14946   0.06950
 112        9D+1        0.20565   0.26344   0.08176   0.04018   0.01648
 113        9D-1        0.08595  -0.03205  -0.36140   0.02409   0.11293
 114        9D+2        0.08598   0.02184   1.74158  -0.36867   0.44296
 115        9D-2       -0.12246  -1.46807  -0.35400  -0.62546  -0.33908
 116 5   Cl 1S          0.02004   0.00205  -0.00259   0.01177   0.00000
 117        2S          0.27725   0.02853  -0.03612   0.16378   0.00005
 118        3S          0.77318   0.07908  -0.10005   0.46013   0.00006
 119        4S         -0.04144  -0.00493   0.00631  -0.01475  -0.00009
 120        5S         -4.30624  -0.43644   0.55177  -3.02651   0.00048
 121        6S         -9.71403  -0.93465   1.17653 -13.25272  -0.00361
 122        7PX        -0.00001  -0.00044   0.00067  -0.00010  -0.00211
 123        7PY        -0.00001  -0.00061  -0.00050  -0.00001   0.00212
 124        7PZ        -0.00456  -0.00034   0.00042  -0.02274  -0.00001
 125        8PX         0.00151  -0.01055   0.01496  -0.00088  -0.04190
 126        8PY         0.00001  -0.01459  -0.01111  -0.00014   0.04200
 127        8PZ        -0.06437  -0.00470   0.00577  -0.31757  -0.00011
 128        9PX        -0.00007   0.00216  -0.00329   0.00042   0.00710
 129        9PY         0.00002   0.00302   0.00246   0.00004  -0.00712
 130        9PZ         0.00197  -0.00022   0.00032   0.07963   0.00005
 131       10PX        -0.00240   0.04113  -0.05122  -0.00401   0.29875
 132       10PY         0.00185   0.05465   0.03602   0.00216  -0.29950
 133       10PZ         5.84886   0.57725  -0.72816   5.08212  -0.00012
 134       11PX        -0.18518   0.67471  -0.91128   0.00462  -0.17655
 135       11PY        -0.00757   0.92999   0.67458   0.00144   0.17699
 136       11PZ         0.78644   0.06664  -0.08387   3.36043   0.00292
 137       12D 0        0.06735   0.00680  -0.00855   0.00182  -0.00005
 138       12D+1        0.00499  -0.01795   0.02449  -0.00021  -0.00254
 139       12D-1        0.00024  -0.02482  -0.01819   0.00000   0.00254
 140       12D+2       -0.00003   0.00611   0.00470   0.00000  -0.00854
 141       12D-2       -0.00183   0.00427  -0.00615  -0.00002   0.00852
 142       13D 0       -0.38378  -0.03879   0.04886  -0.07056   0.00013
 143       13D+1       -0.01832   0.06578  -0.09029   0.00110   0.01781
 144       13D-1       -0.00094   0.09109   0.06718  -0.00004  -0.01783
 145       13D+2        0.00007  -0.01392  -0.01064   0.00000   0.03088
 146       13D-2        0.00455  -0.00970   0.01388   0.00003  -0.03081
 147       14D 0       -1.37881  -0.13465   0.17008  -1.24215  -0.00029
 148       14D+1        0.04880  -0.18050   0.24182   0.00207  -0.22879
 149       14D-1        0.00119  -0.24822  -0.17843  -0.00091   0.22923
 150       14D+2       -0.00087   0.05404   0.03578   0.00000  -0.14284
 151       14D-2       -0.01059   0.04007  -0.04951  -0.00021   0.14240
 152       15F 0       -0.04258  -0.00415   0.00523   0.00122   0.00002
 153       15F+1        0.00137  -0.00254   0.00363   0.00032  -0.01295
 154       15F-1       -0.00003  -0.00364  -0.00278   0.00000   0.01297
 155       15F+2       -0.00014   0.00815   0.00525  -0.00001  -0.00737
 156       15F-2       -0.00124   0.00614  -0.00739   0.00019   0.00733
 157       15F+3        0.00000  -0.00040  -0.00030   0.00001  -0.00002
 158       15F-3       -0.00920  -0.00103   0.00133   0.02294   0.00003
 159       16F 0        0.23082   0.02263  -0.02854   0.08906   0.00002
 160       16F+1       -0.00395   0.00892  -0.01158  -0.00126   0.04418
 161       16F-1        0.00010   0.01233   0.00855   0.00009  -0.04424
 162       16F+2        0.00051  -0.03794  -0.02583   0.00002   0.03011
 163       16F-2        0.00649  -0.02810   0.03568  -0.00038  -0.03000
 164       16F+3        0.00000   0.00080   0.00058  -0.00002   0.00005
 165       16F-3        0.01912   0.00214  -0.00278  -0.04285  -0.00005
 166 6   F  1S          0.03966   0.00412  -0.00522  -0.02259  -0.00009
 167        2S          0.13950   0.01456  -0.01843  -0.08578  -0.00039
 168        3S         -0.07111  -0.00735   0.00930   0.03662   0.00011
 169        4S         -0.37403  -0.04067   0.05157  -0.02112   0.00130
 170        5S         -0.05881   0.00248  -0.00382  -5.93555  -0.00099
 171        6PX        -0.00126   0.00423  -0.00581   0.00000   0.00121
 172        6PY        -0.00004   0.00587   0.00433   0.00000  -0.00121
 173        6PZ         0.00533   0.00050  -0.00064   0.00222   0.00001
 174        7PX         0.00616  -0.02201   0.02994   0.00023  -0.00437
 175        7PY         0.00021  -0.03041  -0.02222   0.00001   0.00438
 176        7PZ        -0.06294  -0.00629   0.00796   0.00265  -0.00003
 177        8PX        -0.04024   0.15537  -0.20857  -0.00328   0.00092
 178        8PY        -0.00165   0.21345   0.15387  -0.00014  -0.00092
 179        8PZ         0.62125   0.06331  -0.08026  -0.24702   0.00085
 180        9PX        -0.12822   0.49413  -0.66646  -0.01224  -0.16305
 181        9PY        -0.00610   0.67983   0.49258  -0.00118   0.16345
 182        9PZ        -0.85716  -0.08038   0.10040  -2.49215  -0.00026
 183       10D 0        0.01123   0.00108  -0.00138  -0.00796  -0.00001
 184       10D+1       -0.00220   0.00864  -0.01179  -0.00008   0.00151
 185       10D-1       -0.00008   0.01192   0.00873  -0.00001  -0.00152
 186       10D+2       -0.00001  -0.00382  -0.00315   0.00000  -0.00204
 187       10D-2        0.00099  -0.00262   0.00407  -0.00001   0.00203
 188       11D 0       -0.04154  -0.00403   0.00513   0.01569  -0.00002
 189       11D+1        0.00706  -0.02777   0.03788   0.00022  -0.00259
 190       11D-1        0.00025  -0.03831  -0.02806   0.00002   0.00260
 191       11D+2        0.00004   0.01292   0.01067   0.00000   0.00722
 192       11D-2       -0.00342   0.00886  -0.01378   0.00003  -0.00721
 193       12D 0        0.41122   0.04192  -0.05321  -0.01118   0.00037
 194       12D+1       -0.01903   0.08220  -0.10925  -0.00147  -0.02276
 195       12D-1       -0.00077   0.11227   0.08011  -0.00003   0.02281
 196       12D+2       -0.00007  -0.04858  -0.03945  -0.00001  -0.01389
 197       12D-2        0.01197  -0.03363   0.05131  -0.00030   0.01385
 198       13F 0       -0.02702  -0.00282   0.00355  -0.00760  -0.00007
 199       13F+1       -0.00323   0.01079  -0.01490  -0.00029   0.00570
 200       13F-1       -0.00012   0.01502   0.01113  -0.00001  -0.00572
 201       13F+2       -0.00005   0.00729   0.00543   0.00000  -0.00180
 202       13F-2       -0.00146   0.00526  -0.00731  -0.00007   0.00181
 203       13F+3        0.00000   0.00036   0.00027   0.00000   0.00004
 204       13F-3        0.01260   0.00108  -0.00135  -0.00138  -0.00003
 205       14F 0        0.06726   0.00708  -0.00892   0.01182   0.00011
 206       14F+1        0.00708  -0.02308   0.03235   0.00027  -0.01269
 207       14F-1        0.00023  -0.03229  -0.02430   0.00001   0.01273
 208       14F+2        0.00015  -0.02027  -0.01502   0.00000   0.00441
 209       14F-2        0.00394  -0.01465   0.02024   0.00004  -0.00442
 210       14F+3        0.00000  -0.00067  -0.00051   0.00000  -0.00004
 211       14F-3       -0.01698  -0.00145   0.00180   0.00261   0.00002
                         211
     Eigenvalues --     0.00000
   1 1   C  1S         -0.00050
   2        2S         -0.00302
   3        3S         -0.00031
   4        4S         -0.03917
   5        5S         -0.04065
   6        6PX         0.00523
   7        6PY         0.00521
   8        6PZ         0.00002
   9        7PX        -1.08428
  10        7PY        -1.08166
  11        7PZ         0.00117
  12        8PX       -12.28327
  13        8PY       -12.25333
  14        8PZ         0.01216
  15        9PX        -5.58303
  16        9PY        -5.56938
  17        9PZ         0.00566
  18       10D 0        0.00006
  19       10D+1        0.00118
  20       10D-1        0.00117
  21       10D+2       -0.01541
  22       10D-2       -0.01544
  23       11D 0        0.00046
  24       11D+1        0.14745
  25       11D-1        0.14684
  26       11D+2       -0.29191
  27       11D-2       -0.29227
  28       12D 0       -0.00080
  29       12D+1        0.90603
  30       12D-1        0.90416
  31       12D+2        0.39093
  32       12D-2        0.39235
  33       13F 0        0.00001
  34       13F+1       -0.02726
  35       13F-1       -0.02720
  36       13F+2       -0.00653
  37       13F-2       -0.00658
  38       13F+3       -0.00003
  39       13F-3       -0.00009
  40       14F 0       -0.00061
  41       14F+1        0.28649
  42       14F-1        0.28587
  43       14F+2        0.05524
  44       14F-2        0.05573
  45       14F+3        0.00034
  46       14F-3        0.00068
  47 2   H  1S          0.01889
  48        2S         -1.56656
  49        3S        -18.32775
  50        4S         -7.89035
  51        5PX        -0.03674
  52        5PY         0.08250
  53        5PZ         0.00736
  54        6PX         0.36568
  55        6PY        -0.93013
  56        6PZ        -0.11746
  57        7PX         2.46404
  58        7PY        -5.26126
  59        7PZ        -0.58054
  60        8D 0        0.01327
  61        8D+1       -0.00406
  62        8D-1        0.01106
  63        8D+2        0.02856
  64        8D-2       -0.02067
  65        9D 0        0.18630
  66        9D+1        0.06553
  67        9D-1       -0.19347
  68        9D+2        0.19352
  69        9D-2        0.40431
  70 3   H  1S          0.00696
  71        2S         -0.57598
  72        3S         -6.73049
  73        4S         -2.89932
  74        5PX         0.00118
  75        5PY        -0.05848
  76        5PZ         0.00272
  77        6PX        -0.04612
  78        6PY         0.60206
  79        6PZ        -0.04350
  80        7PX         0.00810
  81        7PY         3.87680
  82        7PZ        -0.21669
  83        8D 0        0.00482
  84        8D+1        0.00075
  85        8D-1       -0.00683
  86        8D+2       -0.02961
  87        8D-2       -0.00499
  88        9D 0        0.06810
  89        9D+1       -0.01713
  90        9D-1        0.11333
  91        9D+2        0.44203
  92        9D-2        0.33670
  93 4   H  1S         -0.02582
  94        2S          2.14432
  95        3S         25.11831
  96        4S         10.80758
  97        5PX         0.10469
  98        5PY         0.04494
  99        5PZ        -0.01021
 100        6PX        -1.17217
 101        6PY        -0.52247
 102        6PZ         0.16188
 103        7PX        -6.69310
 104        7PY        -2.82625
 105        7PZ         0.79623
 106        8D 0       -0.01843
 107        8D+1        0.01379
 108        8D-1        0.00624
 109        8D+2        0.01307
 110        8D-2        0.03770
 111        9D 0       -0.25566
 112        9D+1       -0.24152
 113        9D-1       -0.11173
 114        9D+2        0.26072
 115        9D-2        0.15659
 116 5   Cl 1S          0.00000
 117        2S         -0.00006
 118        3S         -0.00007
 119        4S          0.00009
 120        5S         -0.00042
 121        6S          0.00423
 122        7PX         0.00210
 123        7PY         0.00209
 124        7PZ         0.00001
 125        8PX         0.04187
 126        8PY         0.04177
 127        8PZ         0.00009
 128        9PX        -0.00704
 129        9PY        -0.00702
 130        9PZ        -0.00005
 131       10PX        -0.29840
 132       10PY        -0.29768
 133       10PZ         0.00017
 134       11PX         0.17548
 135       11PY         0.17505
 136       11PZ        -0.00327
 137       12D 0        0.00005
 138       12D+1        0.00258
 139       12D-1        0.00256
 140       12D+2       -0.00865
 141       12D-2       -0.00866
 142       13D 0       -0.00011
 143       13D+1       -0.01807
 144       13D-1       -0.01799
 145       13D+2        0.03117
 146       13D-2        0.03120
 147       14D 0        0.00002
 148       14D+1        0.22992
 149       14D-1        0.22924
 150       14D+2       -0.14259
 151       14D-2       -0.14263
 152       15F 0       -0.00005
 153       15F+1        0.01315
 154       15F-1        0.01311
 155       15F+2       -0.00730
 156       15F-2       -0.00730
 157       15F+3       -0.00001
 158       15F-3       -0.00004
 159       16F 0        0.00006
 160       16F+1       -0.04473
 161       16F-1       -0.04458
 162       16F+2        0.02995
 163       16F-2        0.02994
 164       16F+3        0.00001
 165       16F-3        0.00008
 166 6   F  1S          0.00010
 167        2S          0.00040
 168        3S         -0.00011
 169        4S         -0.00134
 170        5S          0.00122
 171        6PX        -0.00119
 172        6PY        -0.00119
 173        6PZ        -0.00001
 174        7PX         0.00429
 175        7PY         0.00428
 176        7PZ         0.00003
 177        8PX        -0.00076
 178        8PY        -0.00075
 179        8PZ        -0.00085
 180        9PX         0.16280
 181        9PY         0.16240
 182        9PZ         0.00023
 183       10D 0        0.00001
 184       10D+1       -0.00158
 185       10D-1       -0.00158
 186       10D+2       -0.00199
 187       10D-2       -0.00199
 188       11D 0        0.00001
 189       11D+1        0.00276
 190       11D-1        0.00275
 191       11D+2        0.00703
 192       11D-2        0.00705
 193       12D 0       -0.00040
 194       12D+1        0.02210
 195       12D-1        0.02204
 196       12D+2       -0.01312
 197       12D-2       -0.01313
 198       13F 0        0.00009
 199       13F+1       -0.00570
 200       13F-1       -0.00568
 201       13F+2       -0.00196
 202       13F-2       -0.00197
 203       13F+3        0.00004
 204       13F-3        0.00003
 205       14F 0       -0.00014
 206       14F+1        0.01256
 207       14F-1        0.01254
 208       14F+2        0.00468
 209       14F-2        0.00470
 210       14F+3       -0.00004
 211       14F-3       -0.00001
          Condensed to atoms (all electrons):
              1          2          3          4          5          6
     1  C    7.012164  -0.009259  -0.008890  -0.009630  -0.050897  -0.099828
     2  H   -0.009259   0.547070   0.020059   0.020086  -0.018741   0.004332
     3  H   -0.008890   0.020059   0.546817   0.020073  -0.018926   0.003834
     4  H   -0.009630   0.020086   0.020073   0.547325  -0.018553   0.004835
     5  Cl  -0.050897  -0.018741  -0.018926  -0.018553  17.709234   0.026399
     6  F   -0.099828   0.004332   0.003834   0.004835   0.026399   9.907603
 Mulliken atomic charges:
              1
     1  C   -0.833660
     2  H    0.436454
     3  H    0.437033
     4  H    0.435864
     5  Cl  -0.628516
     6  F   -0.847175
 Sum of Mulliken atomic charges =  -1.00000
 Mulliken charges with hydrogens summed into heavy atoms:
              1
     1  C    0.475691
     5  Cl  -0.628516
     6  F   -0.847175
 Sum of Mulliken charges with hydrogens summed into heavy atoms =  -1.00000
 Electronic spatial extent (au):  <R**2>=            490.3182
 Charge=             -1.0000 electrons
 Dipole moment (field-independent basis, Debye):
    X=              0.0342    Y=              0.0007    Z=              4.0663  Tot=              4.0665
 Quadrupole moment (field-independent basis, Debye-Ang):
   XX=            -28.1818   YY=            -28.1814   ZZ=            -62.8204
   XY=             -0.0003   XZ=             -0.1067   YZ=             -0.0145
 Traceless Quadrupole moment (field-independent basis, Debye-Ang):
   XX=             11.5461   YY=             11.5465   ZZ=            -23.0926
   XY=             -0.0003   XZ=             -0.1067   YZ=             -0.0145
 Octapole moment (field-independent basis, Debye-Ang**2):
  XXX=              0.1736  YYY=             -0.9747  ZZZ=             49.6895  XYY=              0.0574
  XXY=              0.9406  XXZ=             -4.2351  XZZ=              0.3168  YZZ=              0.0111
  YYZ=             -4.2353  XYZ=              0.0009
 Hexadecapole moment (field-independent basis, Debye-Ang**3):
 XXXX=            -41.2726 YYYY=            -41.2682 ZZZZ=           -761.6436 XXXY=             -0.0016
 XXXZ=             -0.5922 YYYX=              0.0001 YYYZ=              0.5143 ZZZX=             -1.2838
 ZZZY=             -0.1889 XXYY=            -13.7569 XXZZ=           -103.3887 YYZZ=           -103.3865
 XXYZ=             -0.6773 YYXZ=             -0.1971 ZZXY=             -0.0008
 N-N= 8.498400552542D+01 E-N=-1.604179993549D+03  KE= 5.991954492939D+02
 1\1\GINC-TRAPISTA\SP\RQCISD-FC\Aug-CC-pVTZ\C1H3Cl1F1(1-)\BRUNS\24-Aug-
 2020\0\\# QCISD aug-cc-pvtz nosymm density=current output=wfn\\clch3f_
 ts-wavefunction\\-1,1\C,0,0.000175,0.000029,-0.497709\H,0,0.000019,-1.
 05257,-0.620726\H,0,-0.911312,0.526365,-0.621245\H,0,0.91175,0.526132,
 -0.62157\Cl,0,0.000555,0.000962,1.644718\F,0,-0.010186,-0.000921,-2.59
 3468\\Version=EM64L-G09RevB.01\HF=-598.617123\MP2=-599.2912656\MP3=-59
 9.3099667\MP4D=-599.3248571\MP4DQ=-599.3104182\MP4SDQ=-599.3197844\QCI
 SD=-599.3191665\RMSD=9.412e-09\Dipole=0.0091114,0.0007245,1.5873571\Qu
 adrupole=8.5842323,8.5845282,-17.1687605,-0.0002429,-0.0793492,-0.0107
 463\PG=C01 [X(C1H3Cl1F1)]\\@

 Writing a WFN file to GAUSSIAN.wfn.


 THE POLHOLDE ROLLS WITHOUT SLIPPING ON THE HERPOLHOLDE LYING IN
 THE INVARIABLE PLANE.
 H.GOLDSTEIN, "CLASSICAL MECHANICS", PG 161
 Job cpu time:  0 days  3 hours 17 minutes 57.5 seconds.
 File lengths (MBytes):  RWF=  29002 Int=      0 D2E=      0 Chk=      4 Scr=      1
 Normal termination of Gaussian 09 at Mon Aug 24 12:01:44 2020.
