 clch3f_ts-wavefunction
GAUSSIAN            211 MOL ORBITALS    339 PRIMITIVES        6 NUCLEI
  C    1    (CENTRE  1)  -0.01856656  0.00005480 -0.94053370  CHARGE =  6.0
  H    2    (CENTRE  2)   0.00003590 -1.98906904 -1.17300214  CHARGE =  1.0
  H    3    (CENTRE  3)  -1.72213010  0.99468570 -1.17398291  CHARGE =  1.0
  H    4    (CENTRE  4)   1.72295780  0.99424539 -1.17459707  CHARGE =  1.0
  Cl   5    (CENTRE  5)   0.00104880  0.00181792  3.10806659  CHARGE = 17.0
  F    6    (CENTRE  6)  -0.00035149 -0.00174044 -4.90094425  CHARGE =  9.0
CENTRE ASSIGNMENTS    1  1  1  1  1  1  1  1  1  1  1  1  1  1  1  1  1  1  1  1
CENTRE ASSIGNMENTS    1  1  1  1  1  1  1  1  1  1  1  1  1  1  1  1  1  1  1  1
CENTRE ASSIGNMENTS    1  1  1  1  1  1  1  1  1  1  1  1  1  1  1  1  1  1  1  1
CENTRE ASSIGNMENTS    1  1  1  1  1  1  1  1  1  1  1  1  2  2  2  2  2  2  2  2
CENTRE ASSIGNMENTS    2  2  2  2  2  2  2  2  2  2  2  2  2  2  2  2  2  2  2  3
CENTRE ASSIGNMENTS    3  3  3  3  3  3  3  3  3  3  3  3  3  3  3  3  3  3  3  3
CENTRE ASSIGNMENTS    3  3  3  3  3  3  4  4  4  4  4  4  4  4  4  4  4  4  4  4
CENTRE ASSIGNMENTS    4  4  4  4  4  4  4  4  4  4  4  4  4  5  5  5  5  5  5  5
CENTRE ASSIGNMENTS    5  5  5  5  5  5  5  5  5  5  5  5  5  5  5  5  5  5  5  5
CENTRE ASSIGNMENTS    5  5  5  5  5  5  5  5  5  5  5  5  5  5  5  5  5  5  5  5
CENTRE ASSIGNMENTS    5  5  5  5  5  5  5  5  5  5  5  5  5  5  5  5  5  5  5  5
CENTRE ASSIGNMENTS    5  5  5  5  5  5  5  5  5  5  5  5  5  5  5  5  5  5  5  5
CENTRE ASSIGNMENTS    5  5  5  5  5  5  5  5  5  5  5  5  5  5  5  5  5  5  5  5
CENTRE ASSIGNMENTS    5  5  5  5  5  5  5  6  6  6  6  6  6  6  6  6  6  6  6  6
CENTRE ASSIGNMENTS    6  6  6  6  6  6  6  6  6  6  6  6  6  6  6  6  6  6  6  6
CENTRE ASSIGNMENTS    6  6  6  6  6  6  6  6  6  6  6  6  6  6  6  6  6  6  6  6
CENTRE ASSIGNMENTS    6  6  6  6  6  6  6  6  6  6  6  6  6  6  6  6  6  6  6
TYPE ASSIGNMENTS      1  1  1  1  1  1  1  1  1  1  1  1  1  1  1  1  2  2  2  3
TYPE ASSIGNMENTS      3  3  4  4  4  2  3  4  2  3  4  2  3  4  5  6  7  8  9 10
TYPE ASSIGNMENTS      5  6  7  8  9 10  5  6  7  8  9 10 11 12 13 17 14 15 18 19
TYPE ASSIGNMENTS     16 20 11 12 13 17 14 15 18 19 16 20  1  1  1  1  1  1  2  3
TYPE ASSIGNMENTS      4  2  3  4  2  3  4  5  6  7  8  9 10  5  6  7  8  9 10  1
TYPE ASSIGNMENTS      1  1  1  1  1  2  3  4  2  3  4  2  3  4  5  6  7  8  9 10
TYPE ASSIGNMENTS      5  6  7  8  9 10  1  1  1  1  1  1  2  3  4  2  3  4  2  3
TYPE ASSIGNMENTS      4  5  6  7  8  9 10  5  6  7  8  9 10  1  1  1  1  1  1  1
TYPE ASSIGNMENTS      1  1  1  1  1  1  1  1  1  1  1  1  1  1  1  1  1  1  1  1
TYPE ASSIGNMENTS      1  1  1  1  2  2  2  2  2  2  3  3  3  3  3  3  4  4  4  4
TYPE ASSIGNMENTS      4  4  2  2  2  2  2  2  3  3  3  3  3  3  4  4  4  4  4  4
TYPE ASSIGNMENTS      2  3  4  2  3  4  2  3  4  5  6  7  8  9 10  5  6  7  8  9
TYPE ASSIGNMENTS     10  5  6  7  8  9 10 11 12 13 17 14 15 18 19 16 20 11 12 13
TYPE ASSIGNMENTS     17 14 15 18 19 16 20  1  1  1  1  1  1  1  1  1  1  1  1  1
TYPE ASSIGNMENTS      1  1  1  2  2  2  3  3  3  4  4  4  2  3  4  2  3  4  2  3
TYPE ASSIGNMENTS      4  5  6  7  8  9 10  5  6  7  8  9 10  5  6  7  8  9 10 11
TYPE ASSIGNMENTS     12 13 17 14 15 18 19 16 20 11 12 13 17 14 15 18 19 16 20
EXPONENTS  0.8236000D+04 0.1235000D+04 0.2808000D+03 0.7927000D+02 0.2559000D+02
EXPONENTS  0.8997000D+01 0.3319000D+01 0.2808000D+03 0.7927000D+02 0.2559000D+02
EXPONENTS  0.8997000D+01 0.3319000D+01 0.3643000D+00 0.9059000D+00 0.1285000D+00
EXPONENTS  0.4402000D-01 0.1871000D+02 0.4133000D+01 0.1200000D+01 0.1871000D+02
EXPONENTS  0.4133000D+01 0.1200000D+01 0.1871000D+02 0.4133000D+01 0.1200000D+01
EXPONENTS  0.3827000D+00 0.3827000D+00 0.3827000D+00 0.1209000D+00 0.1209000D+00
EXPONENTS  0.1209000D+00 0.3569000D-01 0.3569000D-01 0.3569000D-01 0.1097000D+01
EXPONENTS  0.1097000D+01 0.1097000D+01 0.1097000D+01 0.1097000D+01 0.1097000D+01
EXPONENTS  0.3180000D+00 0.3180000D+00 0.3180000D+00 0.3180000D+00 0.3180000D+00
EXPONENTS  0.3180000D+00 0.1000000D+00 0.1000000D+00 0.1000000D+00 0.1000000D+00
EXPONENTS  0.1000000D+00 0.1000000D+00 0.7610000D+00 0.7610000D+00 0.7610000D+00
EXPONENTS  0.7610000D+00 0.7610000D+00 0.7610000D+00 0.7610000D+00 0.7610000D+00
EXPONENTS  0.7610000D+00 0.7610000D+00 0.2680000D+00 0.2680000D+00 0.2680000D+00
EXPONENTS  0.2680000D+00 0.2680000D+00 0.2680000D+00 0.2680000D+00 0.2680000D+00
EXPONENTS  0.2680000D+00 0.2680000D+00 0.3387000D+02 0.5095000D+01 0.1159000D+01
EXPONENTS  0.3258000D+00 0.1027000D+00 0.2526000D-01 0.1407000D+01 0.1407000D+01
EXPONENTS  0.1407000D+01 0.3880000D+00 0.3880000D+00 0.3880000D+00 0.1020000D+00
EXPONENTS  0.1020000D+00 0.1020000D+00 0.1057000D+01 0.1057000D+01 0.1057000D+01
EXPONENTS  0.1057000D+01 0.1057000D+01 0.1057000D+01 0.2470000D+00 0.2470000D+00
EXPONENTS  0.2470000D+00 0.2470000D+00 0.2470000D+00 0.2470000D+00 0.3387000D+02
EXPONENTS  0.5095000D+01 0.1159000D+01 0.3258000D+00 0.1027000D+00 0.2526000D-01
EXPONENTS  0.1407000D+01 0.1407000D+01 0.1407000D+01 0.3880000D+00 0.3880000D+00
EXPONENTS  0.3880000D+00 0.1020000D+00 0.1020000D+00 0.1020000D+00 0.1057000D+01
EXPONENTS  0.1057000D+01 0.1057000D+01 0.1057000D+01 0.1057000D+01 0.1057000D+01
EXPONENTS  0.2470000D+00 0.2470000D+00 0.2470000D+00 0.2470000D+00 0.2470000D+00
EXPONENTS  0.2470000D+00 0.3387000D+02 0.5095000D+01 0.1159000D+01 0.3258000D+00
EXPONENTS  0.1027000D+00 0.2526000D-01 0.1407000D+01 0.1407000D+01 0.1407000D+01
EXPONENTS  0.3880000D+00 0.3880000D+00 0.3880000D+00 0.1020000D+00 0.1020000D+00
EXPONENTS  0.1020000D+00 0.1057000D+01 0.1057000D+01 0.1057000D+01 0.1057000D+01
EXPONENTS  0.1057000D+01 0.1057000D+01 0.2470000D+00 0.2470000D+00 0.2470000D+00
EXPONENTS  0.2470000D+00 0.2470000D+00 0.2470000D+00 0.4561000D+06 0.6833000D+05
EXPONENTS  0.1555000D+05 0.4405000D+04 0.1439000D+04 0.5204000D+03 0.2031000D+03
EXPONENTS  0.8396000D+02 0.3620000D+02 0.1583000D+02 0.6334000D+01 0.4405000D+04
EXPONENTS  0.1439000D+04 0.5204000D+03 0.2031000D+03 0.8396000D+02 0.3620000D+02
EXPONENTS  0.1583000D+02 0.6334000D+01 0.2694000D+01 0.1439000D+04 0.2031000D+03
EXPONENTS  0.8396000D+02 0.3620000D+02 0.1583000D+02 0.6334000D+01 0.2694000D+01
EXPONENTS  0.4313000D+00 0.9768000D+00 0.1625000D+00 0.5910000D-01 0.6633000D+03
EXPONENTS  0.1568000D+03 0.4998000D+02 0.1842000D+02 0.7240000D+01 0.2922000D+01
EXPONENTS  0.6633000D+03 0.1568000D+03 0.4998000D+02 0.1842000D+02 0.7240000D+01
EXPONENTS  0.2922000D+01 0.6633000D+03 0.1568000D+03 0.4998000D+02 0.1842000D+02
EXPONENTS  0.7240000D+01 0.2922000D+01 0.1568000D+03 0.4998000D+02 0.1842000D+02
EXPONENTS  0.7240000D+01 0.2922000D+01 0.3818000D+00 0.1568000D+03 0.4998000D+02
EXPONENTS  0.1842000D+02 0.7240000D+01 0.2922000D+01 0.3818000D+00 0.1568000D+03
EXPONENTS  0.4998000D+02 0.1842000D+02 0.7240000D+01 0.2922000D+01 0.3818000D+00
EXPONENTS  0.1022000D+01 0.1022000D+01 0.1022000D+01 0.1301000D+00 0.1301000D+00
EXPONENTS  0.1301000D+00 0.4190000D-01 0.4190000D-01 0.4190000D-01 0.1046000D+01
EXPONENTS  0.1046000D+01 0.1046000D+01 0.1046000D+01 0.1046000D+01 0.1046000D+01
EXPONENTS  0.3440000D+00 0.3440000D+00 0.3440000D+00 0.3440000D+00 0.3440000D+00
EXPONENTS  0.3440000D+00 0.1350000D+00 0.1350000D+00 0.1350000D+00 0.1350000D+00
EXPONENTS  0.1350000D+00 0.1350000D+00 0.7060000D+00 0.7060000D+00 0.7060000D+00
EXPONENTS  0.7060000D+00 0.7060000D+00 0.7060000D+00 0.7060000D+00 0.7060000D+00
EXPONENTS  0.7060000D+00 0.7060000D+00 0.3120000D+00 0.3120000D+00 0.3120000D+00
EXPONENTS  0.3120000D+00 0.3120000D+00 0.3120000D+00 0.3120000D+00 0.3120000D+00
EXPONENTS  0.3120000D+00 0.3120000D+00 0.1950000D+05 0.2923000D+04 0.6645000D+03
EXPONENTS  0.1875000D+03 0.6062000D+02 0.2142000D+02 0.7950000D+01 0.6645000D+03
EXPONENTS  0.1875000D+03 0.6062000D+02 0.2142000D+02 0.7950000D+01 0.8815000D+00
EXPONENTS  0.2257000D+01 0.3041000D+00 0.9158000D-01 0.4388000D+02 0.9926000D+01
EXPONENTS  0.2930000D+01 0.4388000D+02 0.9926000D+01 0.2930000D+01 0.4388000D+02
EXPONENTS  0.9926000D+01 0.2930000D+01 0.9132000D+00 0.9132000D+00 0.9132000D+00
EXPONENTS  0.2672000D+00 0.2672000D+00 0.2672000D+00 0.7361000D-01 0.7361000D-01
EXPONENTS  0.7361000D-01 0.3107000D+01 0.3107000D+01 0.3107000D+01 0.3107000D+01
EXPONENTS  0.3107000D+01 0.3107000D+01 0.8550000D+00 0.8550000D+00 0.8550000D+00
EXPONENTS  0.8550000D+00 0.8550000D+00 0.8550000D+00 0.2920000D+00 0.2920000D+00
EXPONENTS  0.2920000D+00 0.2920000D+00 0.2920000D+00 0.2920000D+00 0.1917000D+01
EXPONENTS  0.1917000D+01 0.1917000D+01 0.1917000D+01 0.1917000D+01 0.1917000D+01
EXPONENTS  0.1917000D+01 0.1917000D+01 0.1917000D+01 0.1917000D+01 0.7240000D+00
EXPONENTS  0.7240000D+00 0.7240000D+00 0.7240000D+00 0.7240000D+00 0.7240000D+00
EXPONENTS  0.7240000D+00 0.7240000D+00 0.7240000D+00 0.7240000D+00
MO    1     MO 0.0        OCC NO =    2.0000300  ORB. ENERGY =    0.000000
 -0.36356064D-04 -0.67775027D-04 -0.11454903D-03 -0.17218856D-03 -0.21150280D-03
 -0.17850090D-03 -0.67121001D-04  0.50092338D-07  0.37440919D-06  0.13992526D-05
  0.39036970D-05  0.52298777D-05 -0.61755104D-05 -0.11913686D-04  0.29300089D-04
  0.39481028D-05  0.77840111D-04  0.72980052D-04  0.51966144D-04  0.77188359D-04
  0.72368993D-04  0.51531034D-04 -0.70095997D-05 -0.65719453D-05 -0.46796166D-05
  0.24437785D-03  0.24302772D-03 -0.48550048D-05  0.32182724D-03  0.31975421D-03
 -0.30607737D-06  0.67433461D-05  0.67019120D-05 -0.41354204D-07  0.41454499D-04
 -0.44025068D-04  0.25705687D-05  0.85789903D-04 -0.36295220D-03 -0.36054354D-03
  0.13816954D-03 -0.13223459D-03 -0.59349513D-05  0.27192252D-03  0.69863116D-04
  0.69683408D-04  0.27718941D-04 -0.29746770D-04  0.20278292D-05  0.57724305D-04
 -0.45985321D-04 -0.45603692D-04  0.65792904D-04  0.64122109D-04  0.25525137D-05
  0.62078513D-04  0.65294512D-04  0.12848641D-04 -0.25945722D-03 -0.25766084D-03
 -0.20506182D-04  0.33161750D-04 -0.18105565D-04 -0.20993557D-04 -0.30083745D-06
 -0.20082323D-04 -0.10946623D-04  0.37483584D-04  0.74399018D-04  0.73927294D-04
 -0.36581072D-04  0.74515093D-04 -0.27969089D-04 -0.50443404D-04 -0.74378769D-04
  0.22840910D-03  0.77789064D-03 -0.85923232D-05  0.37638574D-05  0.47461587D-04
  0.15389102D-04  0.57440796D-04  0.19322550D-03  0.19188536D-03  0.51294101D-04
  0.11828060D-03  0.16131901D-04 -0.75310962D-04  0.27617166D-04  0.47693796D-04
  0.20433567D-04 -0.34860254D-04  0.21019698D-03 -0.28949009D-04 -0.80039195D-05
  0.36952929D-04  0.19815519D-04  0.43529006D-04  0.22038438D-04 -0.10335274D-04
 -0.18640092D-04 -0.27484804D-04  0.72460895D-04  0.28934832D-03 -0.33020742D-05
  0.17114959D-04 -0.46674521D-05  0.59664609D-05  0.99094253D-04  0.33202036D-04
  0.70468660D-04  0.73460314D-04  0.41020036D-04  0.57375433D-05  0.11838100D-04
 -0.29466693D-04  0.17628594D-04 -0.18580511D-04  0.45501616D-04 -0.78173013D-04
  0.73266410D-05 -0.20022106D-04  0.12695465D-04  0.74048691D-05  0.37439827D-04
  0.48497459D-04  0.38684453D-04  0.69769004D-04  0.10287435D-03 -0.35921750D-03
 -0.10643848D-02  0.11427432D-04  0.56912699D-04  0.34648595D-04 -0.20693542D-04
  0.22815681D-03  0.15494479D-03 -0.26578631D-03  0.13412356D-03  0.98021806D-04
 -0.23151033D-04 -0.36129684D-06  0.66646915D-04 -0.66285618D-04 -0.13074086D-03
  0.25493381D-03  0.13168682D-03  0.22643214D-04  0.31828741D-04 -0.54471955D-04
 -0.29849183D-04  0.18476502D-04  0.28310172D-04 -0.95232733D-04 -0.17817028D-03
 -0.30783873D-03 -0.49904274D-03 -0.75784430D-03 -0.10533323D-02 -0.12523314D-02
 -0.11156203D-02 -0.55404063D-03 -0.89195854D-04 -0.94106894D-06 -0.45067843D-06
 -0.15033878D-04 -0.52390055D-04 -0.18866507D-03 -0.41588867D-03 -0.58543701D-03
  0.27927254D-04  0.76614600D-03  0.45301733D-03 -0.34808610D-08 -0.42161728D-07
 -0.87923838D-07 -0.25215026D-06 -0.13093812D-07  0.10873942D-05  0.28096178D-05
 -0.22891443D-05  0.27656094D-04 -0.12192713D-04 -0.14961246D-05  0.82376892D+01
  0.10850964D+02  0.11970312D+02  0.99422810D+01  0.52796271D+01  0.13621714D+01
  0.81820274D+01  0.10777644D+02  0.11889429D+02  0.98751013D+01  0.52439528D+01
  0.13529672D+01 -0.69586792D-01 -0.91662084D-01 -0.10111763D+00 -0.83986106D-01
 -0.44598953D-01 -0.11506763D-01 -0.32601734D-03  0.31517259D-02  0.44442625D-02
  0.63564710D-02 -0.32188274D-04 -0.58294834D-02 -0.32381122D-03  0.31303986D-02
  0.44141888D-02  0.63134576D-02 -0.31970461D-04 -0.57900361D-02  0.29274584D-05
 -0.28300784D-04 -0.39907059D-04 -0.57077652D-04  0.28903319D-06  0.52345590D-04
  0.54379539D-01  0.54012040D-01 -0.46417350D-03 -0.45753878D-03 -0.45451904D-03
  0.64576324D-05 -0.41190675D-04 -0.40914796D-04  0.41476311D-06  0.32814637D-05
 -0.99475599D-05  0.66660962D-05  0.12767487D-04 -0.69560847D-03 -0.69092154D-03
 -0.13882240D-05  0.38295935D-05 -0.24413695D-05 -0.50382381D-05  0.25166805D-03
  0.24995184D-03  0.76628399D-06 -0.99064664D-06  0.22436266D-06  0.17332575D-05
 -0.43063246D-04 -0.42740045D-04  0.16006315D-05  0.19712276D-05 -0.12584770D-07
  0.17275982D-05  0.46947408D-06  0.25291102D-04 -0.65294927D-05 -0.63831568D-05
 -0.25253348D-04  0.50812176D-04  0.10380384D-04  0.10173875D-04  0.19043330D-06
  0.10328637D-04  0.10697276D-04 -0.56770629D-05 -0.41469789D-04 -0.41218901D-04
  0.51057630D-05 -0.10933014D-04  0.12895759D-04  0.24037717D-04  0.40749286D-04
  0.61699930D-04  0.77138502D-04  0.66352944D-04  0.25447782D-04 -0.18056393D-07
 -0.23903283D-06 -0.86821074D-06 -0.25755308D-05 -0.29677790D-05  0.36048097D-05
  0.56695055D-06 -0.72728544D-05 -0.80618539D-05 -0.20811593D-03 -0.20353284D-03
 -0.13448275D-03 -0.20688114D-03 -0.20232524D-03 -0.13368484D-03 -0.23104548D-04
 -0.22595744D-04 -0.14929963D-04 -0.72489992D-05 -0.72117698D-05 -0.25487423D-05
 -0.46493777D-04 -0.46201599D-04 -0.63432239D-05 -0.13979803D-04 -0.13895650D-04
 -0.10775506D-05  0.48606099D-04 -0.50950514D-04  0.23444154D-05  0.10001075D-03
 -0.95287894D-04 -0.94667199D-04 -0.24535001D-04  0.25606113D-04 -0.10711118D-05
 -0.50337267D-04  0.72640327D-04  0.72148318D-04  0.12956225D-04 -0.12738561D-04
 -0.21766446D-06  0.25770305D-04 -0.51706165D-04 -0.51330229D-04 -0.49004402D-04
 -0.48001517D-04 -0.14348552D-05 -0.49322644D-04 -0.50505586D-04 -0.13383080D-03
  0.19633585D-03  0.19451014D-03  0.13813536D-03 -0.27265919D-03  0.17384124D-04
  0.17065626D-04  0.32410469D-06  0.17491201D-04  0.17810310D-04  0.42788566D-04
 -0.69643572D-04 -0.69007189D-04 -0.43760880D-04  0.86746843D-04
MO    2     MO 0.0        OCC NO =    2.0000300  ORB. ENERGY =    0.000000
 -0.36691817D-04 -0.68400939D-04 -0.11560691D-03 -0.17377874D-03 -0.21345606D-03
 -0.18014938D-03 -0.67740873D-04  0.50406555D-07  0.37675777D-06  0.14080298D-05
  0.39281839D-05  0.52626835D-05 -0.62142479D-05 -0.12001656D-04  0.27698315D-04
  0.36912497D-05  0.79464826D-04  0.74503326D-04  0.53050806D-04 -0.79887518D-04
 -0.74899626D-04 -0.53332996D-04 -0.70555989D-05 -0.66150725D-05 -0.47103257D-05
  0.26868441D-03 -0.27084602D-03 -0.44825973D-05  0.33364253D-03 -0.33603618D-03
  0.10223513D-07  0.64479089D-05 -0.64966378D-05 -0.41975207D-07 -0.49460433D-04
  0.47296616D-04  0.21638174D-05  0.95968623D-04 -0.35778137D-03  0.36027850D-03
 -0.13627328D-03  0.14200663D-03 -0.57333513D-05  0.27648156D-03  0.67994263D-04
 -0.68771166D-04 -0.30380568D-04  0.28453688D-04  0.19268805D-05  0.58386336D-04
 -0.47677273D-04  0.47936835D-04  0.65267846D-04 -0.67071718D-04  0.23124176D-05
  0.69355766D-04 -0.65730094D-04 -0.22252335D-04 -0.26515930D-03  0.26694525D-03
  0.15315082D-04  0.36924230D-04 -0.19857106D-04  0.17022578D-04 -0.25529150D-06
 -0.17647070D-04  0.26703986D-04 -0.33811921D-04  0.77218387D-04 -0.77771719D-04
  0.34577795D-04  0.67971208D-04  0.28726238D-04  0.51808952D-04  0.76392270D-04
 -0.29057860D-03 -0.81347698D-03  0.85664774D-05  0.25794416D-05 -0.54085040D-04
 -0.18692475D-04  0.61092866D-04 -0.21481492D-03 -0.19106948D-03  0.55451090D-04
 -0.12574803D-03 -0.15266726D-04  0.80775447D-04 -0.32789260D-04 -0.47986187D-04
  0.22972677D-04 -0.31465978D-04 -0.21077438D-03  0.32545728D-04  0.89278827D-05
 -0.41473610D-04  0.21213986D-04  0.42975652D-04 -0.22121826D-04 -0.38757407D-04
 -0.69900579D-04 -0.10306836D-03  0.35124409D-03  0.11089432D-02 -0.12012342D-04
  0.61972035D-04 -0.36761989D-04  0.26200502D-04  0.23334054D-03 -0.16058760D-03
  0.25727984D-03  0.13481316D-03 -0.10249190D-03  0.19896250D-04  0.12665303D-05
 -0.66080570D-04  0.64814039D-04 -0.13252026D-03  0.25524090D-03 -0.13448401D-03
 -0.22299160D-04 -0.30546992D-04  0.52846151D-04 -0.30274774D-04  0.17825537D-04
 -0.29128032D-04  0.10460926D-04  0.18866710D-04  0.27818954D-04 -0.11635842D-03
 -0.29200767D-03  0.30032743D-05  0.19223595D-04  0.63210457D-05 -0.66644763D-05
  0.11100767D-03 -0.32117285D-04 -0.69401648D-04  0.76656427D-04 -0.40710680D-04
 -0.57517848D-05 -0.16036432D-04  0.33585811D-04 -0.17549379D-04 -0.20404521D-04
  0.42603995D-04  0.77120926D-04 -0.66643667D-05  0.22543133D-04 -0.15878767D-04
  0.65801738D-05  0.35732889D-04 -0.46031216D-04 -0.93742154D-04 -0.17538157D-03
 -0.30302045D-03 -0.49123175D-03 -0.74598255D-03 -0.10368456D-02 -0.12327299D-02
 -0.10981586D-02 -0.54536880D-03 -0.87799763D-04 -0.92633937D-06 -0.44358665D-06
 -0.14797308D-04 -0.51565656D-04 -0.18569628D-03 -0.40934433D-03 -0.57622471D-03
  0.27487797D-04  0.75409010D-03  0.44588875D-03 -0.35385232D-08 -0.42860158D-07
 -0.89380340D-07 -0.25632725D-06 -0.13310717D-07  0.11054074D-05  0.28561605D-05
 -0.23270652D-05  0.27248736D-04 -0.11813216D-04 -0.13200284D-05  0.81817473D+01
  0.10777275D+02  0.11889022D+02  0.98747633D+01  0.52437733D+01  0.13529209D+01
 -0.82379421D+01 -0.10851297D+02 -0.11970679D+02 -0.99425863D+01 -0.52797892D+01
 -0.13622132D+01 -0.62293706D-01 -0.82055384D-01 -0.90519933D-01 -0.75183892D-01
 -0.39924733D-01 -0.10300790D-01 -0.32383032D-03  0.31305832D-02  0.44144491D-02
  0.63138300D-02 -0.31972346D-04 -0.57903776D-02  0.32605139D-03 -0.31520551D-02
 -0.44447267D-02 -0.63571349D-02  0.32191636D-04  0.58300923D-02  0.26348089D-05
 -0.25471637D-04 -0.35917667D-04 -0.51371765D-04  0.26013939D-06  0.47112754D-04
  0.54019789D-01 -0.54390760D-01 -0.41603897D-03 -0.45238861D-03  0.45556927D-03
  0.59012873D-05 -0.40767721D-04  0.41050204D-04  0.36843416D-06 -0.14236219D-04
  0.81958256D-05  0.60403937D-05  0.21756601D-04 -0.69163798D-03  0.69640420D-03
  0.47617747D-05 -0.25540513D-05 -0.22077234D-05 -0.70591627D-05  0.25222935D-03
 -0.25394759D-03 -0.10206465D-05  0.82591207D-06  0.19473445D-06  0.18006255D-05
 -0.43375308D-04  0.43641388D-04  0.17656483D-05 -0.13504640D-05 -0.24837663D-07
  0.16769347D-05 -0.28708500D-05 -0.24156896D-04 -0.69738796D-05  0.69222420D-05
  0.24231409D-04  0.48059638D-04  0.10359529D-04 -0.10580195D-04  0.16038550D-06
  0.10403817D-04 -0.10054724D-04  0.44105356D-05 -0.41482403D-04  0.41795309D-04
 -0.48916921D-05 -0.93325027D-05  0.12918686D-04  0.24080454D-04  0.40821734D-04
  0.61809625D-04  0.77275645D-04  0.66470912D-04  0.25493026D-04 -0.17989986D-07
 -0.23815372D-06 -0.86501766D-06 -0.25660586D-05 -0.29568642D-05  0.35915520D-05
  0.57538151D-06 -0.72084721D-05 -0.78885504D-05 -0.20322598D-03 -0.19875057D-03
 -0.13132290D-03  0.20477142D-03  0.20026198D-03  0.13232156D-03 -0.23298437D-04
 -0.22785362D-04 -0.15055252D-04 -0.49083675D-05  0.49531887D-05 -0.25742192D-05
 -0.47867225D-04  0.48211076D-04 -0.63743953D-05 -0.13654317D-04  0.13757294D-04
 -0.10692448D-05 -0.51603312D-04  0.49326389D-04  0.22769233D-05  0.10017542D-03
 -0.91560393D-04  0.92215164D-04  0.25724433D-04 -0.24722206D-04 -0.10022269D-05
 -0.50036251D-04  0.71234847D-04 -0.71723878D-04 -0.12464365D-04  0.12762688D-04
 -0.29832368D-06  0.24993914D-04 -0.53036052D-04  0.53372292D-04 -0.52124290D-04
  0.52902281D-04 -0.10872063D-05 -0.52087731D-04  0.50695514D-04  0.13215572D-03
  0.20846060D-03 -0.20940236D-03 -0.12889410D-03 -0.25850141D-03  0.18532136D-04
 -0.18777736D-04  0.19796577D-06  0.18514781D-04 -0.18123665D-04 -0.41629068D-04
 -0.74111190D-04  0.74456872D-04  0.41035170D-04  0.81831354D-04
MO    3     MO 0.0        OCC NO =    2.0000210  ORB. ENERGY =    0.000000
 -0.14456927D-01 -0.26950624D-01 -0.45550226D-01 -0.68470485D-01 -0.84103728D-01
 -0.70980579D-01 -0.26690551D-01 -0.38131902D-05 -0.28501234D-04 -0.10651562D-03
 -0.29716199D-03 -0.39811514D-03  0.47009975D-03 -0.87258158D-03 -0.19331415D-02
 -0.81885137D-04 -0.37060408D-05 -0.34746489D-05 -0.24741570D-05  0.53472860D-06
  0.50134205D-06  0.35698541D-06  0.11669921D-02  0.10941293D-02  0.77908525D-03
  0.21261805D-04  0.28594592D-07  0.60712121D-03 -0.94661648D-06 -0.22050363D-06
 -0.37910624D-03  0.12181752D-06  0.34510982D-08  0.46730601D-05 -0.10553848D-03
 -0.10559473D-03  0.21113321D-03  0.90439145D-05  0.11801643D-05  0.31533210D-06
 -0.23954668D-04 -0.23929492D-04  0.47884160D-04  0.10570218D-04 -0.71111567D-05
  0.13845462D-06  0.11387925D-04  0.11429206D-04 -0.22817130D-04 -0.66971589D-06
 -0.10403069D-05 -0.24923705D-07  0.31880282D-06  0.36210635D-04  0.77261131D-05
  0.36715388D-06 -0.10867760D-03 -0.11541874D-04 -0.13235623D-05  0.45692868D-07
 -0.11636465D-04 -0.44637962D-05  0.16002972D-06  0.51814758D-04 -0.85652241D-04
  0.23687234D-06 -0.15518208D-03  0.12854057D-03 -0.71696150D-06 -0.26219305D-06
  0.12841616D-03 -0.16707155D-05 -0.48410765D-05 -0.87310809D-05 -0.12873974D-04
  0.75176536D-03  0.23552262D-03  0.50599086D-05 -0.49944276D-06  0.95734729D-04
  0.28401151D-04 -0.63410835D-05  0.19904713D-03 -0.43247073D-05 -0.12567786D-05
  0.43985088D-04  0.38741092D-04 -0.73833526D-04  0.54170563D-04  0.19662962D-04
 -0.49518398D-05 -0.17292801D-05  0.75908698D-04 -0.96003240D-05 -0.12039106D-04
  0.21639430D-04  0.99872076D-09  0.80912085D-07 -0.34536791D-04 -0.36084905D-05
 -0.65080612D-05 -0.95961324D-05  0.76870584D-03  0.24216192D-03  0.54160966D-05
  0.85324147D-04 -0.49591900D-04  0.30201217D-04  0.17550681D-03 -0.10517903D-03
 -0.70440834D-05  0.39125815D-04 -0.23372231D-04  0.38211383D-04  0.21664819D-04
 -0.40796283D-04  0.19131465D-04 -0.11329968D-03  0.65647752D-04 -0.38859024D-04
 -0.10982636D-04 -0.10494030D-04  0.21476666D-04  0.79231036D-06 -0.30404216D-04
  0.17629199D-04 -0.60102664D-05 -0.10839763D-04 -0.15983224D-04  0.73557479D-03
  0.22973098D-03  0.46973945D-05 -0.80427834D-04 -0.46146894D-04  0.26776741D-04
 -0.16935757D-03 -0.94202699D-04 -0.14668075D-05 -0.37063882D-04 -0.20707393D-04
  0.39303552D-04  0.22480701D-04 -0.42917144D-04  0.20436443D-04  0.10827591D-03
 -0.65957886D-04 -0.37001137D-04 -0.11848576D-04 -0.99256174D-05  0.21774193D-04
 -0.32742160D-05  0.29484695D-04  0.16989366D-04 -0.15460734D+00 -0.28925384D+00
 -0.49976648D+00 -0.81018019D+00 -0.12303364D+01 -0.17100518D+01 -0.20331205D+01
 -0.18111744D+01 -0.89946752D+00 -0.14480666D+00 -0.15277958D-02 -0.72286432D-03
 -0.24113544D-01 -0.84030872D-01 -0.30260878D+00 -0.66706339D+00 -0.93900996D+00
  0.44793835D-01  0.12288576D+01  0.72661580D+00 -0.15531848D-04 -0.18812861D-03
 -0.39232238D-03 -0.11251123D-02 -0.58425514D-04  0.48520298D-02  0.12536713D-01
 -0.10214324D-01  0.46601480D-01 -0.38465214D-03 -0.13208399D-03  0.40265123D-01
  0.53038586D-01  0.58509863D-01  0.48597022D-01  0.25806367D-01  0.66581777D-02
  0.24438067D-02  0.32190652D-02  0.35511328D-02  0.29494938D-02  0.15662631D-02
  0.40410405D-03  0.59407364D+01  0.78253396D+01  0.86325745D+01  0.71700291D+01
  0.38074844D+01  0.98235088D+00 -0.13157641D-05  0.12719960D-04  0.17936472D-04
  0.25653900D-04 -0.12990774D-06 -0.23527046D-04 -0.86226879D-07  0.83358598D-06
  0.11754433D-05  0.16811948D-05 -0.85133338D-08 -0.15418142D-05 -0.21076831D-03
  0.20375724D-02  0.28731898D-02  0.41094215D-02 -0.20809532D-04 -0.37687271D-02
  0.28110810D-03  0.17124401D-04  0.41649371D-01 -0.29788086D-05 -0.19939320D-06
 -0.48379020D-03 -0.14593251D-06 -0.42870709D-08 -0.98333760D-05 -0.71437767D-05
 -0.71557802D-05  0.14299557D-04 -0.18281160D-05  0.39081527D-05  0.54167290D-07
 -0.11139518D-03 -0.11140284D-03  0.22279802D-03  0.58974664D-06  0.27116562D-05
  0.25904373D-06 -0.14317438D-04 -0.14322399D-04  0.28639837D-04  0.51912090D-07
  0.90693546D-06  0.34674464D-07 -0.37608786D-06 -0.72077712D-05  0.54464274D-05
 -0.38684349D-06  0.21623118D-04 -0.81676393D-05  0.15151071D-05  0.19576568D-09
 -0.81716428D-05  0.13849844D-05  0.38457352D-06  0.20693690D-05 -0.33741067D-04
  0.38750766D-06 -0.61364838D-05  0.50605470D-04 -0.15412282D-05 -0.71623249D-07
  0.50617731D-04 -0.83401059D-06 -0.87903389D-03 -0.16385207D-02 -0.27776576D-02
 -0.42057493D-02 -0.52581129D-02 -0.45229200D-02 -0.17346372D-02 -0.68400540D-06
 -0.90549508D-05 -0.32889229D-04 -0.97565278D-04 -0.11242428D-03  0.13655603D-03
 -0.95924921D-04 -0.15942295D-03  0.12337109D-04 -0.21379702D-04 -0.20908881D-04
 -0.13815382D-04  0.17546933D-05  0.17160517D-05  0.11338679D-05  0.39016649D-02
  0.38157431D-02  0.25212228D-02 -0.56765607D-05  0.37572893D-06  0.87911005D-03
  0.72694151D-06  0.23313091D-07  0.21424389D-04 -0.20540798D-06  0.28310654D-08
  0.93272489D-05 -0.35621534D-04 -0.35633083D-04  0.71254617D-04  0.17277247D-05
 -0.30285212D-05  0.10123287D-06  0.21090112D-04  0.21092790D-04 -0.42182902D-04
 -0.86264946D-06  0.94241590D-06 -0.65403873D-07  0.18094956D-04  0.18100921D-04
 -0.36195877D-04  0.34252969D-06  0.15197465D-05 -0.33584925D-07  0.26372871D-05
 -0.29449803D-05  0.46282603D-04  0.26308412D-05  0.88228035D-05 -0.69348866D-04
 -0.10542703D-04  0.12137492D-07 -0.69498943D-04 -0.31721220D-05 -0.98905589D-06
  0.93512444D-06 -0.25338864D-04 -0.98712410D-06 -0.27750826D-05  0.37982070D-04
  0.39542918D-05 -0.30290751D-07  0.38034522D-04  0.84906144D-06
MO    4     MO 0.0        OCC NO =    2.0000123  ORB. ENERGY =    0.000000
  0.26838127D-01  0.50031675D-01  0.84560346D-01  0.12710997D+00  0.15613183D+00
  0.13176976D+00  0.49548871D-01 -0.14522843D-05 -0.10854925D-04 -0.40567334D-04
 -0.11317654D-03 -0.15162537D-03  0.17904129D-03  0.26465533D-02 -0.36094802D-02
 -0.42150630D-04  0.10984395D-04  0.10298569D-04  0.73331946D-05  0.14371350D-05
  0.13474055D-05  0.95943296D-06  0.36696642D-02  0.34405435D-02  0.24498719D-02
  0.45676172D-04 -0.24463924D-06  0.13054715D-02  0.60301983D-05 -0.38173260D-06
 -0.41700011D-03  0.16038237D-06  0.37169712D-08  0.37070479D-05 -0.31927784D-03
 -0.31920798D-03  0.63848583D-03  0.90125889D-05  0.75712306D-05  0.99661089D-06
  0.98537010D-05  0.97775396D-05 -0.19631241D-04  0.27346911D-04 -0.17072467D-04
  0.17210204D-06 -0.17901147D-04 -0.17865311D-04  0.35766459D-04  0.18713630D-05
 -0.11215463D-05  0.45432029D-07  0.60859272D-06 -0.42332979D-04  0.22575550D-04
  0.53505607D-06  0.12691167D-03 -0.33926004D-04 -0.23608342D-05  0.87264603D-07
 -0.33800644D-04 -0.83327916D-05  0.58894803D-06  0.81984636D-04 -0.16374788D-03
  0.70761442D-06 -0.24547397D-03  0.24569527D-03 -0.24744585D-05 -0.47993263D-06
  0.24554838D-03 -0.69922059D-05 -0.90341799D-04 -0.16293515D-03 -0.24024779D-03
  0.10216498D-02  0.68371113D-03  0.42658419D-05  0.16705294D-05 -0.57983397D-04
  0.33526442D-04 -0.55436615D-05  0.30420168D-03 -0.43462781D-04  0.67164153D-06
  0.11094856D-03  0.75816092D-04 -0.14228746D-03  0.24111891D-04  0.11817557D-03
 -0.16854102D-05 -0.20118182D-05  0.14243166D-03 -0.14719121D-04 -0.21044800D-04
  0.35763921D-04  0.14377339D-05 -0.75943401D-06 -0.62784267D-04 -0.90729991D-04
 -0.16363528D-03 -0.24128012D-03  0.10624310D-02  0.71326982D-03  0.47079960D-05
 -0.43555344D-04  0.26109445D-04  0.37375325D-04  0.27508207D-03 -0.16228036D-03
 -0.52777653D-04  0.99671170D-04 -0.57218111D-04  0.76098475D-04 -0.12467708D-04
 -0.10085840D-03  0.11332610D-03 -0.15509866D-03  0.12296375D-03 -0.71982145D-04
 -0.18325494D-04 -0.16927091D-04  0.35252585D-04  0.38223525D-05 -0.55666820D-04
  0.31744410D-04 -0.89900950D-04 -0.16214007D-03 -0.23907543D-03  0.98256929D-03
  0.65556392D-03  0.38168327D-05  0.56530433D-04  0.31643396D-04  0.29699791D-04
 -0.25219677D-03 -0.14250061D-03 -0.33881505D-04 -0.92504544D-04 -0.53803265D-04
  0.75699371D-04 -0.22663737D-04 -0.10050951D-03  0.12317324D-03  0.13318061D-03
 -0.12391888D-03 -0.70138431D-04 -0.20518345D-04 -0.15672345D-04  0.36190690D-04
 -0.69119840D-05  0.53169097D-04  0.31151640D-04  0.91304933D-01  0.17082179D+00
  0.29514216D+00  0.47846012D+00  0.72658760D+00  0.10098884D+01  0.12006799D+01
  0.10696074D+01  0.53118965D+00  0.85517040D-01  0.90225529D-03  0.42748814D-03
  0.14260289D-01  0.49694251D-01  0.17895705D+00  0.39448854D+00  0.55531254D+00
 -0.26490218D-01 -0.72672289D+00 -0.42970670D+00  0.62772578D-05  0.76032922D-04
  0.15855864D-03  0.45471858D-03  0.23612903D-04 -0.19609671D-02 -0.50667623D-02
  0.41281594D-02 -0.28542464D-01  0.14179506D-02 -0.18184589D-03  0.84209630D-01
  0.11092378D+00  0.12236629D+00  0.10163479D+00  0.53970893D-01  0.13924773D-01
  0.41506027D-02  0.54673147D-02  0.60313040D-02  0.50094702D-02  0.26601677D-02
  0.68633716D-03  0.99145855D+01  0.13059828D+02  0.14407035D+02  0.11966171D+02
  0.63543687D+01  0.16394603D+01 -0.25948404D-05  0.25085247D-04  0.35372817D-04
  0.50592486D-04 -0.25619323D-06 -0.46398081D-04 -0.14051264D-06  0.13583858D-05
  0.19154657D-05  0.27396227D-05 -0.13873064D-07 -0.25124924D-05 -0.33686036D-03
  0.32565492D-02  0.45920743D-02  0.65678810D-02 -0.33258825D-04 -0.60233664D-02
  0.60892119D-03  0.30360515D-04  0.72557217D-01 -0.21900798D-05 -0.12337604D-06
 -0.30630673D-03 -0.18022069D-06 -0.21047114D-08 -0.39505262D-05  0.45441741D-03
  0.45448754D-03 -0.90890495D-03 -0.18647091D-05 -0.15813658D-04 -0.11096399D-05
 -0.30965650D-03 -0.30969160D-03  0.61934810D-03  0.96581836D-06  0.98749712D-05
  0.75449224D-06  0.43345405D-05  0.43318408D-05 -0.86663813D-05 -0.23154004D-07
  0.24616577D-06 -0.14721174D-07 -0.24114269D-06 -0.14486649D-04 -0.46953286D-04
 -0.26304248D-06  0.43602683D-04  0.70425469D-04  0.98647056D-06 -0.14273619D-06
  0.70434390D-04  0.18868104D-05  0.64287407D-06  0.42079977D-05 -0.62595651D-04
  0.64888998D-06 -0.12486690D-04  0.93883642D-04 -0.25775122D-05 -0.13730322D-06
  0.93903310D-04 -0.14748045D-05 -0.63573794D-02 -0.11850166D-01 -0.20088672D-01