 clch3f_ts-wavefunction
GAUSSIAN            211 MOL ORBITALS    339 PRIMITIVES        6 NUCLEI
  C    1    (CENTRE  1)   0.00033070  0.00005480 -0.94053370  CHARGE =  6.0
  H    2    (CENTRE  2)   0.00003590 -2.00796630 -1.17300214  CHARGE =  1.0
  H    3    (CENTRE  3)  -1.72213010  0.99468570 -1.17398291  CHARGE =  1.0
  H    4    (CENTRE  4)   1.72295780  0.99424539 -1.17459707  CHARGE =  1.0
  Cl   5    (CENTRE  5)   0.00104880  0.00181792  3.10806659  CHARGE = 17.0
  F    6    (CENTRE  6)  -0.00035149 -0.00174044 -4.90094425  CHARGE =  9.0
CENTRE ASSIGNMENTS    1  1  1  1  1  1  1  1  1  1  1  1  1  1  1  1  1  1  1  1
CENTRE ASSIGNMENTS    1  1  1  1  1  1  1  1  1  1  1  1  1  1  1  1  1  1  1  1
CENTRE ASSIGNMENTS    1  1  1  1  1  1  1  1  1  1  1  1  1  1  1  1  1  1  1  1
CENTRE ASSIGNMENTS    1  1  1  1  1  1  1  1  1  1  1  1  2  2  2  2  2  2  2  2
CENTRE ASSIGNMENTS    2  2  2  2  2  2  2  2  2  2  2  2  2  2  2  2  2  2  2  3
CENTRE ASSIGNMENTS    3  3  3  3  3  3  3  3  3  3  3  3  3  3  3  3  3  3  3  3
CENTRE ASSIGNMENTS    3  3  3  3  3  3  4  4  4  4  4  4  4  4  4  4  4  4  4  4
CENTRE ASSIGNMENTS    4  4  4  4  4  4  4  4  4  4  4  4  4  5  5  5  5  5  5  5
CENTRE ASSIGNMENTS    5  5  5  5  5  5  5  5  5  5  5  5  5  5  5  5  5  5  5  5
CENTRE ASSIGNMENTS    5  5  5  5  5  5  5  5  5  5  5  5  5  5  5  5  5  5  5  5
CENTRE ASSIGNMENTS    5  5  5  5  5  5  5  5  5  5  5  5  5  5  5  5  5  5  5  5
CENTRE ASSIGNMENTS    5  5  5  5  5  5  5  5  5  5  5  5  5  5  5  5  5  5  5  5
CENTRE ASSIGNMENTS    5  5  5  5  5  5  5  5  5  5  5  5  5  5  5  5  5  5  5  5
CENTRE ASSIGNMENTS    5  5  5  5  5  5  5  6  6  6  6  6  6  6  6  6  6  6  6  6
CENTRE ASSIGNMENTS    6  6  6  6  6  6  6  6  6  6  6  6  6  6  6  6  6  6  6  6
CENTRE ASSIGNMENTS    6  6  6  6  6  6  6  6  6  6  6  6  6  6  6  6  6  6  6  6
CENTRE ASSIGNMENTS    6  6  6  6  6  6  6  6  6  6  6  6  6  6  6  6  6  6  6
TYPE ASSIGNMENTS      1  1  1  1  1  1  1  1  1  1  1  1  1  1  1  1  2  2  2  3
TYPE ASSIGNMENTS      3  3  4  4  4  2  3  4  2  3  4  2  3  4  5  6  7  8  9 10
TYPE ASSIGNMENTS      5  6  7  8  9 10  5  6  7  8  9 10 11 12 13 17 14 15 18 19
TYPE ASSIGNMENTS     16 20 11 12 13 17 14 15 18 19 16 20  1  1  1  1  1  1  2  3
TYPE ASSIGNMENTS      4  2  3  4  2  3  4  5  6  7  8  9 10  5  6  7  8  9 10  1
TYPE ASSIGNMENTS      1  1  1  1  1  2  3  4  2  3  4  2  3  4  5  6  7  8  9 10
TYPE ASSIGNMENTS      5  6  7  8  9 10  1  1  1  1  1  1  2  3  4  2  3  4  2  3
TYPE ASSIGNMENTS      4  5  6  7  8  9 10  5  6  7  8  9 10  1  1  1  1  1  1  1
TYPE ASSIGNMENTS      1  1  1  1  1  1  1  1  1  1  1  1  1  1  1  1  1  1  1  1
TYPE ASSIGNMENTS      1  1  1  1  2  2  2  2  2  2  3  3  3  3  3  3  4  4  4  4
TYPE ASSIGNMENTS      4  4  2  2  2  2  2  2  3  3  3  3  3  3  4  4  4  4  4  4
TYPE ASSIGNMENTS      2  3  4  2  3  4  2  3  4  5  6  7  8  9 10  5  6  7  8  9
TYPE ASSIGNMENTS     10  5  6  7  8  9 10 11 12 13 17 14 15 18 19 16 20 11 12 13
TYPE ASSIGNMENTS     17 14 15 18 19 16 20  1  1  1  1  1  1  1  1  1  1  1  1  1
TYPE ASSIGNMENTS      1  1  1  2  2  2  3  3  3  4  4  4  2  3  4  2  3  4  2  3
TYPE ASSIGNMENTS      4  5  6  7  8  9 10  5  6  7  8  9 10  5  6  7  8  9 10 11
TYPE ASSIGNMENTS     12 13 17 14 15 18 19 16 20 11 12 13 17 14 15 18 19 16 20
EXPONENTS  0.8236000D+04 0.1235000D+04 0.2808000D+03 0.7927000D+02 0.2559000D+02
EXPONENTS  0.8997000D+01 0.3319000D+01 0.2808000D+03 0.7927000D+02 0.2559000D+02
EXPONENTS  0.8997000D+01 0.3319000D+01 0.3643000D+00 0.9059000D+00 0.1285000D+00
EXPONENTS  0.4402000D-01 0.1871000D+02 0.4133000D+01 0.1200000D+01 0.1871000D+02
EXPONENTS  0.4133000D+01 0.1200000D+01 0.1871000D+02 0.4133000D+01 0.1200000D+01
EXPONENTS  0.3827000D+00 0.3827000D+00 0.3827000D+00 0.1209000D+00 0.1209000D+00
EXPONENTS  0.1209000D+00 0.3569000D-01 0.3569000D-01 0.3569000D-01 0.1097000D+01
EXPONENTS  0.1097000D+01 0.1097000D+01 0.1097000D+01 0.1097000D+01 0.1097000D+01
EXPONENTS  0.3180000D+00 0.3180000D+00 0.3180000D+00 0.3180000D+00 0.3180000D+00
EXPONENTS  0.3180000D+00 0.1000000D+00 0.1000000D+00 0.1000000D+00 0.1000000D+00
EXPONENTS  0.1000000D+00 0.1000000D+00 0.7610000D+00 0.7610000D+00 0.7610000D+00
EXPONENTS  0.7610000D+00 0.7610000D+00 0.7610000D+00 0.7610000D+00 0.7610000D+00
EXPONENTS  0.7610000D+00 0.7610000D+00 0.2680000D+00 0.2680000D+00 0.2680000D+00
EXPONENTS  0.2680000D+00 0.2680000D+00 0.2680000D+00 0.2680000D+00 0.2680000D+00
EXPONENTS  0.2680000D+00 0.2680000D+00 0.3387000D+02 0.5095000D+01 0.1159000D+01
EXPONENTS  0.3258000D+00 0.1027000D+00 0.2526000D-01 0.1407000D+01 0.1407000D+01
EXPONENTS  0.1407000D+01 0.3880000D+00 0.3880000D+00 0.3880000D+00 0.1020000D+00
EXPONENTS  0.1020000D+00 0.1020000D+00 0.1057000D+01 0.1057000D+01 0.1057000D+01
EXPONENTS  0.1057000D+01 0.1057000D+01 0.1057000D+01 0.2470000D+00 0.2470000D+00
EXPONENTS  0.2470000D+00 0.2470000D+00 0.2470000D+00 0.2470000D+00 0.3387000D+02
EXPONENTS  0.5095000D+01 0.1159000D+01 0.3258000D+00 0.1027000D+00 0.2526000D-01
EXPONENTS  0.1407000D+01 0.1407000D+01 0.1407000D+01 0.3880000D+00 0.3880000D+00
EXPONENTS  0.3880000D+00 0.1020000D+00 0.1020000D+00 0.1020000D+00 0.1057000D+01
EXPONENTS  0.1057000D+01 0.1057000D+01 0.1057000D+01 0.1057000D+01 0.1057000D+01
EXPONENTS  0.2470000D+00 0.2470000D+00 0.2470000D+00 0.2470000D+00 0.2470000D+00
EXPONENTS  0.2470000D+00 0.3387000D+02 0.5095000D+01 0.1159000D+01 0.3258000D+00
EXPONENTS  0.1027000D+00 0.2526000D-01 0.1407000D+01 0.1407000D+01 0.1407000D+01
EXPONENTS  0.3880000D+00 0.3880000D+00 0.3880000D+00 0.1020000D+00 0.1020000D+00
EXPONENTS  0.1020000D+00 0.1057000D+01 0.1057000D+01 0.1057000D+01 0.1057000D+01
EXPONENTS  0.1057000D+01 0.1057000D+01 0.2470000D+00 0.2470000D+00 0.2470000D+00
EXPONENTS  0.2470000D+00 0.2470000D+00 0.2470000D+00 0.4561000D+06 0.6833000D+05
EXPONENTS  0.1555000D+05 0.4405000D+04 0.1439000D+04 0.5204000D+03 0.2031000D+03
EXPONENTS  0.8396000D+02 0.3620000D+02 0.1583000D+02 0.6334000D+01 0.4405000D+04
EXPONENTS  0.1439000D+04 0.5204000D+03 0.2031000D+03 0.8396000D+02 0.3620000D+02
EXPONENTS  0.1583000D+02 0.6334000D+01 0.2694000D+01 0.1439000D+04 0.2031000D+03
EXPONENTS  0.8396000D+02 0.3620000D+02 0.1583000D+02 0.6334000D+01 0.2694000D+01
EXPONENTS  0.4313000D+00 0.9768000D+00 0.1625000D+00 0.5910000D-01 0.6633000D+03
EXPONENTS  0.1568000D+03 0.4998000D+02 0.1842000D+02 0.7240000D+01 0.2922000D+01
EXPONENTS  0.6633000D+03 0.1568000D+03 0.4998000D+02 0.1842000D+02 0.7240000D+01
EXPONENTS  0.2922000D+01 0.6633000D+03 0.1568000D+03 0.4998000D+02 0.1842000D+02
EXPONENTS  0.7240000D+01 0.2922000D+01 0.1568000D+03 0.4998000D+02 0.1842000D+02
EXPONENTS  0.7240000D+01 0.2922000D+01 0.3818000D+00 0.1568000D+03 0.4998000D+02
EXPONENTS  0.1842000D+02 0.7240000D+01 0.2922000D+01 0.3818000D+00 0.1568000D+03
EXPONENTS  0.4998000D+02 0.1842000D+02 0.7240000D+01 0.2922000D+01 0.3818000D+00
EXPONENTS  0.1022000D+01 0.1022000D+01 0.1022000D+01 0.1301000D+00 0.1301000D+00
EXPONENTS  0.1301000D+00 0.4190000D-01 0.4190000D-01 0.4190000D-01 0.1046000D+01
EXPONENTS  0.1046000D+01 0.1046000D+01 0.1046000D+01 0.1046000D+01 0.1046000D+01
EXPONENTS  0.3440000D+00 0.3440000D+00 0.3440000D+00 0.3440000D+00 0.3440000D+00
EXPONENTS  0.3440000D+00 0.1350000D+00 0.1350000D+00 0.1350000D+00 0.1350000D+00
EXPONENTS  0.1350000D+00 0.1350000D+00 0.7060000D+00 0.7060000D+00 0.7060000D+00
EXPONENTS  0.7060000D+00 0.7060000D+00 0.7060000D+00 0.7060000D+00 0.7060000D+00
EXPONENTS  0.7060000D+00 0.7060000D+00 0.3120000D+00 0.3120000D+00 0.3120000D+00
EXPONENTS  0.3120000D+00 0.3120000D+00 0.3120000D+00 0.3120000D+00 0.3120000D+00
EXPONENTS  0.3120000D+00 0.3120000D+00 0.1950000D+05 0.2923000D+04 0.6645000D+03
EXPONENTS  0.1875000D+03 0.6062000D+02 0.2142000D+02 0.7950000D+01 0.6645000D+03
EXPONENTS  0.1875000D+03 0.6062000D+02 0.2142000D+02 0.7950000D+01 0.8815000D+00
EXPONENTS  0.2257000D+01 0.3041000D+00 0.9158000D-01 0.4388000D+02 0.9926000D+01
EXPONENTS  0.2930000D+01 0.4388000D+02 0.9926000D+01 0.2930000D+01 0.4388000D+02
EXPONENTS  0.9926000D+01 0.2930000D+01 0.9132000D+00 0.9132000D+00 0.9132000D+00
EXPONENTS  0.2672000D+00 0.2672000D+00 0.2672000D+00 0.7361000D-01 0.7361000D-01
EXPONENTS  0.7361000D-01 0.3107000D+01 0.3107000D+01 0.3107000D+01 0.3107000D+01
EXPONENTS  0.3107000D+01 0.3107000D+01 0.8550000D+00 0.8550000D+00 0.8550000D+00
EXPONENTS  0.8550000D+00 0.8550000D+00 0.8550000D+00 0.2920000D+00 0.2920000D+00
EXPONENTS  0.2920000D+00 0.2920000D+00 0.2920000D+00 0.2920000D+00 0.1917000D+01
EXPONENTS  0.1917000D+01 0.1917000D+01 0.1917000D+01 0.1917000D+01 0.1917000D+01
EXPONENTS  0.1917000D+01 0.1917000D+01 0.1917000D+01 0.1917000D+01 0.7240000D+00
EXPONENTS  0.7240000D+00 0.7240000D+00 0.7240000D+00 0.7240000D+00 0.7240000D+00
EXPONENTS  0.7240000D+00 0.7240000D+00 0.7240000D+00 0.7240000D+00
MO    1     MO 0.0        OCC NO =    2.0000300  ORB. ENERGY =    0.000000
 -0.15203118D-04 -0.28341675D-04 -0.47901291D-04 -0.72004575D-04 -0.88444724D-04
 -0.74644227D-04 -0.28068179D-04 -0.18918511D-07 -0.14140415D-06 -0.52845958D-06
 -0.14743200D-05 -0.19751823D-05  0.23323220D-05  0.55824145D-06  0.23854391D-04
  0.51746029D-06  0.98817238D-08  0.92647442D-08  0.65970498D-08  0.10859726D-03
  0.10181684D-03  0.72499654D-04 -0.29935474D-07 -0.28066410D-07 -0.19984956D-07
  0.32609843D-07  0.34975676D-03  0.40217419D-05  0.41249223D-07  0.45744437D-03
 -0.19169120D-05  0.82018268D-09  0.93729753D-05 -0.22264875D-07  0.62497080D-04
 -0.62295412D-04 -0.20166846D-06 -0.12736128D-06 -0.69974853D-07 -0.51243266D-03
  0.19187630D-03 -0.19105161D-03 -0.82469209D-06 -0.93977554D-07 -0.58849397D-07
  0.94982972D-04  0.41018804D-04 -0.40991786D-04 -0.27017856D-07 -0.35326004D-07
 -0.20325452D-07 -0.65916922D-04  0.12732790D-07  0.92346490D-04 -0.73232687D-06
  0.35477753D-08  0.92450366D-04  0.23961802D-04 -0.41746146D-07 -0.36948984D-03
 -0.21764821D-04 -0.17538676D-06  0.68067253D-08 -0.27103212D-04 -0.29581805D-06
 -0.11527590D-07 -0.25674297D-04  0.50371326D-04 -0.88925858D-08  0.10698393D-03
 -0.49483872D-04  0.18021178D-07 -0.40879628D-04 -0.73728092D-04 -0.10871203D-03
  0.34724453D-03  0.10981903D-02 -0.12113237D-04  0.12189497D-07  0.67778676D-04
  0.21577213D-04  0.79702532D-07  0.28369934D-03  0.26325175D-03  0.22941397D-07
  0.17005572D-03  0.22035424D-04 -0.11034577D-03  0.44863090D-04  0.65482685D-04
  0.90426513D-07  0.10055332D-06  0.29332372D-03 -0.43022839D-04 -0.11611604D-04
  0.54634443D-04  0.12436214D-07  0.36155609D-07  0.30825995D-04  0.20021083D-04
  0.36108848D-04  0.53242476D-04 -0.18448032D-03 -0.55774754D-03  0.59998893D-05
 -0.29102879D-04  0.21518902D-04 -0.12287392D-04 -0.86920692D-04  0.13307724D-03
 -0.13478288D-03 -0.41260038D-04  0.98931905D-04 -0.11053286D-04  0.10041460D-04
  0.24513729D-04 -0.34555189D-04  0.78321188D-04 -0.14878322D-03  0.38806293D-04
  0.20918389D-04  0.70916874D-05 -0.28010076D-04  0.25626454D-04  0.13047761D-04
  0.53406628D-04  0.20018510D-04  0.36104207D-04  0.53235632D-04 -0.18445746D-03
 -0.55768167D-03  0.59993600D-05  0.29099580D-04  0.21509201D-04 -0.12295732D-04
  0.86888908D-04  0.13304884D-03 -0.13479958D-03  0.41271142D-04  0.98918899D-04
 -0.11067292D-04  0.10075700D-04  0.24528162D-04 -0.34603862D-04 -0.78290922D-04
  0.14874816D-03  0.38788158D-04  0.20906493D-04  0.70955127D-05 -0.28002006D-04
 -0.25613572D-04 -0.13071676D-04  0.53420241D-04  0.59337348D-04  0.11101385D-03
  0.19180730D-03  0.31094217D-03  0.47219553D-03  0.65630736D-03  0.78029916D-03
  0.69511760D-03  0.34521010D-03  0.55575906D-04  0.58635863D-06  0.27870562D-06
  0.92971529D-05  0.32398717D-04  0.11667302D-03  0.25719116D-03  0.36204215D-03
 -0.17270590D-04 -0.47379502D-03 -0.28015203D-03  0.53399523D-08  0.64679863D-07
  0.13488304D-06  0.38682106D-06  0.20087079D-07 -0.16681600D-05 -0.43102051D-05
  0.35117522D-05 -0.17372278D-04  0.23078859D-05 -0.32506594D-07  0.10779552D-02
  0.14199192D-02  0.15663931D-02  0.13010121D-02  0.69087355D-03  0.17824899D-03
  0.11610740D+02  0.15294061D+02  0.16871743D+02  0.14013304D+02  0.74414532D+01
  0.19199338D+01 -0.54790995D-03 -0.72172558D-03 -0.79617629D-03 -0.66128674D-03
 -0.35116161D-03 -0.90601531D-04 -0.42631501D-07  0.41213392D-06  0.58115185D-06
  0.83120087D-06 -0.42090842D-08 -0.76228960D-06 -0.45950621D-03  0.44422104D-02
  0.62639804D-02  0.89591490D-02 -0.45367869D-04 -0.82163846D-02 -0.11394911D-07
  0.11015867D-06  0.15533522D-06  0.22217045D-06 -0.11250399D-08 -0.20375126D-06
  0.71158243D-05  0.76652339D-01 -0.27346163D-05 -0.60050853D-07 -0.64371596D-03
 -0.27856924D-06 -0.53914588D-08 -0.58000222D-04  0.96328213D-08  0.12529737D-04
 -0.12241373D-04 -0.28836381D-06 -0.18101064D-06 -0.94704444D-07 -0.98052159D-03
 -0.44984523D-05  0.43099703D-05  0.18848201D-06  0.65637238D-07  0.34061882D-07
  0.35577387D-03  0.13014456D-05 -0.13115366D-05  0.10090958D-07 -0.11513859D-07
 -0.60040077D-08 -0.61082096D-04  0.64757170D-08  0.22497625D-05 -0.57641997D-07
 -0.62095685D-08  0.26063421D-05  0.35302571D-04 -0.13217582D-07 -0.93556295D-05
 -0.35129645D-04 -0.24317695D-07  0.28419622D-10  0.14646361D-04 -0.10245147D-09
  0.26634472D-08  0.14535909D-04 -0.72229032D-05 -0.27487060D-08 -0.58474992D-04
  0.72232105D-05 -0.21833038D-07 -0.22902693D-05 -0.42690659D-05 -0.72370177D-05
 -0.10957824D-04 -0.13699693D-04 -0.11784193D-04 -0.45194915D-05 -0.15398969D-08
 -0.20385351D-07 -0.74043305D-07 -0.21964807D-06 -0.25310003D-06  0.30742769D-06
 -0.27889620D-06 -0.44449689D-06  0.21664278D-06 -0.26580511D-07 -0.25995159D-07
 -0.17176101D-07 -0.29519805D-03 -0.28869725D-03 -0.19075448D-03  0.43339931D-05
  0.42385506D-05  0.28005896D-05 -0.19002121D-08 -0.87630814D-05  0.12884848D-05
 -0.52413988D-08 -0.67503671D-04 -0.46963799D-06 -0.17762153D-08 -0.19612234D-04
  0.87542783D-07  0.70916172D-04 -0.70864695D-04 -0.51476590D-07 -0.63376179D-07
 -0.36855994D-07 -0.13210975D-03 -0.35562593D-04  0.35482892D-04  0.79701078D-07
  0.37838644D-07  0.21566919D-07  0.10194844D-03  0.18048703D-04 -0.17793319D-04
 -0.25538319D-06 -0.22907666D-07 -0.12334323D-07 -0.74473639D-04 -0.37478159D-07
 -0.71945030D-04  0.39331989D-06  0.24593524D-07 -0.71917274D-04 -0.18803891D-03
  0.87840952D-07  0.28775236D-03  0.18685895D-03  0.22881199D-06  0.12103887D-07
  0.25551123D-04 -0.15078928D-06 -0.76409282D-08  0.25568599D-04  0.59687185D-04
 -0.28670732D-07 -0.10222197D-03 -0.59234817D-04 -0.77198241D-07
MO    2     MO 0.0        OCC NO =    2.0000300  ORB. ENERGY =    0.000000
 -0.33633368D-09 -0.62699374D-09 -0.10597048D-08 -0.15929340D-08 -0.19566341D-08
 -0.16513302D-08 -0.62094328D-09  0.51925385D-12  0.38811008D-11  0.14504560D-10
  0.40465464D-10  0.54212565D-10 -0.64014931D-10 -0.24977444D-09  0.87094739D-08
  0.22788395D-08  0.11105116D-03  0.10411752D-03  0.74137880D-04 -0.10517831D-07
 -0.98611349D-08 -0.70217155D-08 -0.21752070D-07 -0.20393948D-07 -0.14521706D-07
  0.36294916D-03 -0.34135552D-07 -0.61595520D-07  0.46338731D-03 -0.43893708D-07
 -0.85764206D-07  0.93404421D-05 -0.91295264D-09 -0.16911487D-08 -0.71913018D-07
 -0.17708394D-07  0.89621412D-07  0.12800404D-03 -0.51048186D-03  0.24491662D-07
  0.73005639D-07 -0.54594637D-07 -0.18411002D-07  0.38494506D-03  0.97988200D-04
 -0.76687828D-07 -0.25380008D-09 -0.11994452D-07  0.12248252D-07  0.81579693D-04
 -0.65993390D-04 -0.79919224D-08  0.92040793D-04 -0.93419132D-08  0.66322953D-07
  0.94362175D-04  0.14032785D-08 -0.17302019D-06 -0.37048456D-03  0.26622461D-07
 -0.25948665D-07  0.52031424D-04 -0.27020811D-04  0.22304725D-08 -0.19562108D-07
 -0.25945036D-04  0.21637819D-07  0.67334547D-07  0.10700747D-03 -0.28329236D-07
 -0.86482248D-08  0.99187484D-04 -0.11799177D-08 -0.21280302D-08 -0.31377793D-08
  0.67552405D-08  0.36770246D-07 -0.61383599D-09  0.56739764D-05  0.67298508D-09
 -0.45138484D-09  0.79005611D-04 -0.20446779D-08 -0.51927016D-08  0.73845104D-04
 -0.34486868D-08 -0.12050512D-07 -0.71573397D-08 -0.28900802D-08  0.10047420D-07
  0.29813871D-04 -0.46415825D-04  0.11595146D-07  0.12870754D-07 -0.36742497D-08
 -0.91965043D-08  0.28378466D-04  0.59450844D-04 -0.11885764D-07 -0.34725321D-04
 -0.62628547D-04 -0.92345755D-04  0.31606974D-03  0.97071654D-03 -0.10505175D-04
  0.54706812D-04 -0.29106214D-04  0.21550977D-04  0.23667583D-03 -0.87194740D-04
  0.23315126D-03  0.14786098D-03 -0.41850184D-04  0.19331699D-04  0.10536881D-04
 -0.69217558D-04  0.58680677D-04 -0.10598747D-03  0.21157810D-03 -0.14899346D-03
 -0.10887144D-04 -0.37090097D-04  0.47977241D-04 -0.16307445D-04  0.38431025D-04
  0.12971798D-04  0.34726732D-04  0.62631091D-04  0.92349507D-04 -0.31609046D-03
 -0.97075621D-03  0.10505492D-04  0.54709121D-04  0.29094041D-04 -0.21570683D-04
  0.23662206D-03  0.87143575D-04 -0.23324773D-03  0.14786765D-03  0.41819233D-04
 -0.19385474D-04 -0.10487568D-04  0.69246279D-04 -0.58758711D-04 -0.10589885D-03
  0.21159378D-03  0.14897952D-03  0.10898391D-04  0.37095119D-04 -0.47993510D-04
 -0.16300316D-04  0.38386074D-04 -0.12972285D-04 -0.31749280D-07 -0.59399515D-07
 -0.10262919D-06 -0.16637397D-06 -0.25265484D-06 -0.35116646D-06 -0.41751001D-06
 -0.37193242D-06 -0.18470951D-06 -0.29736668D-07 -0.31373941D-09 -0.14873925D-09
 -0.49616923D-08 -0.17290504D-07 -0.62265906D-07 -0.13725744D-06 -0.19321418D-06
  0.92169460D-08  0.25285431D-06  0.14951117D-06 -0.30090593D-11 -0.36447056D-10
 -0.76006494D-10 -0.21797339D-09 -0.11319055D-10  0.94000698D-09  0.24287975D-08
 -0.19788699D-08  0.87382568D-08 -0.34498821D-09 -0.50079155D-09  0.11610730D+02
  0.15294048D+02  0.16871728D+02  0.14013292D+02  0.74414467D+01  0.19199321D+01
 -0.10780478D-02 -0.14200411D-02 -0.15665276D-02 -0.13011238D-02 -0.69093286D-03
 -0.17826429D-03 -0.20605982D-02 -0.27142899D-02 -0.29942866D-02 -0.24869895D-02
 -0.13206604D-02 -0.34073729D-03 -0.45947405D-03  0.44418995D-02  0.62635419D-02
  0.89585218D-02 -0.45364694D-04 -0.82158095D-02  0.42697148D-07 -0.41276855D-06
 -0.58204675D-06 -0.83248082D-06  0.42155657D-08  0.76346343D-06  0.81470828D-07
 -0.78760754D-06 -0.11106088D-05 -0.15884644D-05  0.80437604D-08  0.14567717D-05
  0.76654249D-01 -0.71181175D-05 -0.13602924D-04 -0.64353836D-03  0.59523841D-07
  0.11389418D-06 -0.57985970D-04  0.53762467D-08  0.10349281D-07 -0.17018990D-06
 -0.35865098D-08  0.17377641D-06  0.24950442D-04 -0.97995379D-03  0.87449831D-07
  0.61662221D-07  0.99009350D-09 -0.62652314D-07 -0.85578421D-05  0.35594849D-03
 -0.32166538D-07 -0.10474178D-07 -0.44736073D-09  0.10921539D-07  0.25203754D-05
 -0.61024718D-04  0.53425875D-08  0.23883699D-05 -0.26543177D-09  0.15990207D-08
  0.23422991D-05  0.12133722D-07  0.56597433D-08 -0.95074087D-05 -0.11337426D-07
 -0.10456805D-07  0.70018275D-04  0.14639493D-04 -0.13931340D-08  0.10299763D-07
  0.14654098D-04 -0.39529011D-08 -0.30566717D-07 -0.58572576D-04  0.81323032D-08
 -0.33257054D-09 -0.14506154D-04  0.50308817D-08  0.93775721D-08  0.15897074D-07
  0.24070320D-07  0.30093201D-07  0.25885549D-07  0.99276653D-08 -0.12445411D-10
 -0.16475394D-09 -0.59841628D-09 -0.17751906D-08 -0.20455486D-08  0.24846235D-08
  0.11534558D-09 -0.42784058D-08 -0.40875410D-08 -0.29112001D-03 -0.28470901D-03
 -0.18811928D-03  0.27113160D-07  0.26516079D-07  0.17520294D-07  0.47584391D-07
  0.46536495D-07  0.30748630D-07 -0.84294369D-05 -0.53308027D-09  0.31420219D-08
 -0.66775347D-04  0.73088530D-08  0.71114790D-08 -0.19528085D-04  0.18425749D-08
  0.29207453D-08 -0.33802122D-08 -0.21409562D-07  0.24789774D-07  0.14150478D-03
 -0.13277529D-03 -0.12177502D-07  0.76804733D-08  0.10685698D-07 -0.18366171D-07
 -0.70957991D-04  0.10207054D-03  0.25608485D-08 -0.71478947D-08 -0.49338786D-08
  0.12081773D-07  0.35894908D-04 -0.74193874D-04  0.15952369D-08 -0.71824004D-04
  0.79693488D-08 -0.48806021D-07 -0.70955309D-04 -0.58290376D-07  0.79304346D-07
  0.28642732D-03  0.34382330D-07  0.67113717D-07 -0.37652098D-03  0.25493311D-04
 -0.28467770D-08  0.17111870D-07  0.25228152D-04  0.18210297D-07 -0.29878800D-07
 -0.10170809D-03 -0.96699665D-08 -0.21456809D-07  0.11947484D-03
MO    3     MO 0.0        OCC NO =    2.0000210  ORB. ENERGY =    0.000000
 -0.14470731D-01 -0.26976358D-01 -0.45593720D-01 -0.68535865D-01 -0.84184035D-01
 -0.71048355D-01 -0.26716037D-01 -0.38227403D-05 -0.28572615D-04 -0.10678239D-03
 -0.29790623D-03 -0.39911222D-03  0.47127711D-03 -0.87118138D-03 -0.19253485D-02
 -0.81359368D-04  0.20859426D-06  0.19557037D-06  0.13925776D-06  0.49790342D-05
  0.46681610D-05  0.33240088D-05  0.11654025D-02  0.10926389D-02  0.77802399D-03
  0.10231669D-06 -0.13700442D-04  0.60419889D-03 -0.67666712D-07 -0.50803983D-05
 -0.37812472D-03  0.83039080D-09 -0.19206784D-07  0.46757164D-05 -0.10707633D-03
 -0.10229813D-03  0.20937447D-03  0.19511954D-09  0.11314911D-06  0.81540279D-06
 -0.27801715D-04 -0.21562854D-04  0.49364569D-04  0.15526012D-08  0.27571193D-07
  0.30988355D-05  0.11276484D-04  0.11710263D-04 -0.22986748D-04  0.10954798D-09
 -0.12202844D-07 -0.33940637D-06 -0.15691077D-07  0.36001961D-04  0.75177525D-05
  0.39257346D-07 -0.10895189D-03 -0.10613778D-04  0.78158848D-08  0.94601021D-06
 -0.11939480D-04  0.38648438D-07  0.29512906D-08  0.52176975D-04 -0.85456246D-04
  0.81955079D-07 -0.15592904D-03  0.12876943D-03 -0.90808951D-07 -0.60188687D-06
  0.12759930D-03  0.54755859D-07 -0.58602261D-05 -0.10569159D-04 -0.15584219D-04
  0.73672683D-03  0.21972975D-03  0.47965197D-05  0.16382484D-07  0.91978616D-04
  0.25376355D-04  0.24272453D-07  0.19767867D-03 -0.16426514D-05  0.11972029D-07
  0.41639077D-04  0.37689789D-04 -0.73290568D-04  0.54905427D-04  0.18385142D-04
  0.45609282D-07  0.42143286D-07  0.74921288D-04 -0.94088098D-05 -0.12480312D-04
  0.21889121D-04 -0.68035351D-08  0.67655424D-08 -0.33808245D-04 -0.47000753D-05
 -0.84767793D-05 -0.12499006D-04  0.75895072D-03  0.24011901D-03  0.51193779D-05
  0.83737993D-04 -0.47513018D-04  0.28906379D-04  0.17540829D-03 -0.10289717D-03
 -0.43064395D-05  0.38654988D-04 -0.22907026D-04  0.38881047D-04  0.22873021D-04
 -0.41965279D-04  0.19092258D-04 -0.11235326D-03  0.65780045D-04 -0.38330701D-04
 -0.11520249D-04 -0.10156776D-04  0.21677025D-04  0.11887054D-05 -0.29865704D-04
  0.17579083D-04 -0.46999214D-05 -0.84765018D-05 -0.12498597D-04  0.75895496D-03
  0.24011976D-03  0.51193501D-05 -0.83740028D-04 -0.47492150D-04  0.28936567D-04
 -0.17543697D-03 -0.10285265D-03 -0.42427800D-05 -0.38647102D-04 -0.22897279D-04
  0.38895056D-04  0.22878459D-04 -0.41993596D-04  0.19115138D-04  0.11230646D-03
 -0.65793576D-04 -0.38354646D-04 -0.11509890D-04 -0.10156549D-04  0.21666439D-04
 -0.11816025D-05  0.29893516D-04  0.17571864D-04 -0.15465616D+00 -0.28934517D+00
 -0.49992428D+00 -0.81043599D+00 -0.12307248D+01 -0.17105917D+01 -0.20337625D+01
 -0.18117463D+01 -0.89975151D+00 -0.14485238D+00 -0.15282782D-02 -0.72309194D-03
 -0.24121137D-01 -0.84057332D-01 -0.30270406D+00 -0.66727344D+00 -0.93930564D+00
  0.44807940D-01  0.12292445D+01  0.72684461D+00 -0.15534703D-04 -0.18816319D-03
 -0.39239450D-03 -0.11253191D-02 -0.58436255D-04  0.48529218D-02  0.12539018D-01
 -0.10216202D-01  0.46617445D-01 -0.38515232D-03 -0.13208188D-03  0.10519853D-02
  0.13857107D-02  0.15286558D-02  0.12696683D-02  0.67422911D-03  0.17395463D-03
  0.35277657D-02  0.46468927D-02  0.51262501D-02  0.42577521D-02  0.22609845D-02
  0.58334582D-03  0.59355633D+01  0.78185254D+01  0.86250574D+01  0.71637855D+01
  0.38041689D+01  0.98149546D+00 -0.37314741D-07  0.36073490D-06  0.50867387D-06
  0.72753819D-06 -0.36841510D-08 -0.66722114D-06 -0.13833794D-06  0.13373622D-05
  0.18858203D-05  0.26972219D-05 -0.13658352D-07 -0.24736069D-05 -0.21052006D-03
  0.20351725D-02  0.28698056D-02  0.41045812D-02 -0.20785021D-04 -0.37642881D-02
  0.73756537D-05  0.24335523D-04  0.41612660D-01 -0.85738058D-07 -0.12860821D-06
 -0.48326981D-03 -0.17364059D-08 -0.16200293D-07 -0.98303976D-05 -0.74329067D-05
 -0.79219777D-05  0.15354884D-04 -0.18427245D-09  0.78192719D-08 -0.55476217D-06
 -0.11106989D-03 -0.11094709D-03  0.22201698D-03  0.75214022D-10  0.11839785D-06
  0.34281082D-06 -0.14304805D-04 -0.14264968D-04  0.28569774D-04  0.16800564D-10
  0.15262248D-07 -0.78810219D-07  0.12181412D-08 -0.72004771D-05  0.54669425D-05
 -0.97199052D-08  0.21760024D-04 -0.84428755D-05  0.60654817D-08 -0.15859232D-06
 -0.79579520D-05 -0.73959570D-08  0.82192162D-08  0.20614201D-05 -0.33584576D-04
  0.11302011D-07 -0.61674761D-05  0.50516884D-04 -0.35959659D-07 -0.16784332D-07
  0.50236844D-04  0.20148357D-08 -0.87862078D-03 -0.16377506D-02 -0.27763522D-02
 -0.42037727D-02 -0.52556418D-02 -0.45207944D-02 -0.17338219D-02 -0.68094771D-06
 -0.90144726D-05 -0.32742205D-04 -0.97129134D-04 -0.11192171D-03  0.13594559D-03
 -0.95802970D-04 -0.15832230D-03  0.12693481D-04  0.66735230D-06  0.65265597D-06
  0.43123739D-06  0.57021562D-06  0.55765843D-06  0.36846850D-06  0.38990519D-02
  0.38131876D-02  0.25195343D-02  0.14966198D-06  0.94013526D-07  0.87855910D-03
  0.41588818D-08 -0.60425393D-07  0.21770278D-04  0.15350558D-08 -0.56624369D-07
  0.93499448D-05 -0.35317340D-04 -0.35954628D-04  0.71271969D-04  0.72938185D-09
  0.36410069D-07  0.27298224D-06  0.20897331D-04  0.21179658D-04 -0.42076989D-04
 -0.30429779D-09 -0.21742882D-07 -0.10126518D-06  0.18169502D-04  0.18066065D-04
 -0.36235567D-04  0.47578688D-10 -0.18069203D-07  0.89360123D-07 -0.97991997D-08
 -0.30680931D-05  0.46836103D-04 -0.14684576D-07  0.96637251D-05 -0.70168726D-04
  0.44082175D-07 -0.45944571D-06 -0.70339584D-04 -0.16307841D-08  0.58059102D-08
  0.94400264D-06 -0.25526730D-04  0.73290783D-08 -0.30414564D-05  0.38280734D-04
 -0.24746809D-07  0.20944844D-06  0.38299454D-04  0.51455929D-09
MO    4     MO 0.0        OCC NO =    2.0000123  ORB. ENERGY =    0.000000
  0.26452197D-01  0.49312224D-01  0.83344376D-01  0.12528214D+00  0.15388667D+00
  0.12987492D+00  0.48836363D-01 -0.15243303D-05 -0.11393425D-04 -0.42579830D-04
 -0.11879110D-03 -0.15914732D-03  0.18792331D-03  0.26165338D-02 -0.35893355D-02
 -0.40522674D-04  0.64677790D-06  0.60639540D-06  0.43178965D-06 -0.50380878D-05
 -0.47235276D-05 -0.33634330D-05  0.36686203D-02  0.34395648D-02  0.24491750D-02
  0.22471528D-06 -0.21689539D-04  0.13012736D-02 -0.75819938D-07 -0.11165548D-04
 -0.41503457D-03  0.69491642D-09 -0.52378510D-07  0.37520921D-05 -0.32135537D-03
 -0.31770170D-03  0.63905708D-03 -0.44264849D-09  0.34032378D-06  0.57399770D-06
  0.36235484D-05  0.14721100D-04 -0.18344648D-04  0.37780669D-08 -0.58170488D-08
  0.61004514D-05 -0.18457383D-04 -0.17243522D-04  0.35700905D-04  0.24127069D-09
  0.18647010D-07 -0.52193649D-06  0.10242982D-07 -0.41513684D-04  0.22057799D-04
 -0.53189071D-07  0.12430876D-03 -0.32154543D-04  0.22460124D-07  0.23228946D-06
 -0.34018853D-04 -0.43610834D-07  0.12485186D-07  0.82237095D-04 -0.16344681D-03
  0.13683484D-06 -0.24550153D-03  0.24629414D-03 -0.17429040D-06 -0.12097582D-05
  0.24404629D-03  0.86190273D-07 -0.89358893D-04 -0.16116244D-03 -0.23763393D-03
  0.99356591D-03  0.64965808D-03  0.38894928D-05 -0.27391950D-08 -0.64096765D-04
  0.27906015D-04  0.30794087D-07  0.30096833D-03 -0.37906625D-04  0.26509038D-07
  0.10680256D-03  0.73907420D-04 -0.13862105D-03  0.20331107D-04  0.11828994D-03
  0.65053757D-07  0.10828227D-06  0.13900057D-03 -0.14383634D-04 -0.21224973D-04
  0.35608607D-04 -0.12637216D-07  0.10094171D-07 -0.61150281D-04 -0.90046894D-04
 -0.16240328D-03 -0.23946354D-03  0.10296410D-02  0.69436709D-03  0.43268585D-05
 -0.48321586D-04  0.28881919D-04  0.34666507D-04  0.26751103D-03 -0.15741349D-03
 -0.44250189D-04  0.97174095D-04 -0.57554255D-04  0.76279682D-04 -0.16156613D-04
 -0.10104680D-03  0.11720341D-03 -0.14757530D-03  0.12325901D-03 -0.72040630D-04
 -0.19630047D-04 -0.16009945D-04  0.35639992D-04  0.40009085D-05 -0.54408397D-04
  0.32054071D-04 -0.90047133D-04 -0.16240371D-03 -0.23946418D-03  0.10296444D-02
  0.69437288D-03  0.43266083D-05  0.48341032D-04  0.28869044D-04  0.34649153D-04
 -0.26756755D-03 -0.15734535D-03 -0.44155483D-04 -0.97162427D-04 -0.57529884D-04
  0.76314524D-04 -0.16161197D-04 -0.10108328D-03  0.11724447D-03  0.14750801D-03
 -0.12318320D-03 -0.72061460D-04 -0.19611790D-04 -0.16009193D-04  0.35620983D-04
 -0.39874190D-05  0.54456533D-04  0.32042000D-04  0.91239044D-01  0.17069852D+00
  0.29492917D+00  0.47811484D+00  0.72606327D+00  0.10091596D+01  0.11998135D+01
  0.10688355D+01  0.53080633D+00  0.85455328D-01  0.90160419D-03  0.42718001D-03
  0.14250010D-01  0.49658432D-01  0.17882805D+00  0.39420419D+00  0.55491227D+00
 -0.26471124D-01 -0.72619907D+00 -0.42939696D+00  0.62729402D-05  0.75980624D-04
  0.15844958D-03  0.45440581D-03  0.23596661D-04 -0.19596182D-02 -0.50632772D-02
  0.41253199D-02 -0.28521848D-01  0.14157432D-02 -0.18296889D-03  0.17612143D-02
  0.23199312D-02  0.25592472D-02  0.21256552D-02  0.11287819D-02  0.29123163D-03
 -0.14286317D-02 -0.18818422D-02 -0.20759665D-02 -0.17242527D-02 -0.91562603D-03
 -0.23623630D-03  0.99187433D+01  0.13065305D+02  0.14413077D+02  0.11971189D+02
  0.63570335D+01  0.16401479D+01 -0.59825843D-07  0.57835776D-06  0.81554481D-06
  0.11664448D-05 -0.59067124D-08 -0.10697399D-05  0.27659056D-07 -0.26738995D-06
 -0.37704775D-06 -0.53927802D-06  0.27308280D-08  0.49456881D-06 -0.33684742D-03
  0.32564241D-02  0.45918979D-02  0.65676287D-02 -0.33257547D-04 -0.60231349D-02
  0.12888964D-04 -0.96812278D-05  0.72586024D-01 -0.53638666D-07  0.27042857D-06
 -0.30475915D-03 -0.66679879D-09  0.11878898D-07 -0.39105499D-05  0.45393291D-03
  0.45348793D-03 -0.90742083D-03 -0.33714406D-10 -0.48395829D-06 -0.15776228D-06
 -0.30923351D-03 -0.30908578D-03  0.61831929D-03  0.10234593D-10  0.32959391D-06
  0.24888647D-06  0.44182543D-05  0.45082036D-05 -0.89264579D-05  0.39667519D-11
 -0.49554306D-08 -0.17043793D-06  0.17970013D-07 -0.14445304D-04 -0.47000825D-04
 -0.39838181D-08  0.43818133D-04  0.69867653D-04 -0.49926222D-07 -0.48222131D-06
  0.71134821D-04 -0.15402899D-07  0.15066673D-07  0.41717742D-05 -0.62326676D-04
  0.21317254D-07 -0.12551910D-04  0.93816057D-04 -0.66517272D-07  0.36587114D-07
  0.93163970D-04  0.43450976D-08 -0.63439100D-02 -0.11825059D-01 -0.20046110D-01