 clch3f_ts-wavefunction
GAUSSIAN            211 MOL ORBITALS    339 PRIMITIVES        6 NUCLEI
  C    1    (CENTRE  1)   0.00033070  0.00005480 -0.94053370  CHARGE =  6.0
  H    2    (CENTRE  2)   0.00003590 -1.98906904 -1.17300214  CHARGE =  1.0
  H    3    (CENTRE  3)  -1.72213010  0.99468570 -1.17398291  CHARGE =  1.0
  H    4    (CENTRE  4)   1.72295780  0.99424539 -1.17459707  CHARGE =  1.0
  Cl   5    (CENTRE  5)   0.00104880  0.00181792  3.10806659  CHARGE = 17.0
  F    6    (CENTRE  6)  -0.00035149 -0.02063770 -4.90094425  CHARGE =  9.0
CENTRE ASSIGNMENTS    1  1  1  1  1  1  1  1  1  1  1  1  1  1  1  1  1  1  1  1
CENTRE ASSIGNMENTS    1  1  1  1  1  1  1  1  1  1  1  1  1  1  1  1  1  1  1  1
CENTRE ASSIGNMENTS    1  1  1  1  1  1  1  1  1  1  1  1  1  1  1  1  1  1  1  1
CENTRE ASSIGNMENTS    1  1  1  1  1  1  1  1  1  1  1  1  2  2  2  2  2  2  2  2
CENTRE ASSIGNMENTS    2  2  2  2  2  2  2  2  2  2  2  2  2  2  2  2  2  2  2  3
CENTRE ASSIGNMENTS    3  3  3  3  3  3  3  3  3  3  3  3  3  3  3  3  3  3  3  3
CENTRE ASSIGNMENTS    3  3  3  3  3  3  4  4  4  4  4  4  4  4  4  4  4  4  4  4
CENTRE ASSIGNMENTS    4  4  4  4  4  4  4  4  4  4  4  4  4  5  5  5  5  5  5  5
CENTRE ASSIGNMENTS    5  5  5  5  5  5  5  5  5  5  5  5  5  5  5  5  5  5  5  5
CENTRE ASSIGNMENTS    5  5  5  5  5  5  5  5  5  5  5  5  5  5  5  5  5  5  5  5
CENTRE ASSIGNMENTS    5  5  5  5  5  5  5  5  5  5  5  5  5  5  5  5  5  5  5  5
CENTRE ASSIGNMENTS    5  5  5  5  5  5  5  5  5  5  5  5  5  5  5  5  5  5  5  5
CENTRE ASSIGNMENTS    5  5  5  5  5  5  5  5  5  5  5  5  5  5  5  5  5  5  5  5
CENTRE ASSIGNMENTS    5  5  5  5  5  5  5  6  6  6  6  6  6  6  6  6  6  6  6  6
CENTRE ASSIGNMENTS    6  6  6  6  6  6  6  6  6  6  6  6  6  6  6  6  6  6  6  6
CENTRE ASSIGNMENTS    6  6  6  6  6  6  6  6  6  6  6  6  6  6  6  6  6  6  6  6
CENTRE ASSIGNMENTS    6  6  6  6  6  6  6  6  6  6  6  6  6  6  6  6  6  6  6
TYPE ASSIGNMENTS      1  1  1  1  1  1  1  1  1  1  1  1  1  1  1  1  2  2  2  3
TYPE ASSIGNMENTS      3  3  4  4  4  2  3  4  2  3  4  2  3  4  5  6  7  8  9 10
TYPE ASSIGNMENTS      5  6  7  8  9 10  5  6  7  8  9 10 11 12 13 17 14 15 18 19
TYPE ASSIGNMENTS     16 20 11 12 13 17 14 15 18 19 16 20  1  1  1  1  1  1  2  3
TYPE ASSIGNMENTS      4  2  3  4  2  3  4  5  6  7  8  9 10  5  6  7  8  9 10  1
TYPE ASSIGNMENTS      1  1  1  1  1  2  3  4  2  3  4  2  3  4  5  6  7  8  9 10
TYPE ASSIGNMENTS      5  6  7  8  9 10  1  1  1  1  1  1  2  3  4  2  3  4  2  3
TYPE ASSIGNMENTS      4  5  6  7  8  9 10  5  6  7  8  9 10  1  1  1  1  1  1  1
TYPE ASSIGNMENTS      1  1  1  1  1  1  1  1  1  1  1  1  1  1  1  1  1  1  1  1
TYPE ASSIGNMENTS      1  1  1  1  2  2  2  2  2  2  3  3  3  3  3  3  4  4  4  4
TYPE ASSIGNMENTS      4  4  2  2  2  2  2  2  3  3  3  3  3  3  4  4  4  4  4  4
TYPE ASSIGNMENTS      2  3  4  2  3  4  2  3  4  5  6  7  8  9 10  5  6  7  8  9
TYPE ASSIGNMENTS     10  5  6  7  8  9 10 11 12 13 17 14 15 18 19 16 20 11 12 13
TYPE ASSIGNMENTS     17 14 15 18 19 16 20  1  1  1  1  1  1  1  1  1  1  1  1  1
TYPE ASSIGNMENTS      1  1  1  2  2  2  3  3  3  4  4  4  2  3  4  2  3  4  2  3
TYPE ASSIGNMENTS      4  5  6  7  8  9 10  5  6  7  8  9 10  5  6  7  8  9 10 11
TYPE ASSIGNMENTS     12 13 17 14 15 18 19 16 20 11 12 13 17 14 15 18 19 16 20
EXPONENTS  0.8236000D+04 0.1235000D+04 0.2808000D+03 0.7927000D+02 0.2559000D+02
EXPONENTS  0.8997000D+01 0.3319000D+01 0.2808000D+03 0.7927000D+02 0.2559000D+02
EXPONENTS  0.8997000D+01 0.3319000D+01 0.3643000D+00 0.9059000D+00 0.1285000D+00
EXPONENTS  0.4402000D-01 0.1871000D+02 0.4133000D+01 0.1200000D+01 0.1871000D+02
EXPONENTS  0.4133000D+01 0.1200000D+01 0.1871000D+02 0.4133000D+01 0.1200000D+01
EXPONENTS  0.3827000D+00 0.3827000D+00 0.3827000D+00 0.1209000D+00 0.1209000D+00
EXPONENTS  0.1209000D+00 0.3569000D-01 0.3569000D-01 0.3569000D-01 0.1097000D+01
EXPONENTS  0.1097000D+01 0.1097000D+01 0.1097000D+01 0.1097000D+01 0.1097000D+01
EXPONENTS  0.3180000D+00 0.3180000D+00 0.3180000D+00 0.3180000D+00 0.3180000D+00
EXPONENTS  0.3180000D+00 0.1000000D+00 0.1000000D+00 0.1000000D+00 0.1000000D+00
EXPONENTS  0.1000000D+00 0.1000000D+00 0.7610000D+00 0.7610000D+00 0.7610000D+00
EXPONENTS  0.7610000D+00 0.7610000D+00 0.7610000D+00 0.7610000D+00 0.7610000D+00
EXPONENTS  0.7610000D+00 0.7610000D+00 0.2680000D+00 0.2680000D+00 0.2680000D+00
EXPONENTS  0.2680000D+00 0.2680000D+00 0.2680000D+00 0.2680000D+00 0.2680000D+00
EXPONENTS  0.2680000D+00 0.2680000D+00 0.3387000D+02 0.5095000D+01 0.1159000D+01
EXPONENTS  0.3258000D+00 0.1027000D+00 0.2526000D-01 0.1407000D+01 0.1407000D+01
EXPONENTS  0.1407000D+01 0.3880000D+00 0.3880000D+00 0.3880000D+00 0.1020000D+00
EXPONENTS  0.1020000D+00 0.1020000D+00 0.1057000D+01 0.1057000D+01 0.1057000D+01
EXPONENTS  0.1057000D+01 0.1057000D+01 0.1057000D+01 0.2470000D+00 0.2470000D+00
EXPONENTS  0.2470000D+00 0.2470000D+00 0.2470000D+00 0.2470000D+00 0.3387000D+02
EXPONENTS  0.5095000D+01 0.1159000D+01 0.3258000D+00 0.1027000D+00 0.2526000D-01
EXPONENTS  0.1407000D+01 0.1407000D+01 0.1407000D+01 0.3880000D+00 0.3880000D+00
EXPONENTS  0.3880000D+00 0.1020000D+00 0.1020000D+00 0.1020000D+00 0.1057000D+01
EXPONENTS  0.1057000D+01 0.1057000D+01 0.1057000D+01 0.1057000D+01 0.1057000D+01
EXPONENTS  0.2470000D+00 0.2470000D+00 0.2470000D+00 0.2470000D+00 0.2470000D+00
EXPONENTS  0.2470000D+00 0.3387000D+02 0.5095000D+01 0.1159000D+01 0.3258000D+00
EXPONENTS  0.1027000D+00 0.2526000D-01 0.1407000D+01 0.1407000D+01 0.1407000D+01
EXPONENTS  0.3880000D+00 0.3880000D+00 0.3880000D+00 0.1020000D+00 0.1020000D+00
EXPONENTS  0.1020000D+00 0.1057000D+01 0.1057000D+01 0.1057000D+01 0.1057000D+01
EXPONENTS  0.1057000D+01 0.1057000D+01 0.2470000D+00 0.2470000D+00 0.2470000D+00
EXPONENTS  0.2470000D+00 0.2470000D+00 0.2470000D+00 0.4561000D+06 0.6833000D+05
EXPONENTS  0.1555000D+05 0.4405000D+04 0.1439000D+04 0.5204000D+03 0.2031000D+03
EXPONENTS  0.8396000D+02 0.3620000D+02 0.1583000D+02 0.6334000D+01 0.4405000D+04
EXPONENTS  0.1439000D+04 0.5204000D+03 0.2031000D+03 0.8396000D+02 0.3620000D+02
EXPONENTS  0.1583000D+02 0.6334000D+01 0.2694000D+01 0.1439000D+04 0.2031000D+03
EXPONENTS  0.8396000D+02 0.3620000D+02 0.1583000D+02 0.6334000D+01 0.2694000D+01
EXPONENTS  0.4313000D+00 0.9768000D+00 0.1625000D+00 0.5910000D-01 0.6633000D+03
EXPONENTS  0.1568000D+03 0.4998000D+02 0.1842000D+02 0.7240000D+01 0.2922000D+01
EXPONENTS  0.6633000D+03 0.1568000D+03 0.4998000D+02 0.1842000D+02 0.7240000D+01
EXPONENTS  0.2922000D+01 0.6633000D+03 0.1568000D+03 0.4998000D+02 0.1842000D+02
EXPONENTS  0.7240000D+01 0.2922000D+01 0.1568000D+03 0.4998000D+02 0.1842000D+02
EXPONENTS  0.7240000D+01 0.2922000D+01 0.3818000D+00 0.1568000D+03 0.4998000D+02
EXPONENTS  0.1842000D+02 0.7240000D+01 0.2922000D+01 0.3818000D+00 0.1568000D+03
EXPONENTS  0.4998000D+02 0.1842000D+02 0.7240000D+01 0.2922000D+01 0.3818000D+00
EXPONENTS  0.1022000D+01 0.1022000D+01 0.1022000D+01 0.1301000D+00 0.1301000D+00
EXPONENTS  0.1301000D+00 0.4190000D-01 0.4190000D-01 0.4190000D-01 0.1046000D+01
EXPONENTS  0.1046000D+01 0.1046000D+01 0.1046000D+01 0.1046000D+01 0.1046000D+01
EXPONENTS  0.3440000D+00 0.3440000D+00 0.3440000D+00 0.3440000D+00 0.3440000D+00
EXPONENTS  0.3440000D+00 0.1350000D+00 0.1350000D+00 0.1350000D+00 0.1350000D+00
EXPONENTS  0.1350000D+00 0.1350000D+00 0.7060000D+00 0.7060000D+00 0.7060000D+00
EXPONENTS  0.7060000D+00 0.7060000D+00 0.7060000D+00 0.7060000D+00 0.7060000D+00
EXPONENTS  0.7060000D+00 0.7060000D+00 0.3120000D+00 0.3120000D+00 0.3120000D+00
EXPONENTS  0.3120000D+00 0.3120000D+00 0.3120000D+00 0.3120000D+00 0.3120000D+00
EXPONENTS  0.3120000D+00 0.3120000D+00 0.1950000D+05 0.2923000D+04 0.6645000D+03
EXPONENTS  0.1875000D+03 0.6062000D+02 0.2142000D+02 0.7950000D+01 0.6645000D+03
EXPONENTS  0.1875000D+03 0.6062000D+02 0.2142000D+02 0.7950000D+01 0.8815000D+00
EXPONENTS  0.2257000D+01 0.3041000D+00 0.9158000D-01 0.4388000D+02 0.9926000D+01
EXPONENTS  0.2930000D+01 0.4388000D+02 0.9926000D+01 0.2930000D+01 0.4388000D+02
EXPONENTS  0.9926000D+01 0.2930000D+01 0.9132000D+00 0.9132000D+00 0.9132000D+00
EXPONENTS  0.2672000D+00 0.2672000D+00 0.2672000D+00 0.7361000D-01 0.7361000D-01
EXPONENTS  0.7361000D-01 0.3107000D+01 0.3107000D+01 0.3107000D+01 0.3107000D+01
EXPONENTS  0.3107000D+01 0.3107000D+01 0.8550000D+00 0.8550000D+00 0.8550000D+00
EXPONENTS  0.8550000D+00 0.8550000D+00 0.8550000D+00 0.2920000D+00 0.2920000D+00
EXPONENTS  0.2920000D+00 0.2920000D+00 0.2920000D+00 0.2920000D+00 0.1917000D+01
EXPONENTS  0.1917000D+01 0.1917000D+01 0.1917000D+01 0.1917000D+01 0.1917000D+01
EXPONENTS  0.1917000D+01 0.1917000D+01 0.1917000D+01 0.1917000D+01 0.7240000D+00
EXPONENTS  0.7240000D+00 0.7240000D+00 0.7240000D+00 0.7240000D+00 0.7240000D+00
EXPONENTS  0.7240000D+00 0.7240000D+00 0.7240000D+00 0.7240000D+00
MO    1     MO 0.0        OCC NO =    2.0000300  ORB. ENERGY =    0.000000
  0.34991671D-05  0.65231524D-05  0.11025016D-04  0.16572656D-04  0.20356539D-04
  0.17180201D-04  0.64602042D-05 -0.58741928D-08 -0.43905952D-07 -0.16408657D-06
 -0.45777597D-06 -0.61329359D-06  0.72418538D-06  0.11692305D-05 -0.50164442D-05
 -0.21098192D-05 -0.38260460D-07 -0.35871613D-07 -0.25542726D-07  0.11107409D-03
  0.10413902D-03  0.74153186D-04  0.28077783D-05  0.26324706D-05  0.18744759D-05
 -0.12719128D-06  0.36227303D-03 -0.16775386D-05 -0.16243506D-06  0.46280214D-03
  0.17019165D-05 -0.33672338D-08  0.92798765D-05  0.18141158D-07  0.63442483D-04
 -0.64670463D-04  0.12279801D-05 -0.18519539D-06  0.15548204D-06 -0.50994948D-03
  0.19354767D-03 -0.19420476D-03  0.65709599D-06 -0.26663848D-06 -0.10103469D-06
  0.98955698D-04  0.41340422D-04 -0.40937744D-04 -0.40267867D-06 -0.71685157D-07
  0.88792742D-08 -0.65752747D-04 -0.28222869D-07  0.92633330D-04 -0.40534219D-06
 -0.37289097D-07  0.91936641D-04  0.26200622D-04  0.12195771D-06 -0.36983663D-03
 -0.24984596D-04 -0.19832629D-06  0.18339672D-07 -0.26437859D-04  0.35735869D-06
  0.10066793D-08 -0.27382156D-04  0.49873650D-04 -0.56025696D-07  0.10669573D-03
 -0.50945726D-04 -0.26442147D-07 -0.40081313D-04 -0.72288298D-04 -0.10658905D-03
  0.36959423D-03  0.11244104D-02 -0.12157250D-04  0.11055167D-07  0.71781331D-04
  0.23540706D-04  0.45345972D-07  0.28852363D-03  0.27261919D-03 -0.96651975D-08
  0.17247000D-03  0.22719028D-04 -0.11020014D-03  0.42461325D-04  0.67738815D-04
  0.77754720D-07  0.12286897D-06  0.29846022D-03 -0.43580942D-04 -0.12100318D-04
  0.55681260D-04 -0.19391801D-09  0.97764492D-08  0.31618064D-04  0.19921274D-04
  0.35928837D-04  0.52977050D-04 -0.17990205D-03 -0.56254066D-03  0.62172032D-05
 -0.28659816D-04  0.21025274D-04 -0.12081882D-04 -0.87685153D-04  0.13408263D-03
 -0.13531494D-03 -0.42051447D-04  0.99897027D-04 -0.11227929D-04  0.95307224D-05
  0.24139750D-04 -0.33670473D-04  0.78523969D-04 -0.14999617D-03  0.39334267D-04
  0.20645259D-04  0.68822580D-05 -0.27527517D-04  0.26259056D-04  0.13261410D-04
  0.53503213D-04  0.19887907D-04  0.35868659D-04  0.52888317D-04 -0.17959705D-03
 -0.56161316D-03  0.62075962D-05  0.28607636D-04  0.20989896D-04 -0.12071308D-04
  0.87443676D-04  0.13397471D-03 -0.13512514D-03  0.41931934D-04  0.99846595D-04
 -0.11225450D-04  0.95741951D-05  0.24093171D-04 -0.33667366D-04 -0.78397858D-04
  0.14977581D-03  0.39184633D-04  0.20623367D-04  0.68534752D-05 -0.27476842D-04
 -0.26231706D-04 -0.13318975D-04  0.53528794D-04  0.44113038D-04  0.82530787D-04
  0.14259489D-03  0.23116308D-03  0.35104331D-03  0.48791718D-03  0.58009614D-03
  0.51676980D-03  0.25663881D-03  0.41316677D-04  0.43591535D-06  0.20722022D-06
  0.69125197D-05  0.24088747D-04  0.86747480D-04  0.19122402D-03  0.26918171D-03
 -0.12840845D-04 -0.35227101D-03 -0.20829564D-03  0.38073282D-08  0.46116043D-07
  0.96170145D-07  0.27579923D-06  0.14321870D-07 -0.11893800D-05 -0.30731296D-05
  0.25038414D-05 -0.12576569D-04  0.13402341D-05  0.35580260D-06 -0.40509108D-02
 -0.53359971D-02 -0.58864401D-02 -0.48891494D-02 -0.25962740D-02 -0.66985226D-03
  0.11610741D+02  0.15294062D+02  0.16871745D+02  0.14013305D+02  0.74414538D+01
  0.19199340D+01  0.12688825D-02  0.16714151D-02  0.18438325D-02  0.15314473D-02
  0.81324099D-03  0.20982043D-03  0.16037707D-06 -0.15504224D-05 -0.21862574D-05
 -0.31269264D-05  0.15834315D-07  0.28676864D-05 -0.45950696D-03  0.44422176D-02
  0.62639905D-02  0.89591635D-02 -0.45367943D-04 -0.82163979D-02 -0.17023699D-07
  0.16457417D-06  0.23206676D-06  0.33191686D-06 -0.16807803D-08 -0.30439907D-06
 -0.26744637D-04  0.76652137D-01  0.82715205D-05  0.22427209D-06 -0.64372111D-03
 -0.21402594D-07  0.20211828D-07 -0.57962341D-04 -0.41483159D-07  0.12580754D-04
 -0.12283321D-04 -0.29743244D-06 -0.19210609D-06  0.33895680D-06 -0.98050876D-03
 -0.43138472D-05  0.45238183D-05 -0.20997108D-06  0.69480840D-07 -0.12372424D-06
  0.35590716D-03  0.13265752D-05 -0.12783756D-05 -0.48199530D-07 -0.12576087D-07
  0.20962941D-07 -0.61004238D-04  0.53846410D-08  0.23050657D-05  0.87367988D-07
 -0.72168476D-08  0.24413533D-05  0.34997843D-04 -0.89370755D-08 -0.93565503D-05
 -0.35259947D-04 -0.55053921D-07 -0.64666143D-08  0.14661949D-04  0.45759029D-07
 -0.38788700D-08  0.14617656D-04 -0.72213263D-05  0.23278713D-07 -0.58603503D-04
  0.70840492D-05 -0.15641036D-07 -0.55914813D-05 -0.10422531D-04 -0.17668512D-04
 -0.26752516D-04 -0.33446538D-04 -0.28770020D-04 -0.11033922D-04  0.10078989D-07
  0.13342694D-06  0.48463094D-06  0.14376486D-05  0.16565996D-05 -0.20121869D-05
 -0.21426298D-06  0.34107039D-05  0.38545349D-05  0.10285946D-06  0.10059430D-06
  0.66466908D-07 -0.29115608D-03 -0.28474429D-03 -0.18814259D-03  0.70034939D-05
  0.68492641D-05  0.45255984D-05  0.63408462D-09 -0.97855118D-05 -0.92238682D-06
  0.25812345D-07 -0.65816662D-04  0.42595842D-05  0.69750720D-08 -0.19530026D-04
  0.55406581D-06  0.71639853D-04 -0.70676245D-04 -0.96360719D-06 -0.12583369D-06
  0.21719402D-07 -0.13149366D-03 -0.35883998D-04  0.35760456D-04  0.12354187D-06
  0.69021059D-07 -0.23797537D-07  0.10119488D-03  0.17777443D-04 -0.18742287D-04
  0.96484471D-06 -0.38462887D-07  0.21637596D-07 -0.73089007D-04 -0.54091123D-08
 -0.69940819D-04 -0.18673625D-05  0.59503263D-07 -0.70643943D-04 -0.18861633D-03
 -0.43275927D-07  0.28046640D-03  0.19421842D-03  0.39121735D-06  0.64514933D-09
  0.24852296D-04  0.84909655D-06 -0.20025233D-07  0.25052799D-04  0.59603655D-04
  0.18089785D-07 -0.99609687D-04 -0.62150945D-04 -0.12855427D-06
MO    2     MO 0.0        OCC NO =    2.0000300  ORB. ENERGY =    0.000000
  0.35448133D-08  0.66082461D-08  0.11168836D-07  0.16788844D-07  0.20622088D-07
  0.17404315D-07  0.65444768D-08 -0.23851294D-11 -0.17827365D-10 -0.66624933D-10
 -0.18587319D-09 -0.24901883D-09  0.29404480D-09  0.72998171D-09  0.26575669D-08
  0.14312405D-08  0.11104260D-03  0.10410950D-03  0.74132163D-04  0.38736561D-07
  0.36317988D-07  0.25860571D-07 -0.20842086D-07 -0.19540780D-07 -0.13914200D-07
  0.36395089D-03  0.12652678D-06 -0.62487695D-07  0.46446775D-03  0.16080238D-06
 -0.85184259D-07  0.93955123D-05  0.31456922D-08 -0.16927970D-08 -0.43333570D-07
 -0.46359176D-07  0.89692746D-07  0.12935607D-03 -0.50957753D-03 -0.20112486D-06
  0.15891281D-06 -0.14147919D-06 -0.17433624D-07  0.38871554D-03  0.96774889D-04
 -0.33272568D-07  0.18113042D-07 -0.30198242D-07  0.12085201D-07  0.82128369D-04
 -0.66567315D-04 -0.37048878D-07  0.92992542D-04  0.31726181D-07  0.66500037D-07
  0.93160490D-04  0.40839250D-07 -0.16306999D-06 -0.37213811D-03 -0.13601779D-06
 -0.36430120D-07  0.48519058D-04 -0.27075710D-04 -0.91672931D-08 -0.19564545D-07
 -0.26529685D-04  0.90857075D-08  0.89983371D-07  0.10775682D-03  0.18416172D-07
 -0.31289736D-07  0.10082457D-03 -0.18853764D-07 -0.34003539D-07 -0.50138199D-07
  0.17244693D-06  0.53567670D-06 -0.60543274D-08  0.46578155D-05  0.32740389D-07
  0.10300067D-07  0.82779298D-04  0.12545297D-06  0.11505352D-06  0.75420964D-04
  0.72905899D-07 -0.22875890D-08 -0.55826152D-07  0.15772916D-07  0.40053236D-07
  0.29914374D-04 -0.46426297D-04  0.14396749D-06 -0.61390242D-08 -0.91726315D-08
  0.15311656D-07  0.29067542D-04  0.61177369D-04  0.16656314D-08 -0.34804835D-04
 -0.62771953D-04 -0.92557208D-04  0.31925806D-03  0.97489404D-03 -0.10377255D-04
  0.55212515D-04 -0.29330260D-04  0.21237602D-04  0.23816334D-03 -0.88535928D-04
  0.23371487D-03  0.14819719D-03 -0.42046273D-04  0.18972715D-04  0.10607795D-04
 -0.69439178D-04  0.58831384D-04 -0.10761090D-03  0.21091582D-03 -0.14863283D-03
 -0.10970236D-04 -0.37145853D-04  0.48116089D-04 -0.16321062D-04  0.38782904D-04
  0.13301856D-04  0.34823892D-04  0.62806323D-04  0.92607886D-04 -0.31943496D-03
 -0.97543103D-03  0.10383122D-04  0.55240326D-04  0.29336382D-04 -0.21268010D-04
  0.23818679D-03  0.88603262D-04 -0.23393147D-03  0.14824092D-03  0.42103763D-04
 -0.19036695D-04 -0.10550591D-04  0.69489421D-04 -0.58938830D-04 -0.10759200D-03
  0.21106390D-03  0.14865435D-03  0.10999768D-04  0.37156765D-04 -0.48156533D-04
 -0.16337231D-04  0.38725982D-04 -0.13254968D-04 -0.21676879D-07 -0.40555128D-07
 -0.70070266D-07 -0.11359213D-06 -0.17250056D-06 -0.23975954D-06 -0.28505572D-06
 -0.25393754D-06 -0.12611075D-06 -0.20302765D-07 -0.21420616D-09 -0.10113103D-09
 -0.33735618D-08 -0.11756187D-07 -0.42335934D-07 -0.93324298D-07 -0.13137049D-06
  0.62668006D-08  0.17192110D-06  0.10165587D-06 -0.24792865D-11 -0.30030214D-10
 -0.62624845D-10 -0.17959715D-09 -0.93262301D-11  0.77451002D-09  0.20011852D-08
 -0.16304715D-08  0.59397370D-08  0.55254182D-09 -0.25405838D-09  0.11610738D+02
  0.15294057D+02  0.16871739D+02  0.14013301D+02  0.74414515D+01  0.19199334D+01
  0.40511393D-02  0.53362981D-02  0.58867722D-02  0.48894252D-02  0.25964205D-02
  0.66989005D-03 -0.20609012D-02 -0.27146890D-02 -0.29947269D-02 -0.24873552D-02
 -0.13208546D-02 -0.34078740D-03 -0.45954350D-03  0.44425709D-02  0.62644887D-02
  0.89598760D-02 -0.45371551D-04 -0.82170513D-02 -0.16028855D-06  0.15495666D-05
  0.21850506D-05  0.31252004D-05 -0.15825575D-07 -0.28661036D-05  0.81501557D-07
 -0.78790461D-06 -0.11110277D-05 -0.15890636D-05  0.80467943D-08  0.14573212D-05
  0.76653470D-01  0.26744211D-04 -0.13604769D-04 -0.64339163D-03 -0.22481392D-06
  0.11377235D-06 -0.57955370D-04 -0.20225942D-07  0.10325076D-07 -0.16507622D-06
 -0.90320648D-08  0.17410828D-06  0.24748070D-04 -0.98158753D-03 -0.34546456D-06
  0.59923195D-07  0.30066284D-08 -0.62929824D-07 -0.85641031D-05  0.35676083D-03
  0.12499799D-06 -0.99235733D-08 -0.10074714D-08  0.10931045D-07  0.24370187D-05
 -0.61140941D-04 -0.21599735D-07  0.23637624D-05  0.74792311D-09  0.16213921D-08
  0.23813702D-05  0.13248948D-07  0.21156372D-07 -0.94726573D-05 -0.15492717D-07
 -0.26020548D-07  0.69656149D-04  0.14705634D-04  0.50795584D-08  0.10383917D-07
  0.14700474D-04  0.25113756D-08 -0.33882577D-07 -0.58817375D-04 -0.17750051D-07
  0.27308250D-08 -0.14246458D-04  0.30144757D-08  0.56189879D-08  0.95254362D-08
  0.14422799D-07  0.18031675D-07  0.15510474D-07  0.59486006D-08 -0.81057972D-11
 -0.10730558D-09 -0.38975338D-09 -0.11561961D-08 -0.13322824D-08  0.16182555D-08
  0.65088686D-10 -0.26962476D-08 -0.25373308D-08 -0.29097430D-03 -0.28456651D-03
 -0.18802512D-03 -0.10147640D-06 -0.99241705D-07 -0.65573191D-07  0.50078467D-07
  0.48975647D-07  0.32360281D-07 -0.73964426D-05 -0.51969232D-08  0.27051068D-08
 -0.67694096D-04 -0.21528223D-07  0.88818627D-08 -0.19577840D-04 -0.67681031D-08
  0.31399846D-08  0.28275899D-07 -0.52718511D-07  0.24442612D-07  0.14108225D-03
 -0.13299170D-03 -0.69810992D-07 -0.81604618D-08  0.26490039D-07 -0.18329577D-07
 -0.70510138D-04  0.10236837D-03  0.46951934D-07  0.62310571D-09 -0.13146037D-07
  0.12522931D-07  0.35427815D-04 -0.75022990D-04 -0.30361334D-07 -0.71831933D-04
 -0.22223714D-07 -0.50052904D-07 -0.75661730D-04 -0.89298922D-07 -0.27628323D-08
  0.29115753D-03  0.15597006D-06  0.15292154D-06 -0.37040293D-03  0.25555913D-04
  0.79027838D-08  0.17620680D-07  0.26734822D-04  0.29165384D-07 -0.40026145D-08
 -0.10340256D-03 -0.52873736D-07 -0.48859425D-07  0.11734822D-03
MO    3     MO 0.0        OCC NO =    2.0000210  ORB. ENERGY =    0.000000
 -0.14454827D-01 -0.26946710D-01 -0.45543611D-01 -0.68460542D-01 -0.84091514D-01
 -0.70970271D-01 -0.26686675D-01 -0.38142882D-05 -0.28509441D-04 -0.10654629D-03
 -0.29724756D-03 -0.39822978D-03  0.47023512D-03 -0.87198630D-03 -0.19345383D-02
 -0.82091078D-04  0.20838205D-06  0.19537142D-06  0.13911609D-06  0.43955265D-06
  0.41210855D-06  0.29344584D-06  0.11672314D-02  0.10943536D-02  0.77924499D-03
  0.10487305D-06  0.49370854D-06  0.60718468D-03 -0.66733439D-07 -0.10270536D-05
 -0.37921331D-03  0.82335753D-09  0.81832887D-08  0.46684701D-05 -0.10552524D-03
 -0.10558993D-03  0.21111517D-03 -0.12707388D-08  0.11321161D-06 -0.21906221D-06
 -0.24278066D-04 -0.23879452D-04  0.48157518D-04 -0.25591279D-09  0.25353039D-07
  0.13501188D-05  0.11373814D-04  0.11479340D-04 -0.22853154D-04  0.17805969D-09
 -0.12086113D-07 -0.48423412D-07 -0.15822460D-07  0.36187368D-04  0.77203936D-05
  0.39480595D-07 -0.10891286D-03 -0.11292143D-04  0.79867859D-08  0.35075327D-06
 -0.11869038D-04  0.38633478D-07  0.29442879D-08  0.52019127D-04 -0.85668240D-04
  0.82006815D-07 -0.15527944D-03  0.12876022D-03 -0.90839678D-07 -0.77794480D-06
  0.12824450D-03  0.54577790D-07 -0.48584897D-05 -0.87624863D-05 -0.12920281D-04
  0.75238724D-03  0.23413486D-03  0.50477180D-05  0.17359787D-07  0.95700487D-04
  0.28525814D-04  0.24966671D-07  0.19896329D-03 -0.34859737D-05  0.12635859D-07
  0.43717629D-04  0.38761005D-04 -0.73770360D-04  0.54148989D-04  0.19621371D-04
  0.46338534D-07  0.43293912D-07  0.76548992D-04 -0.96070408D-05 -0.12096231D-04
  0.21703272D-04 -0.66640106D-08  0.66468881D-08 -0.34346518D-04 -0.48121942D-05
 -0.86789904D-05 -0.12797166D-04  0.75299216D-03  0.23688673D-03  0.50742912D-05
  0.83111977D-04 -0.47924947D-04  0.28429090D-04  0.17265838D-03 -0.10002446D-03
 -0.45396185D-05  0.38202293D-04 -0.22187373D-04  0.38744649D-04  0.22177602D-04
 -0.41927304D-04  0.19749702D-04 -0.11108494D-03  0.65525363D-04 -0.38034443D-04
 -0.11470841D-04 -0.10208486D-04  0.21679327D-04  0.19542274D-05 -0.29989763D-04
  0.17455678D-04 -0.48120217D-05 -0.86786794D-05 -0.12796708D-04  0.75299574D-03
  0.23688532D-03  0.50742824D-05 -0.83114266D-04 -0.47904032D-04  0.28459106D-04
 -0.17268588D-03 -0.99981065D-04 -0.44767345D-05 -0.38193919D-04 -0.22177718D-04
  0.38758333D-04  0.22182693D-04 -0.41955183D-04  0.19772490D-04  0.11103862D-03
 -0.65537867D-04 -0.38058285D-04 -0.11460669D-04 -0.10208005D-04  0.21668675D-04
 -0.19472010D-05  0.30017432D-04  0.17448670D-04 -0.15460277D+00 -0.28924528D+00
 -0.49975168D+00 -0.81015619D+00 -0.12302999D+01 -0.17100011D+01 -0.20330603D+01
 -0.18111208D+01 -0.89944088D+00 -0.14480237D+00 -0.15277506D-02 -0.72284284D-03
 -0.24112827D-01 -0.84028374D-01 -0.30259978D+00 -0.66704356D+00 -0.93898205D+00
  0.44792504D-01  0.12288211D+01  0.72659421D+00 -0.15531747D-04 -0.18812739D-03
 -0.39231983D-03 -0.11251050D-02 -0.58425134D-04  0.48519983D-02  0.12536632D-01
 -0.10214257D-01  0.46600090D-01 -0.38430493D-03 -0.13194606D-03  0.10527828D-02
  0.13867612D-02  0.15298147D-02  0.12706309D-02  0.67474024D-03  0.17408651D-03
  0.17873025D-02  0.23542954D-02  0.25971564D-02  0.21571417D-02  0.11455021D-02
  0.29554554D-03  0.59413728D+01  0.78261778D+01  0.86334992D+01  0.71707971D+01
  0.38078922D+01  0.98245610D+00 -0.37355305D-07  0.36112706D-06  0.50922685D-06
  0.72832910D-06 -0.36881560D-08 -0.66794648D-06 -0.73068187D-07  0.70637622D-06
  0.99606420D-06  0.14246353D-05 -0.72141526D-08 -0.13065249D-05 -0.21079555D-03
  0.20378357D-02  0.28735611D-02  0.41099525D-02 -0.20812221D-04 -0.37692141D-02
  0.73814601D-05  0.12181529D-04  0.41653837D-01 -0.85896592D-07 -0.46621101D-07
 -0.48395737D-03 -0.17316056D-08 -0.81336009D-08 -0.98424936D-05 -0.70621528D-05
 -0.72054697D-05  0.14267622D-04 -0.16309069D-10  0.72851595D-08 -0.11265133D-06
 -0.11144294D-03 -0.11139883D-03  0.22284178D-03  0.28847191D-11  0.11887851D-06
  0.56939408D-07 -0.14326296D-04 -0.14324528D-04  0.28650824D-04 -0.45134095D-12
  0.15319418D-07 -0.81390243D-07  0.12405012D-08 -0.71354938D-05  0.54468213D-05
 -0.97397625D-08  0.21704498D-04 -0.82603660D-05  0.60182590D-08 -0.29801644D-06
 -0.80800978D-05 -0.75711573D-08  0.82503086D-08  0.20161246D-05 -0.33741020D-04
  0.11366479D-07 -0.61888278D-05  0.50658906D-04 -0.36117404D-07  0.14045411D-06
  0.50564154D-04  0.21486822D-08 -0.87943107D-03 -0.16392610D-02 -0.27789126D-02
 -0.42076496D-02 -0.52604887D-02 -0.45249636D-02 -0.17354209D-02 -0.68420761D-06
 -0.90576276D-05 -0.32898952D-04 -0.97594120D-04 -0.11245751D-03  0.13659640D-03
 -0.95961582D-04 -0.15938243D-03  0.12437266D-04  0.66789844D-06  0.65319009D-06
  0.43159031D-06  0.23864603D-04  0.23339060D-04  0.15421104D-04  0.39017746D-02
  0.38158504D-02  0.25212937D-02  0.14971602D-06  0.61504150D-05  0.87917590D-03
  0.41298915D-08 -0.33766540D-06  0.21399803D-04  0.15454815D-08  0.10949037D-06
  0.93388056D-05 -0.36019812D-04 -0.35255435D-04  0.71275247D-04  0.12968207D-08
  0.36751438D-07  0.12845379D-05  0.21259825D-04  0.20923046D-04 -0.42182871D-04
 -0.55115669D-09 -0.21956763D-07 -0.52736387D-06  0.18084017D-04  0.18146686D-04
 -0.36230703D-04 -0.13115973D-09 -0.18041703D-07 -0.11944737D-05 -0.99537290D-08
 -0.43050199D-05  0.46406744D-04 -0.14220260D-07  0.75671618D-05 -0.70349259D-04
  0.44081447D-07  0.53478979D-05 -0.68870974D-04  0.17837046D-08  0.58542548D-08
  0.14958673D-05 -0.25387381D-04  0.71952520D-08 -0.22459576D-05  0.38324902D-04
 -0.24758016D-07 -0.22416443D-05  0.37837242D-04 -0.81115593D-09
MO    4     MO 0.0        OCC NO =    2.0000123  ORB. ENERGY =    0.000000
  0.26825184D-01  0.50007547D-01  0.84519567D-01  0.12704867D+00  0.15605654D+00
  0.13170621D+00  0.49524976D-01 -0.14574148D-05 -0.10893273D-04 -0.40710648D-04
 -0.11357637D-03 -0.15216102D-03  0.17967379D-03  0.26462326D-02 -0.36110809D-02
 -0.42310252D-04  0.64786277D-06  0.60741252D-06  0.43251390D-06  0.50977900D-05
  0.47795021D-05  0.34032902D-05  0.36697365D-02  0.34406113D-02  0.24499202D-02
  0.22829153D-06 -0.80781084D-06  0.13052335D-02 -0.74215571D-07 -0.11221255D-05
 -0.41705321D-03  0.68448106D-09 -0.18273570D-07  0.37026121D-05 -0.31921144D-03
 -0.31916201D-03  0.63837345D-03 -0.12254527D-08  0.33946108D-06  0.10261848D-05
  0.88951446D-05  0.10298518D-04 -0.19193662D-04  0.72952946D-10 -0.89462890D-08
  0.14063788D-05 -0.17882295D-04 -0.17828837D-04  0.35711131D-04  0.77222033D-10
  0.18590696D-07  0.48782406D-06  0.10286332D-07 -0.42444845D-04  0.22564892D-04
 -0.54155890D-07  0.12632016D-03 -0.33842963D-04  0.23296894D-07  0.10143719D-05
 -0.33851712D-04 -0.43533359D-07  0.12280136D-07  0.82220376D-04 -0.16373337D-03
  0.13734318D-06 -0.24570505D-03  0.24602694D-03 -0.17418359D-06 -0.95607438D-06
  0.24517318D-03  0.86803172D-07 -0.90395878D-04 -0.16303269D-03 -0.24039160D-03
  0.10202724D-02  0.68329330D-03  0.41501266D-05 -0.13848648D-08 -0.58305307D-04
  0.33409837D-04  0.31329905D-07  0.30325805D-03 -0.42454710D-04  0.27515506D-07
  0.11088019D-03  0.75773496D-04 -0.14183753D-03  0.24115597D-04  0.11772193D-03
  0.67849294D-07  0.11022215D-06  0.14320868D-03 -0.14825691D-04 -0.21197133D-04
  0.36022824D-04 -0.12777431D-07  0.10150223D-07 -0.62911952D-04 -0.90278486D-04
 -0.16282097D-03 -0.24007942D-03  0.10245460D-02  0.68483416D-03  0.43299485D-05
 -0.49726505D-04  0.28856879D-04  0.33593950D-04  0.26424249D-03 -0.15312866D-03
 -0.43447732D-04  0.96209849D-04 -0.55579585D-04  0.75888785D-04 -0.17454610D-04
 -0.10095669D-03  0.11841130D-03 -0.14456261D-03  0.12338741D-03 -0.70911004D-04
 -0.19473543D-04 -0.16244862D-04  0.35718405D-04  0.52433540D-05 -0.54344470D-04
  0.31471961D-04 -0.90278759D-04 -0.16282146D-03 -0.24008015D-03  0.10245489D-02
  0.68483878D-03  0.43296920D-05  0.49745584D-04  0.28843988D-04  0.33576168D-04
 -0.26429715D-03 -0.15306186D-03 -0.43354132D-04 -0.96197598D-04 -0.55555359D-04
  0.75923111D-04 -0.17459964D-04 -0.10099235D-03  0.11845232D-03  0.14449617D-03
 -0.12330951D-03 -0.70931053D-04 -0.19455651D-04 -0.16243768D-04  0.35699419D-04
 -0.52302356D-05  0.54392416D-04  0.31460298D-04  0.91313373D-01  0.17083758D+00
  0.29516944D+00  0.47850434D+00  0.72665476D+00  0.10099818D+01  0.12007909D+01
  0.10697063D+01  0.53123876D+00  0.85524945D-01  0.90233869D-03  0.42752791D-03
  0.14261615D-01  0.49698874D-01  0.17897369D+00  0.39452524D+00  0.55536420D+00
 -0.26492682D-01 -0.72679050D+00 -0.42974667D+00  0.62778493D-05  0.76040086D-04
  0.15857358D-03  0.45476143D-03  0.23615128D-04 -0.19611518D-02 -0.50672397D-02
  0.41285484D-02 -0.28544987D-01  0.14183064D-02 -0.18170419D-03  0.17614241D-02
  0.23202076D-02  0.25595521D-02  0.21259085D-02  0.11289164D-02  0.29126633D-03
 -0.25350045D-02 -0.33391939D-02 -0.36836536D-02 -0.30595628D-02 -0.16247127D-02
 -0.41918437D-03  0.99146653D+01  0.13059934D+02  0.14407151D+02  0.11966267D+02
  0.63544199D+01  0.16394735D+01 -0.59861028D-07  0.57869790D-06  0.81602445D-06
  0.11671308D-05 -0.59101862D-08 -0.10703691D-05  0.64335161D-07 -0.62195094D-06
 -0.87701575D-06 -0.12543645D-05  0.63519254D-08  0.11503706D-05 -0.33686749D-03
  0.32566181D-02  0.45921715D-02  0.65680201D-02 -0.33259529D-04 -0.60234939D-02
  0.12890721D-04 -0.17878417D-04  0.72557610D-01 -0.54020966D-07 -0.23070810D-06
 -0.30643821D-03 -0.67145404D-09 -0.10929670D-07 -0.39586458D-05  0.45453607D-03
  0.45436689D-03 -0.90890295D-03  0.91337104D-10 -0.48501387D-06  0.33654333D-06
 -0.30970004D-03 -0.30964148D-03  0.61934152D-03 -0.50139439D-10  0.33030797D-06
  0.25471615D-07  0.43365491D-05  0.43237762D-05 -0.86603253D-05  0.16532765D-10
 -0.48113198D-08  0.82222255D-07  0.18061408D-07 -0.14435050D-04 -0.46948753D-04
 -0.41263574D-08  0.43665574D-04  0.70430530D-04 -0.50057868D-07 -0.36042405D-06
  0.70415730D-04 -0.15753697D-07  0.15089812D-07  0.41593488D-05 -0.62583402D-04
  0.21457870D-07 -0.12531444D-04  0.93889707D-04 -0.66727306D-07  0.53397344D-07
  0.93860498D-04  0.45517857D-08 -0.63569421D-02 -0.11849351D-01 -0.20087290D-01