 Entering Gaussian System, Link 0=/home/bruns/programas/chemistry/gaussian/g09/g09
 Input=GAUSSIAN.com
 Output=GAUSSIAN.log
 Initial command:
 /home/bruns/programas/chemistry/gaussian/g09/l1.exe /home/bruns/programas/chemistry/gaussian/work/Gau-72574.inp -scrdir=/home/bruns/programas/chemistry/gaussian/work/
 Entering Link 1 = /home/bruns/programas/chemistry/gaussian/g09/l1.exe PID=     72576.
  
 Copyright (c) 1988,1990,1992,1993,1995,1998,2003,2009,2010,
            Gaussian, Inc.  All Rights Reserved.
  
 This is part of the Gaussian(R) 09 program.  It is based on
 the Gaussian(R) 03 system (copyright 2003, Gaussian, Inc.),
 the Gaussian(R) 98 system (copyright 1998, Gaussian, Inc.),
 the Gaussian(R) 94 system (copyright 1995, Gaussian, Inc.),
 the Gaussian 92(TM) system (copyright 1992, Gaussian, Inc.),
 the Gaussian 90(TM) system (copyright 1990, Gaussian, Inc.),
 the Gaussian 88(TM) system (copyright 1988, Gaussian, Inc.),
 the Gaussian 86(TM) system (copyright 1986, Carnegie Mellon
 University), and the Gaussian 82(TM) system (copyright 1983,
 Carnegie Mellon University). Gaussian is a federally registered
 trademark of Gaussian, Inc.
  
 This software contains proprietary and confidential information,
 including trade secrets, belonging to Gaussian, Inc.
  
 This software is provided under written license and may be
 used, copied, transmitted, or stored only in accord with that
 written license.
  
 The following legend is applicable only to US Government
 contracts under FAR:
  
                    RESTRICTED RIGHTS LEGEND
  
 Use, reproduction and disclosure by the US Government is
 subject to restrictions as set forth in subparagraphs (a)
 and (c) of the Commercial Computer Software - Restricted
 Rights clause in FAR 52.227-19.
  
 Gaussian, Inc.
 340 Quinnipiac St., Bldg. 40, Wallingford CT 06492
  
  
 ---------------------------------------------------------------
 Warning -- This program may not be used in any manner that
 competes with the business of Gaussian, Inc. or will provide
 assistance to any competitor of Gaussian, Inc.  The licensee
 of this program is prohibited from giving any competitor of
 Gaussian, Inc. access to this program.  By using this program,
 the user acknowledges that Gaussian, Inc. is engaged in the
 business of creating and licensing software in the field of
 computational chemistry and represents and warrants to the
 licensee that it is not a competitor of Gaussian, Inc. and that
 it will not use this program in any manner prohibited above.
 ---------------------------------------------------------------
  

 Cite this work as:
 Gaussian 09, Revision B.01,
 M. J. Frisch, G. W. Trucks, H. B. Schlegel, G. E. Scuseria, 
 M. A. Robb, J. R. Cheeseman, G. Scalmani, V. Barone, B. Mennucci, 
 G. A. Petersson, H. Nakatsuji, M. Caricato, X. Li, H. P. Hratchian, 
 A. F. Izmaylov, J. Bloino, G. Zheng, J. L. Sonnenberg, M. Hada, 
 M. Ehara, K. Toyota, R. Fukuda, J. Hasegawa, M. Ishida, T. Nakajima, 
 Y. Honda, O. Kitao, H. Nakai, T. Vreven, J. A. Montgomery, Jr., 
 J. E. Peralta, F. Ogliaro, M. Bearpark, J. J. Heyd, E. Brothers, 
 K. N. Kudin, V. N. Staroverov, T. Keith, R. Kobayashi, J. Normand, 
 K. Raghavachari, A. Rendell, J. C. Burant, S. S. Iyengar, J. Tomasi, 
 M. Cossi, N. Rega, J. M. Millam, M. Klene, J. E. Knox, J. B. Cross, 
 V. Bakken, C. Adamo, J. Jaramillo, R. Gomperts, R. E. Stratmann, 
 O. Yazyev, A. J. Austin, R. Cammi, C. Pomelli, J. W. Ochterski, 
 R. L. Martin, K. Morokuma, V. G. Zakrzewski, G. A. Voth, 
 P. Salvador, J. J. Dannenberg, S. Dapprich, A. D. Daniels, 
 O. Farkas, J. B. Foresman, J. V. Ortiz, J. Cioslowski, 
 and D. J. Fox, Gaussian, Inc., Wallingford CT, 2010.
 
 ******************************************
 Gaussian 09:  EM64L-G09RevB.01 12-Aug-2010
                23-Aug-2020 
 ******************************************
 %nproc=8
 Will use up to    8 processors via shared memory.
 %mem=8GB
 -----------------------------------------------------
 # QCISD aug-cc-pvtz nosymm density=current output=wfn
 -----------------------------------------------------
 1/30=1,38=1/1;
 2/12=2,15=1,17=6,18=5,40=1/2;
 3/5=16,6=1,7=10,11=9,16=1,25=1,30=1,71=1/1,2,3;
 4//1;
 5/5=2,38=5/2;
 8/6=4,9=120000,10=1/1,4;
 9/5=8,15=1/13;
 11/28=-7,31=1,32=3,42=3/11;
 10/5=6,13=10,31=1/2;
 6/7=2,8=2,9=2,10=2,22=-1,31=1/1;
 99/5=1,6=1100,9=1/99;
 ----------------------
 clch3f_ts-wavefunction
 ----------------------
 Symbolic Z-matrix:
 Charge = -1 Multiplicity = 1
 C                    -0.00983   0.00003  -0.49771 
 H                     0.00002  -1.05257  -0.62073 
 H                    -0.91131   0.52637  -0.62125 
 H                     0.91175   0.52613  -0.62157 
 Cl                    0.00056   0.00096   1.64472 
 F                    -0.00019  -0.00092  -2.59347 
 
                          Input orientation:                          
 ---------------------------------------------------------------------
 Center     Atomic      Atomic             Coordinates (Angstroms)
 Number     Number       Type             X           Y           Z
 ---------------------------------------------------------------------
      1          6           0       -0.009825    0.000029   -0.497709
      2          1           0        0.000019   -1.052570   -0.620726
      3          1           0       -0.911312    0.526365   -0.621245
      4          1           0        0.911750    0.526132   -0.621570
      5         17           0        0.000555    0.000962    1.644718
      6          9           0       -0.000186   -0.000921   -2.593468
 ---------------------------------------------------------------------
                    Distance matrix (angstroms):
                    1          2          3          4          5
     1  C    0.000000
     2  H    1.059809   0.000000
     3  H    1.051175   1.823063   0.000000
     4  H    1.068376   1.823062   1.823062   0.000000
     5  Cl   2.142452   2.498433   2.498427   2.498428   0.000000
     6  F    2.095781   2.235548   2.235586   2.235575   4.238186
                    6
     6  F    0.000000
 Symmetry turned off by external request.
 Stoichiometry    CH3ClF(1-)
 Framework group  C1[X(CH3ClF)]
 Deg. of freedom    12
 Full point group                 C1      NOp   1
 Rotational constants (GHZ):    150.8351131      2.2147219      2.2147124
 Standard basis: Aug-CC-pVTZ (5D, 7F)
 Integral buffers will be    131072 words long.
 Raffenetti 1 integral format.
 Two-electron integral symmetry is turned off.
   211 basis functions,   339 primitive gaussians,   244 cartesian basis functions
    18 alpha electrons       18 beta electrons
       nuclear repulsion energy        84.9840343690 Hartrees.
 NAtoms=    6 NActive=    6 NUniq=    6 SFac= 1.00D+00 NAtFMM=   50 NAOKFM=F Big=F
 One-electron integrals computed using PRISM.
 NBasis=   211 RedAO= T  NBF=   211
 NBsUse=   211 1.00D-06 NBFU=   211
 Harris functional with IExCor=  205 diagonalized for initial guess.
 ExpMin= 2.53D-02 ExpMax= 4.56D+05 ExpMxC= 1.44D+03 IAcc=3 IRadAn=         0 AccDes= 0.00D+00
 HarFok:  IExCor=  205 AccDes= 0.00D+00 IRadAn=         0 IDoV= 1
 ScaDFX=  1.000000  1.000000  1.000000  1.000000
 FoFCou: FMM=F IPFlag=           0 FMFlag=      100000 FMFlg1=           0
         NFxFlg=           0 DoJE=T BraDBF=F KetDBF=T FulRan=T
         Omega=  0.000000  0.000000  1.000000  0.000000  0.000000 ICntrl=     500 IOpCl=  0
         NMat0=    1 NMatS0=    1 NMatT0=    0 NMatD0=    1 NMtDS0=    0 NMtDT0=    0
         I1Cent=           4 NGrid=           0.
 Symmetry not used in FoFCou.
 Requested convergence on RMS density matrix=1.00D-08 within 128 cycles.
 Requested convergence on MAX density matrix=1.00D-06.
 Requested convergence on             energy=1.00D-06.
 No special actions if energy rises.
 Keep R1 ints in memory in canonical form, NReq=454274131.
 SCF Done:  E(RHF) =  -598.616988047     A.U. after   12 cycles
             Convg  =    0.9417D-08             -V/T =  2.0001
 ExpMin= 2.53D-02 ExpMax= 4.56D+05 ExpMxC= 1.44D+03 IAcc=3 IRadAn=         5 AccDes= 0.00D+00
 HarFok:  IExCor=  205 AccDes= 0.00D+00 IRadAn=         5 IDoV=-2
 ScaDFX=  1.000000  1.000000  1.000000  1.000000
 Range of M.O.s used for correlation:     8   211
 NBasis=   211 NAE=    18 NBE=    18 NFC=     7 NFV=     0
 NROrb=    204 NOA=    11 NOB=    11 NVA=   193 NVB=   193

 **** Warning!!: The largest alpha MO coefficient is  0.34976641D+02

 Semi-Direct transformation.
 ModeAB=           2 MOrb=            11 LenV=    1072528236
 LASXX=     44979418 LTotXX=    44979418 LenRXX=    44979418
 LTotAB=    45631872 MaxLAS=    67073160 LenRXY=    67073160
 NonZer=    89958836 LenScr=   135708672 LnRSAI=           0
 LnScr1=           0 LExtra=           0 Total=    247761250
 MaxDsk=          -1 SrtSym=           F ITran=            4
 JobTyp=0 Pass  1:  I=   1 to  11.
 (rs|ai) integrals will be sorted in core.
 Spin components of T(2) and E(2):
     alpha-alpha T2 =       0.2567418706D-01 E2=     -0.8208293667D-01
     alpha-beta  T2 =       0.1452608734D+00 E2=     -0.5099830407D+00
     beta-beta   T2 =       0.2567418706D-01 E2=     -0.8208293667D-01
 ANorm=    0.1093896360D+01
 E2 =    -0.6741489141D+00 EUMP2 =    -0.59929113696083D+03
 R2 and R3 integrals will be kept in memory, NReq=   900794930.
 Iterations=  50 Convergence= 0.100D-07
 Iteration Nr.   1
 **********************
 DD1Dir will call FoFMem   1 times, MxPair=       132
 NAB=    66 NAA=     0 NBB=     0.
 MP4(R+Q)=  0.14439557D-01
 E3=       -0.18700921D-01        EUMP3=      -0.59930983788D+03
 E4(DQ)=   -0.45163570D-03        UMP4(DQ)=   -0.59931028952D+03
 E4(SDQ)=  -0.98185367D-02        UMP4(SDQ)=  -0.59931965642D+03
 DE(Corr)= -0.67841028     E(Corr)=     -599.29539833    
 NORM(A)=   0.10996883D+01
 Iteration Nr.   2
 **********************
 DD1Dir will call FoFMem   1 times, MxPair=       132
 NAB=    66 NAA=     0 NBB=     0.
 DE(Corr)= -0.70061144     E(CORR)=     -599.31759949     Delta=-2.22D-02
 NORM(A)=   0.11070435D+01
 Iteration Nr.   3
 **********************
 DD1Dir will call FoFMem   1 times, MxPair=       132
 NAB=    66 NAA=     0 NBB=     0.
 DE(Corr)= -0.69821439     E(CORR)=     -599.31520243     Delta= 2.40D-03
 NORM(A)=   0.11110292D+01
 Iteration Nr.   4
 **********************
 DD1Dir will call FoFMem   1 times, MxPair=       132
 NAB=    66 NAA=     0 NBB=     0.
 DE(Corr)= -0.70127386     E(CORR)=     -599.31826190     Delta=-3.06D-03
 NORM(A)=   0.11131333D+01
 Iteration Nr.   5
 **********************
 DD1Dir will call FoFMem   1 times, MxPair=       132
 NAB=    66 NAA=     0 NBB=     0.
 DE(Corr)= -0.70186891     E(CORR)=     -599.31885695     Delta=-5.95D-04
 NORM(A)=   0.11141645D+01
 Iteration Nr.   6
 **********************
 DD1Dir will call FoFMem   1 times, MxPair=       132
 NAB=    66 NAA=     0 NBB=     0.
 DE(Corr)= -0.70201572     E(CORR)=     -599.31900376     Delta=-1.47D-04
 NORM(A)=   0.11144904D+01
 Iteration Nr.   7
 **********************
 DD1Dir will call FoFMem   1 times, MxPair=       132
 NAB=    66 NAA=     0 NBB=     0.
 DE(Corr)= -0.70204545     E(CORR)=     -599.31903349     Delta=-2.97D-05
 NORM(A)=   0.11145215D+01
 Iteration Nr.   8
 **********************
 DD1Dir will call FoFMem   1 times, MxPair=       132
 NAB=    66 NAA=     0 NBB=     0.
 DE(Corr)= -0.70205933     E(CORR)=     -599.31904738     Delta=-1.39D-05
 NORM(A)=   0.11145393D+01
 Iteration Nr.   9
 **********************
 DD1Dir will call FoFMem   1 times, MxPair=       132
 NAB=    66 NAA=     0 NBB=     0.
 DE(Corr)= -0.70203611     E(CORR)=     -599.31902415     Delta= 2.32D-05
 NORM(A)=   0.11145425D+01
 Iteration Nr.  10
 **********************
 DD1Dir will call FoFMem   1 times, MxPair=       132
 NAB=    66 NAA=     0 NBB=     0.
 DE(Corr)= -0.70205541     E(CORR)=     -599.31904346     Delta=-1.93D-05
 NORM(A)=   0.11145427D+01
 Iteration Nr.  11
 **********************
 DD1Dir will call FoFMem   1 times, MxPair=       132
 NAB=    66 NAA=     0 NBB=     0.
 DE(Corr)= -0.70204622     E(CORR)=     -599.31903426     Delta= 9.19D-06
 NORM(A)=   0.11145456D+01
 Iteration Nr.  12
 **********************
 DD1Dir will call FoFMem   1 times, MxPair=       132
 NAB=    66 NAA=     0 NBB=     0.
 DE(Corr)= -0.70204997     E(CORR)=     -599.31903802     Delta=-3.75D-06
 NORM(A)=   0.11145460D+01
 Iteration Nr.  13
 **********************
 DD1Dir will call FoFMem   1 times, MxPair=       132
 NAB=    66 NAA=     0 NBB=     0.
 DE(Corr)= -0.70205054     E(CORR)=     -599.31903858     Delta=-5.67D-07
 NORM(A)=   0.11145467D+01
 Iteration Nr.  14
 **********************
 DD1Dir will call FoFMem   1 times, MxPair=       132
 NAB=    66 NAA=     0 NBB=     0.
 DE(Corr)= -0.70205076     E(CORR)=     -599.31903881     Delta=-2.24D-07
 NORM(A)=   0.11145468D+01
 Iteration Nr.  15
 **********************
 DD1Dir will call FoFMem   1 times, MxPair=       132
 NAB=    66 NAA=     0 NBB=     0.
 DE(Corr)= -0.70205067     E(CORR)=     -599.31903872     Delta= 9.05D-08
 NORM(A)=   0.11145468D+01
 Iteration Nr.  16
 **********************
 DD1Dir will call FoFMem   1 times, MxPair=       132
 NAB=    66 NAA=     0 NBB=     0.
 DE(Corr)= -0.70205087     E(CORR)=     -599.31903892     Delta=-2.03D-07
 NORM(A)=   0.11145466D+01
 Iteration Nr.  17
 **********************
 DD1Dir will call FoFMem   1 times, MxPair=       132
 NAB=    66 NAA=     0 NBB=     0.
 DE(Corr)= -0.70205074     E(CORR)=     -599.31903879     Delta= 1.31D-07
 NORM(A)=   0.11145465D+01
 Iteration Nr.  18
 **********************
 DD1Dir will call FoFMem   1 times, MxPair=       132
 NAB=    66 NAA=     0 NBB=     0.
 DE(Corr)= -0.70205078     E(CORR)=     -599.31903883     Delta=-3.67D-08
 NORM(A)=   0.11145464D+01
 Iteration Nr.  19
 **********************
 DD1Dir will call FoFMem   1 times, MxPair=       132
 NAB=    66 NAA=     0 NBB=     0.
 DE(Corr)= -0.70205073     E(CORR)=     -599.31903877     Delta= 5.28D-08
 NORM(A)=   0.11145463D+01
 Iteration Nr.  20
 **********************
 DD1Dir will call FoFMem   1 times, MxPair=       132
 NAB=    66 NAA=     0 NBB=     0.
 DE(Corr)= -0.70205073     E(CORR)=     -599.31903878     Delta=-2.76D-09
 NORM(A)=   0.11145462D+01
 Iteration Nr.  21
 **********************
 DD1Dir will call FoFMem   1 times, MxPair=       132
 NAB=    66 NAA=     0 NBB=     0.
 DE(Corr)= -0.70205071     E(CORR)=     -599.31903876     Delta= 1.92D-08
 NORM(A)=   0.11145462D+01
 Iteration Nr.  22
 **********************
 DD1Dir will call FoFMem   1 times, MxPair=       132
 NAB=    66 NAA=     0 NBB=     0.
 DE(Corr)= -0.70205071     E(CORR)=     -599.31903875     Delta= 3.34D-09
 NORM(A)=   0.11145462D+01
 Iteration Nr.  23
 **********************
 DD1Dir will call FoFMem   1 times, MxPair=       132
 NAB=    66 NAA=     0 NBB=     0.
 DE(Corr)= -0.70205070     E(CORR)=     -599.31903875     Delta= 5.00D-09
 NORM(A)=   0.11145462D+01
 Iteration Nr.  24
 **********************
 DD1Dir will call FoFMem   1 times, MxPair=       132
 NAB=    66 NAA=     0 NBB=     0.
 DE(Corr)= -0.70205070     E(CORR)=     -599.31903875     Delta=-1.54D-09
 NORM(A)=   0.11145462D+01
 Iteration Nr.  25
 **********************
 DD1Dir will call FoFMem   1 times, MxPair=       132
 NAB=    66 NAA=     0 NBB=     0.
 DE(Corr)= -0.70205070     E(CORR)=     -599.31903875     Delta= 4.65D-09
 NORM(A)=   0.11145462D+01
 Iteration Nr.  26
 **********************
 DD1Dir will call FoFMem   1 times, MxPair=       132
 NAB=    66 NAA=     0 NBB=     0.
 DE(Corr)= -0.70205070     E(CORR)=     -599.31903875     Delta=-4.57D-09
 NORM(A)=   0.11145462D+01
 Iteration Nr.  27
 **********************
 DD1Dir will call FoFMem   1 times, MxPair=       132
 NAB=    66 NAA=     0 NBB=     0.
 DE(Corr)= -0.70205070     E(CORR)=     -599.31903875     Delta= 3.98D-09
 NORM(A)=   0.11145462D+01
 Iteration Nr.  28
 **********************
 DD1Dir will call FoFMem   1 times, MxPair=       132
 NAB=    66 NAA=     0 NBB=     0.
 DE(Corr)= -0.70205070     E(CORR)=     -599.31903875     Delta=-3.78D-09
 NORM(A)=   0.11145462D+01
 Largest amplitude= 6.61D-02

 Z-AMPLITUDE ITERATIONS

 Iteration Nr.   1
 **********************
 DD1Dir will call FoFMem   1 times, MxPair=       132
 NAB=    66 NAA=     0 NBB=     0.
 DE(Z)  -0.68265733D+00          E(Z)=    -0.59929964538D+03
 NORM(A)=   0.11141852D+01
 Iteration Nr.   2
 **********************
 DD1Dir will call FoFMem   1 times, MxPair=       132
 NAB=    66 NAA=     0 NBB=     0.
 DE(Z)  -0.68261768D+00          E(Z)=    -0.59929960572D+03
 NORM(A)=   0.11147976D+01
 Iteration Nr.   3
 **********************
 DD1Dir will call FoFMem   1 times, MxPair=       132
 NAB=    66 NAA=     0 NBB=     0.
 DE(Z)  -0.68268122D+00          E(Z)=    -0.59929966926D+03
 NORM(A)=   0.11126975D+01
 Iteration Nr.   4
 **********************
 DD1Dir will call FoFMem   1 times, MxPair=       132
 NAB=    66 NAA=     0 NBB=     0.
 DE(Z)  -0.68247165D+00          E(Z)=    -0.59929945969D+03
 NORM(A)=   0.11158685D+01
 Iteration Nr.   5
 **********************
 DD1Dir will call FoFMem   1 times, MxPair=       132
 NAB=    66 NAA=     0 NBB=     0.
 DE(Z)  -0.68278584D+00          E(Z)=    -0.59929977389D+03
 NORM(A)=   0.11078899D+01
 Iteration Nr.   6
 **********************
 DD1Dir will call FoFMem   1 times, MxPair=       132
 NAB=    66 NAA=     0 NBB=     0.
 DE(Z)  -0.68198822D+00          E(Z)=    -0.59929897626D+03
 NORM(A)=   0.11078832D+01
 Iteration Nr.   7
 **********************
 DD1Dir will call FoFMem   1 times, MxPair=       132
 NAB=    66 NAA=     0 NBB=     0.
 DE(Z)  -0.68198998D+00          E(Z)=    -0.59929897803D+03
 NORM(A)=   0.11078780D+01
 Iteration Nr.   8
 **********************
 DD1Dir will call FoFMem   1 times, MxPair=       132
 NAB=    66 NAA=     0 NBB=     0.
 DE(Z)  -0.68198880D+00          E(Z)=    -0.59929897685D+03
 NORM(A)=   0.11078757D+01
 Iteration Nr.   9
 **********************
 DD1Dir will call FoFMem   1 times, MxPair=       132
 NAB=    66 NAA=     0 NBB=     0.
 DE(Z)  -0.68198835D+00          E(Z)=    -0.59929897640D+03
 NORM(A)=   0.11078747D+01
 Iteration Nr.  10
 **********************
 DD1Dir will call FoFMem   1 times, MxPair=       132
 NAB=    66 NAA=     0 NBB=     0.
 DE(Z)  -0.68198857D+00          E(Z)=    -0.59929897661D+03
 NORM(A)=   0.11078744D+01
 Iteration Nr.  11
 **********************
 DD1Dir will call FoFMem   1 times, MxPair=       132
 NAB=    66 NAA=     0 NBB=     0.
 DE(Z)  -0.68198855D+00          E(Z)=    -0.59929897659D+03
 NORM(A)=   0.11078743D+01
 Iteration Nr.  12
 **********************
 DD1Dir will call FoFMem   1 times, MxPair=       132
 NAB=    66 NAA=     0 NBB=     0.
 DE(Z)  -0.68198845D+00          E(Z)=    -0.59929897650D+03
 NORM(A)=   0.11078744D+01
 Iteration Nr.  13
 **********************
 DD1Dir will call FoFMem   1 times, MxPair=       132
 NAB=    66 NAA=     0 NBB=     0.
 DE(Z)  -0.68198856D+00          E(Z)=    -0.59929897660D+03
 NORM(A)=   0.11078744D+01
 Iteration Nr.  14
 **********************
 DD1Dir will call FoFMem   1 times, MxPair=       132
 NAB=    66 NAA=     0 NBB=     0.
 DE(Z)  -0.68198854D+00          E(Z)=    -0.59929897658D+03
 NORM(A)=   0.11078744D+01
 Iteration Nr.  15
 **********************
 DD1Dir will call FoFMem   1 times, MxPair=       132
 NAB=    66 NAA=     0 NBB=     0.
 DE(Z)  -0.68198855D+00          E(Z)=    -0.59929897659D+03
 NORM(A)=   0.11078744D+01
 Iteration Nr.  16
 **********************
 DD1Dir will call FoFMem   1 times, MxPair=       132
 NAB=    66 NAA=     0 NBB=     0.
 DE(Z)  -0.68198856D+00          E(Z)=    -0.59929897660D+03
 NORM(A)=   0.11078744D+01
 Iteration Nr.  17
 **********************
 DD1Dir will call FoFMem   1 times, MxPair=       132
 NAB=    66 NAA=     0 NBB=     0.
 DE(Z)  -0.68198854D+00          E(Z)=    -0.59929897659D+03
 NORM(A)=   0.11078744D+01
 Iteration Nr.  18
 **********************
 DD1Dir will call FoFMem   1 times, MxPair=       132
 NAB=    66 NAA=     0 NBB=     0.
 DE(Z)  -0.68198854D+00          E(Z)=    -0.59929897659D+03
 NORM(A)=   0.11078744D+01
 Iteration Nr.  19
 **********************
 DD1Dir will call FoFMem   1 times, MxPair=       132
 NAB=    66 NAA=     0 NBB=     0.
 DE(Z)  -0.68198855D+00          E(Z)=    -0.59929897659D+03
 NORM(A)=   0.11078744D+01
 Iteration Nr.  20
 **********************
 DD1Dir will call FoFMem   1 times, MxPair=       132
 NAB=    66 NAA=     0 NBB=     0.
 DE(Z)  -0.68198855D+00          E(Z)=    -0.59929897659D+03
 NORM(A)=   0.11078744D+01
 Iteration Nr.  21
 **********************
 DD1Dir will call FoFMem   1 times, MxPair=       132
 NAB=    66 NAA=     0 NBB=     0.
 DE(Z)  -0.68198855D+00          E(Z)=    -0.59929897659D+03
 NORM(A)=   0.11078744D+01
 Iteration Nr.  22
 **********************
 DD1Dir will call FoFMem   1 times, MxPair=       132
 NAB=    66 NAA=     0 NBB=     0.
 DE(Z)  -0.68198855D+00          E(Z)=    -0.59929897659D+03
 NORM(A)=   0.11078744D+01
 Iteration Nr.  23
 **********************
 DD1Dir will call FoFMem   1 times, MxPair=       132
 NAB=    66 NAA=     0 NBB=     0.
 DE(Z)  -0.68198855D+00          E(Z)=    -0.59929897659D+03
 NORM(A)=   0.11078744D+01
 Iteration Nr.  24
 **********************
 DD1Dir will call FoFMem   1 times, MxPair=       132
 NAB=    66 NAA=     0 NBB=     0.
 DE(Z)  -0.68198855D+00          E(Z)=    -0.59929897660D+03
 NORM(A)=   0.11078744D+01
 Iteration Nr.  25
 **********************
 DD1Dir will call FoFMem   1 times, MxPair=       132
 NAB=    66 NAA=     0 NBB=     0.
 DE(Z)  -0.68198855D+00          E(Z)=    -0.59929897659D+03
 NORM(A)=   0.11078744D+01
 Iteration Nr.  26
 **********************
 DD1Dir will call FoFMem   1 times, MxPair=       132
 NAB=    66 NAA=     0 NBB=     0.
 DE(Z)  -0.68198855D+00          E(Z)=    -0.59929897660D+03
 NORM(A)=   0.11078744D+01
 Discarding MO integrals.
          Differentiating once with respect to electric field.
                with respect to dipole field.
          Electric field/nuclear overlap derivatives assumed to be zero.
          Keep R1 ints in memory in canonical form, NReq=448662239.
          There are     1 degrees of freedom in the 1st order CPHF.  IDoFFX=0.
 LinEq1:  Iter=  0 NonCon=     1 RMS=3.11D-03 Max=1.20D-01
 AX will form     1 AO Fock derivatives at one time.
 LinEq1:  Iter=  1 NonCon=     1 RMS=6.94D-04 Max=9.61D-03
 LinEq1:  Iter=  2 NonCon=     1 RMS=2.30D-04 Max=5.72D-03
 LinEq1:  Iter=  3 NonCon=     1 RMS=9.49D-05 Max=1.45D-03
 LinEq1:  Iter=  4 NonCon=     1 RMS=3.84D-05 Max=4.10D-04
 LinEq1:  Iter=  5 NonCon=     1 RMS=1.06D-05 Max=2.26D-04
 LinEq1:  Iter=  6 NonCon=     1 RMS=2.42D-06 Max=4.22D-05
 LinEq1:  Iter=  7 NonCon=     1 RMS=6.06D-07 Max=9.15D-06
 LinEq1:  Iter=  8 NonCon=     1 RMS=1.49D-07 Max=1.80D-06
 LinEq1:  Iter=  9 NonCon=     1 RMS=3.04D-08 Max=7.48D-07
 LinEq1:  Iter= 10 NonCon=     1 RMS=6.55D-09 Max=8.89D-08
 LinEq1:  Iter= 11 NonCon=     1 RMS=1.05D-09 Max=1.14D-08
 LinEq1:  Iter= 12 NonCon=     1 RMS=1.69D-10 Max=2.85D-09
 LinEq1:  Iter= 13 NonCon=     0 RMS=2.41D-11 Max=3.21D-10
 Linear equations converged to 1.000D-10 1.000D-09 after    13 iterations.
 End of Minotr Frequency-dependent properties file   721 does not exist.
 End of Minotr Frequency-dependent properties file   722 does not exist.

 **********************************************************************

            Population analysis using the QCI/CC density.

 **********************************************************************

     Natural Orbital Coefficients:
                           1         2         3         4         5
     Eigenvalues --     2.00003   2.00003   2.00002   2.00001   2.00001
   1 1   C  1S         -0.00011  -0.00011  -0.04329   0.08037   0.97619
   2        2S         -0.00002  -0.00002   0.00131   0.00050  -0.01332
   3        3S         -0.00002  -0.00002  -0.00132   0.00400   0.03985
   4        4S          0.00019   0.00018  -0.01264  -0.02360   0.00312
   5        5S          0.00006   0.00005  -0.00120  -0.00062  -0.00061
   6        6PX         0.00004   0.00004   0.00000   0.00001   0.00005
   7        6PY         0.00004  -0.00004   0.00000   0.00000   0.00000
   8        6PZ         0.00000   0.00000   0.00053   0.00168   0.00087
   9        7PX         0.00057   0.00063   0.00005   0.00011  -0.00004
  10        7PY         0.00057  -0.00063   0.00000   0.00000   0.00000
  11        7PZ        -0.00001  -0.00001   0.00142   0.00304  -0.00091
  12        8PX         0.00317   0.00328  -0.00001   0.00006  -0.00003
  13        8PY         0.00315  -0.00331   0.00000   0.00000   0.00000
  14        8PZ         0.00000   0.00000  -0.00373  -0.00410  -0.00309
  15        9PX         0.00030   0.00029   0.00001   0.00001   0.00000
  16        9PY         0.00030  -0.00029   0.00000   0.00000   0.00000
  17        9PZ         0.00000   0.00000   0.00021   0.00017  -0.00049
  18       10D 0        0.00000   0.00000   0.00011   0.00033  -0.00057
  19       10D+1       -0.00011  -0.00011   0.00000   0.00000   0.00000
  20       10D-1       -0.00011   0.00011   0.00000   0.00000   0.00000
  21       10D+2        0.00003  -0.00003   0.00000   0.00000   0.00000
  22       10D-2        0.00003   0.00003   0.00000   0.00000  -0.00002
  23       11D 0       -0.00003  -0.00003   0.00022  -0.00009  -0.00029
  24       11D+1        0.00018   0.00018  -0.00002  -0.00004   0.00002
  25       11D-1        0.00018  -0.00018   0.00000   0.00000   0.00000
  26       11D+2        0.00070  -0.00072   0.00000   0.00000   0.00000
  27       11D-2        0.00071   0.00072   0.00003   0.00007  -0.00001
  28       12D 0        0.00007   0.00007  -0.00078   0.00122  -0.00236
  29       12D+1       -0.00091  -0.00094  -0.00002  -0.00002   0.00002
  30       12D-1       -0.00090   0.00095   0.00000   0.00000   0.00000
  31       12D+2        0.00113  -0.00116   0.00000   0.00000   0.00000
  32       12D-2        0.00114   0.00115  -0.00001   0.00004   0.00001
  33       13F 0        0.00000   0.00000   0.00001   0.00003   0.00019
  34       13F+1       -0.00013  -0.00014   0.00000   0.00000   0.00000
  35       13F-1       -0.00013   0.00014   0.00000   0.00000   0.00000
  36       13F+2        0.00001  -0.00001   0.00000   0.00000   0.00000
  37       13F-2        0.00001   0.00001   0.00000   0.00000   0.00001
  38       13F+3        0.00000   0.00000   0.00000   0.00000   0.00000
  39       13F-3        0.00000   0.00000  -0.00006   0.00007   0.00090
  40       14F 0        0.00000   0.00000  -0.00113  -0.00215  -0.00019
  41       14F+1        0.00040   0.00041   0.00000  -0.00001  -0.00001
  42       14F-1        0.00040  -0.00042   0.00000   0.00000   0.00000
  43       14F+2        0.00025  -0.00023   0.00000   0.00000   0.00000
  44       14F-2        0.00025   0.00023  -0.00001  -0.00002   0.00000
  45       14F+3        0.00001  -0.00001   0.00000   0.00000   0.00000
  46       14F-3        0.00004   0.00004  -0.00086  -0.00136  -0.00191
  47 2   H  1S         -0.00011   0.00011  -0.00002  -0.00035  -0.00135
  48        2S          0.00074  -0.00095   0.00245   0.00332  -0.00067
  49        3S          0.00602  -0.00629   0.00182   0.00529  -0.00434
  50        4S         -0.00019   0.00019   0.00011   0.00009  -0.00013
  51        5PX         0.00000   0.00000   0.00000   0.00000   0.00001
  52        5PY         0.00002  -0.00002   0.00004  -0.00003  -0.00048
  53        5PZ         0.00001  -0.00001   0.00001   0.00002  -0.00009
  54        6PX         0.00013   0.00014  -0.00001  -0.00001  -0.00002
  55        6PY         0.00044  -0.00049   0.00046   0.00070  -0.00080
  56        6PZ         0.00044  -0.00044  -0.00001  -0.00010   0.00024
  57        7PX         0.00062   0.00067  -0.00002   0.00001   0.00001
  58        7PY         0.00144  -0.00153   0.00054   0.00135  -0.00102
  59        7PZ         0.00020  -0.00019   0.00047   0.00092  -0.00006
  60        8D 0        0.00003  -0.00003   0.00001   0.00007   0.00014
  61        8D+1       -0.00001  -0.00001   0.00000   0.00000   0.00000
  62        8D-1        0.00007  -0.00007   0.00002   0.00005  -0.00004
  63        8D+2       -0.00003   0.00004  -0.00004  -0.00005   0.00028
  64        8D-2        0.00001   0.00001   0.00000   0.00000   0.00001
  65        9D 0        0.00026  -0.00029   0.00015   0.00025   0.00063
  66        9D+1        0.00018   0.00017   0.00000   0.00000  -0.00001
  67        9D-1        0.00009  -0.00009  -0.00014  -0.00025   0.00001
  68        9D+2       -0.00008   0.00010   0.00001   0.00003  -0.00010
  69        9D-2        0.00008   0.00009   0.00000   0.00001   0.00000
  70 3   H  1S         -0.00004  -0.00015  -0.00001  -0.00036  -0.00140
  71        2S          0.00024   0.00114   0.00250   0.00346  -0.00079
  72        3S          0.00224   0.00858   0.00187   0.00552  -0.00450
  73        4S         -0.00007  -0.00027   0.00012   0.00010  -0.00014
  74        5PX         0.00001   0.00003   0.00004  -0.00002  -0.00042
  75        5PY         0.00000  -0.00002  -0.00002   0.00001   0.00025
  76        5PZ         0.00000   0.00001   0.00001   0.00002  -0.00009
  77        6PX         0.00023   0.00053   0.00040   0.00063  -0.00076
  78        6PY         0.00008  -0.00037  -0.00024  -0.00037   0.00043
  79        6PZ         0.00016   0.00059  -0.00002  -0.00012   0.00025
  80        7PX         0.00089   0.00164   0.00048   0.00121  -0.00093
  81        7PY         0.00050  -0.00125  -0.00028  -0.00070   0.00054
  82        7PZ         0.00007   0.00024   0.00047   0.00093  -0.00005
  83        8D 0        0.00001   0.00004   0.00001   0.00006   0.00013
  84        8D+1        0.00001   0.00008   0.00002   0.00004  -0.00003
  85        8D-1       -0.00002  -0.00004  -0.00001  -0.00002   0.00002
  86        8D+2        0.00001   0.00002   0.00002   0.00003  -0.00013
  87        8D-2       -0.00001  -0.00004  -0.00004  -0.00005   0.00024
  88        9D 0        0.00009   0.00037   0.00015   0.00025   0.00065
  89        9D+1        0.00015   0.00007  -0.00012  -0.00023   0.00000
  90        9D-1        0.00020  -0.00012   0.00007   0.00013  -0.00001
  91        9D+2        0.00011   0.00003   0.00000  -0.00001   0.00004
  92        9D-2        0.00003  -0.00012   0.00000   0.00002  -0.00007
  93 4   H  1S          0.00015   0.00004  -0.00002  -0.00035  -0.00129
  94        2S         -0.00117  -0.00038   0.00239   0.00320  -0.00054
  95        3S         -0.00823  -0.00226   0.00178   0.00507  -0.00418
  96        4S          0.00025   0.00007   0.00010   0.00008  -0.00012
  97        5PX         0.00003   0.00001  -0.00004   0.00003   0.00041
  98        5PY         0.00002   0.00000  -0.00002   0.00001   0.00023
  99        5PZ        -0.00001   0.00000   0.00001   0.00001  -0.00008
 100        6PX         0.00052   0.00025  -0.00039  -0.00058   0.00063
 101        6PY         0.00035  -0.00007  -0.00022  -0.00033   0.00037
 102        6PZ        -0.00061  -0.00016   0.00000  -0.00008   0.00023
 103        7PX         0.00163   0.00093  -0.00045  -0.00113   0.00083
 104        7PY         0.00119  -0.00050  -0.00025  -0.00065   0.00047
 105        7PZ        -0.00028  -0.00007   0.00048   0.00092  -0.00007
 106        8D 0       -0.00004  -0.00001   0.00001   0.00007   0.00014
 107        8D+1        0.00008   0.00001  -0.00002  -0.00004   0.00004
 108        8D-1        0.00004   0.00002  -0.00001  -0.00002   0.00002
 109        8D+2       -0.00002  -0.00002   0.00002   0.00002  -0.00015
 110        8D-2       -0.00004  -0.00001   0.00003   0.00004  -0.00025
 111        9D 0       -0.00038  -0.00011   0.00015   0.00025   0.00061
 112        9D+1        0.00007   0.00014   0.00012   0.00022  -0.00001
 113        9D-1        0.00011  -0.00019   0.00007   0.00013   0.00000
 114        9D+2       -0.00004  -0.00012  -0.00001  -0.00002   0.00005
 115        9D-2       -0.00012   0.00003  -0.00001  -0.00003   0.00010
 116 5   Cl 1S         -0.00015  -0.00015  -0.25060   0.14799  -0.02283
 117        2S          0.00053   0.00052   0.84592  -0.50026   0.07827
 118        3S         -0.00001  -0.00001  -0.02309   0.00933  -0.00239
 119        4S          0.00004   0.00004   0.06655  -0.04076   0.00643
 120        5S         -0.00007  -0.00006  -0.00211   0.00777   0.00350
 121        6S         -0.00002  -0.00002  -0.00155  -0.00213   0.00300
 122        7PX         0.69449   0.68978   0.00339   0.00710  -0.00028
 123        7PY         0.68980  -0.69451   0.00021   0.00035  -0.00002
 124        7PZ        -0.00587  -0.00525   0.50084   0.83587  -0.04720
 125        8PX        -0.01359  -0.01349  -0.00005  -0.00011   0.00001
 126        8PY        -0.01349   0.01359   0.00000  -0.00001   0.00000
 127        8PZ         0.00012   0.00011  -0.00878  -0.01404   0.00011
 128        9PX         0.03713   0.03688   0.00019   0.00042  -0.00002
 129        9PY         0.03688  -0.03713   0.00001   0.00002   0.00000
 130        9PZ        -0.00032  -0.00028   0.02844   0.04954  -0.00268
 131       10PX        -0.00411  -0.00406  -0.00003  -0.00002  -0.00004
 132       10PY        -0.00408   0.00409   0.00000   0.00000   0.00000
 133       10PZ         0.00006   0.00005  -0.00434  -0.00275  -0.00346
 134       11PX        -0.00152  -0.00151  -0.00001  -0.00001  -0.00001
 135       11PY        -0.00151   0.00152   0.00000   0.00000   0.00000
 136       11PZ         0.00002   0.00001  -0.00036  -0.00015  -0.00053
 137       12D 0        0.00000   0.00000   0.00001  -0.00051  -0.00017
 138       12D+1       -0.00023  -0.00022   0.00000  -0.00001   0.00000
 139       12D-1       -0.00022   0.00023   0.00000   0.00000   0.00000
 140       12D+2        0.00000  -0.00001   0.00000   0.00000   0.00000
 141       12D-2        0.00000   0.00001   0.00000   0.00000   0.00000
 142       13D 0       -0.00001  -0.00001   0.00088   0.00244   0.00042
 143       13D+1        0.00057   0.00057   0.00001   0.00002   0.00000
 144       13D-1        0.00057  -0.00058   0.00000   0.00000   0.00000
 145       13D+2       -0.00001   0.00002   0.00000   0.00000   0.00000
 146       13D-2       -0.00001  -0.00002   0.00000   0.00000   0.00000
 147       14D 0        0.00000   0.00000   0.00058  -0.00018   0.00080
 148       14D+1       -0.00050  -0.00051   0.00001   0.00000   0.00002
 149       14D-1       -0.00050   0.00051   0.00000   0.00000   0.00000
 150       14D+2        0.00002  -0.00002   0.00000   0.00000   0.00000
 151       14D-2        0.00002   0.00002   0.00000   0.00000   0.00000
 152       15F 0        0.00000   0.00000   0.00001  -0.00007  -0.00003
 153       15F+1        0.00000   0.00000   0.00000   0.00000   0.00000
 154       15F-1        0.00000   0.00000   0.00000   0.00000   0.00000
 155       15F+2        0.00002  -0.00002   0.00000   0.00000   0.00000
 156       15F-2        0.00002   0.00002   0.00000   0.00000   0.00000
 157       15F+3        0.00000   0.00000   0.00000   0.00000   0.00000
 158       15F-3        0.00000   0.00000   0.00001   0.00003   0.00000
 159       16F 0        0.00000   0.00000  -0.00032  -0.00058  -0.00031
 160       16F+1       -0.00016  -0.00016  -0.00001  -0.00001   0.00000
 161       16F-1       -0.00016   0.00016   0.00000   0.00000   0.00000
 162       16F+2       -0.00003   0.00002   0.00000   0.00000   0.00000
 163       16F-2       -0.00003  -0.00002   0.00000   0.00000   0.00000
 164       16F+3        0.00000   0.00000   0.00000   0.00000   0.00000
 165       16F-3        0.00000   0.00000  -0.00002  -0.00005   0.00002
 166 6   F  1S          0.00002   0.00002  -0.00144  -0.01042  -0.04974
 167        2S          0.00001   0.00001   0.00020   0.00043   0.00080
 168        3S          0.00000   0.00000  -0.00007  -0.00045  -0.00202
 169        4S         -0.00002  -0.00002  -0.00055  -0.00105   0.00056
 170        5S         -0.00007  -0.00007   0.00010  -0.00168   0.00178
 171        6PX        -0.00003  -0.00003   0.00000  -0.00001   0.00000
 172        6PY        -0.00003   0.00003   0.00000   0.00000   0.00000
 173        6PZ         0.00000   0.00000   0.00058   0.00111   0.00011
 174        7PX        -0.00001   0.00000   0.00000  -0.00001   0.00000
 175        7PY        -0.00001   0.00000   0.00000   0.00000   0.00000
 176        7PZ         0.00000   0.00000   0.00069   0.00132   0.00002
 177        8PX        -0.00017  -0.00017   0.00000   0.00001   0.00000
 178        8PY        -0.00017   0.00018   0.00000   0.00000   0.00000
 179        8PZ        -0.00002  -0.00002   0.00008   0.00017   0.00048
 180        9PX        -0.00026  -0.00025   0.00000   0.00000  -0.00001
 181        9PY        -0.00025   0.00025   0.00000   0.00000   0.00000
 182        9PZ        -0.00002  -0.00002   0.00017  -0.00009   0.00071
 183       10D 0        0.00000   0.00000   0.00001   0.00001  -0.00002
 184       10D+1        0.00000   0.00000   0.00000   0.00000   0.00000
 185       10D-1        0.00000   0.00000   0.00000   0.00000   0.00000
 186       10D+2        0.00000   0.00000   0.00000   0.00000   0.00000
 187       10D-2        0.00000   0.00000   0.00000   0.00000   0.00000
 188       11D 0        0.00000   0.00000  -0.00003  -0.00010   0.00001
 189       11D+1        0.00003   0.00003   0.00000   0.00000   0.00000
 190       11D-1        0.00003  -0.00003   0.00000   0.00000   0.00000
 191       11D+2       -0.00002   0.00002   0.00000   0.00000   0.00000
 192       11D-2       -0.00002  -0.00002   0.00000   0.00000   0.00000
 193       12D 0        0.00000   0.00000  -0.00019  -0.00012   0.00011
 194       12D+1       -0.00016  -0.00016   0.00000   0.00001   0.00000
 195       12D-1       -0.00016   0.00016   0.00000   0.00000   0.00000
 196       12D+2        0.00008  -0.00008   0.00000   0.00000   0.00000
 197       12D-2        0.00008   0.00008   0.00000   0.00000   0.00000
 198       13F 0        0.00000   0.00000   0.00001  -0.00001  -0.00004
 199       13F+1        0.00001   0.00001   0.00000   0.00000   0.00000
 200       13F-1        0.00001  -0.00001   0.00000   0.00000   0.00000
 201       13F+2       -0.00001   0.00001   0.00000   0.00000   0.00000
 202       13F-2       -0.00001  -0.00001   0.00000   0.00000   0.00000
 203       13F+3        0.00000   0.00000   0.00000   0.00000   0.00000
 204       13F-3        0.00000   0.00000   0.00000   0.00000   0.00000
 205       14F 0        0.00000   0.00000  -0.00004   0.00002   0.00013
 206       14F+1       -0.00004  -0.00004   0.00000   0.00000   0.00000
 207       14F-1       -0.00004   0.00004   0.00000   0.00000   0.00000
 208       14F+2        0.00003  -0.00003   0.00000   0.00000   0.00000
 209       14F-2        0.00003   0.00003   0.00000   0.00000   0.00000
 210       14F+3        0.00000   0.00000   0.00000   0.00000   0.00000
 211       14F-3        0.00000   0.00000   0.00000   0.00000  -0.00001
                           6         7         8         9        10
     Eigenvalues --     2.00000   2.00000   1.98361   1.97543   1.96949
   1 1   C  1S          0.05037  -0.00046   0.01542  -0.07340  -0.14369
   2        2S         -0.00012  -0.00001  -0.04201   0.19915   0.39720
   3        3S          0.00229  -0.00003  -0.01040   0.04621   0.09613
   4        4S         -0.00698   0.00016   0.00555   0.07913   0.19087
   5        5S         -0.00016   0.00010   0.00785  -0.00689  -0.02885
   6        6PX         0.00000   0.00000   0.00013  -0.00138  -0.00577
   7        6PY         0.00000   0.00000   0.00000   0.00004   0.00020
   8        6PZ         0.00004   0.00000   0.00646   0.01033  -0.02723
   9        7PX         0.00003   0.00000   0.00014  -0.00167  -0.00713
  10        7PY         0.00000   0.00000   0.00000   0.00005   0.00025
  11        7PZ        -0.00075   0.00000   0.00706   0.01789  -0.03247
  12        8PX        -0.00004   0.00000   0.00014  -0.00171  -0.00568
  13        8PY         0.00000   0.00000   0.00001   0.00002   0.00015
  14        8PZ         0.00519   0.00009   0.01660   0.00589  -0.02270
  15        9PX         0.00000   0.00000   0.00004  -0.00010  -0.00045
  16        9PY         0.00000   0.00000   0.00000   0.00000   0.00000
  17        9PZ         0.00011   0.00001  -0.00071   0.00033  -0.00406
  18       10D 0        0.00004   0.00000   0.00051  -0.00214  -0.00956
  19       10D+1        0.00000   0.00000   0.00000   0.00005   0.00009
  20       10D-1        0.00000   0.00000   0.00000   0.00000  -0.00001
  21       10D+2        0.00000   0.00000   0.00000   0.00000   0.00001
  22       10D-2        0.00000   0.00000   0.00003  -0.00019  -0.00058
  23       11D 0       -0.00023  -0.00002  -0.00529   0.00462  -0.01877
  24       11D+1        0.00001   0.00000   0.00007   0.00015   0.00005
  25       11D-1        0.00000   0.00000   0.00000   0.00000  -0.00002
  26       11D+2        0.00000   0.00000   0.00000   0.00000   0.00002
  27       11D-2        0.00001   0.00000   0.00003  -0.00053  -0.00155
  28       12D 0        0.00027   0.00008   0.00206  -0.00841  -0.01667
  29       12D+1        0.00002   0.00000   0.00001   0.00006   0.00005
  30       12D-1        0.00000   0.00000   0.00000  -0.00001  -0.00002
  31       12D+2        0.00000   0.00000   0.00000   0.00000   0.00001
  32       12D-2       -0.00002   0.00000  -0.00012  -0.00034  -0.00087
  33       13F 0       -0.00007   0.00000   0.00000   0.00242   0.00064
  34       13F+1        0.00000   0.00000   0.00000   0.00000  -0.00002
  35       13F-1        0.00000   0.00000   0.00000   0.00000   0.00000
  36       13F+2        0.00000   0.00000   0.00000   0.00000   0.00000
  37       13F-2        0.00000   0.00000   0.00000   0.00001   0.00001
  38       13F+3        0.00000   0.00000   0.00000   0.00000   0.00000
  39       13F-3        0.00001   0.00000  -0.00014   0.00194   0.00397
  40       14F 0        0.00127  -0.00001   0.00471   0.00261  -0.00198
  41       14F+1       -0.00001   0.00000  -0.00005   0.00008   0.00013
  42       14F-1        0.00000   0.00000   0.00001   0.00000  -0.00001
  43       14F+2        0.00000   0.00000   0.00000   0.00000   0.00000
  44       14F-2        0.00000   0.00000   0.00004   0.00007   0.00008
  45       14F+3        0.00000   0.00000   0.00000   0.00000   0.00000
  46       14F-3       -0.00044   0.00003   0.00187  -0.00100   0.00404
  47 2   H  1S         -0.00008   0.00000  -0.00857   0.03716   0.08036
  48        2S          0.00097  -0.00006  -0.01531   0.04375   0.08353
  49        3S          0.00181   0.00004  -0.00091  -0.00491  -0.01198
  50        4S          0.00003   0.00000  -0.00047   0.00051   0.00039
  51        5PX         0.00000   0.00000   0.00001  -0.00005  -0.00016
  52        5PY         0.00001   0.00000  -0.00109   0.00399   0.00862
  53        5PZ        -0.00004   0.00000   0.00028   0.00095   0.00034
  54        6PX        -0.00001   0.00000   0.00003  -0.00017  -0.00039
  55        6PY         0.00008   0.00000  -0.00073   0.00080   0.00121
  56        6PZ         0.00032  -0.00001   0.00008   0.00243  -0.00051
  57        7PX        -0.00002   0.00000  -0.00010  -0.00011  -0.00022
  58        7PY         0.00043   0.00001   0.00135  -0.00496  -0.01030
  59        7PZ        -0.00055   0.00001  -0.00280  -0.00173  -0.00131
  60        8D 0        0.00006   0.00000   0.00014  -0.00035  -0.00091
  61        8D+1        0.00000   0.00000   0.00000   0.00000  -0.00001
  62        8D-1       -0.00001   0.00000  -0.00015   0.00049   0.00023
  63        8D+2       -0.00002   0.00000   0.00003  -0.00054  -0.00137
  64        8D-2        0.00000   0.00000   0.00000  -0.00002  -0.00008
  65        9D 0        0.00009  -0.00001  -0.00006   0.00122   0.00101
  66        9D+1        0.00000   0.00000   0.00002   0.00000   0.00001
  67        9D-1        0.00014   0.00000  -0.00006   0.00004  -0.00038
  68        9D+2        0.00004   0.00000  -0.00098   0.00225   0.00415
  69        9D-2        0.00000   0.00000  -0.00001  -0.00002  -0.00005
  70 3   H  1S         -0.00008   0.00000  -0.00873   0.03834   0.08464
  71        2S          0.00099  -0.00006  -0.01533   0.04409   0.08630
  72        3S          0.00179   0.00004  -0.00095  -0.00639  -0.01562
  73        4S          0.00004   0.00000  -0.00043   0.00042   0.00010
  74        5PX         0.00001   0.00000  -0.00096   0.00355   0.00779
  75        5PY        -0.00001   0.00000   0.00056  -0.00208  -0.00459
  76        5PZ        -0.00004   0.00000   0.00027   0.00098   0.00041
  77        6PX         0.00007   0.00000  -0.00055   0.00040   0.00049
  78        6PY        -0.00004   0.00000   0.00034  -0.00033  -0.00050
  79        6PZ         0.00033  -0.00001   0.00013   0.00246  -0.00055
  80        7PX         0.00037   0.00001   0.00117  -0.00465  -0.00991
  81        7PY        -0.00022   0.00000  -0.00074   0.00262   0.00561
  82        7PZ        -0.00055   0.00001  -0.00281  -0.00179  -0.00147
  83        8D 0        0.00006   0.00000   0.00014  -0.00037  -0.00095
  84        8D+1       -0.00001   0.00000  -0.00012   0.00044   0.00021
  85        8D-1        0.00000   0.00000   0.00007  -0.00026  -0.00013
  86        8D+2        0.00001   0.00000  -0.00001   0.00027   0.00067
  87        8D-2       -0.00002   0.00000   0.00003  -0.00049  -0.00125
  88        9D 0        0.00009  -0.00001  -0.00007   0.00125   0.00103
  89        9D+1        0.00012   0.00000  -0.00003   0.00002  -0.00036
  90        9D-1       -0.00007   0.00000   0.00003  -0.00001   0.00021
  91        9D+2       -0.00002   0.00000   0.00049  -0.00115  -0.00214
  92        9D-2        0.00003   0.00000  -0.00086   0.00198   0.00367
  93 4   H  1S         -0.00008   0.00000  -0.00842   0.03605   0.07652
  94        2S          0.00096  -0.00006  -0.01528   0.04345   0.08106
  95        3S          0.00183   0.00004  -0.00085  -0.00346  -0.00867
  96        4S          0.00003   0.00000  -0.00050   0.00059   0.00068
  97        5PX        -0.00001   0.00000   0.00093  -0.00336  -0.00717
  98        5PY        -0.00001   0.00000   0.00053  -0.00191  -0.00404
  99        5PZ        -0.00004   0.00000   0.00028   0.00093   0.00029
 100        6PX        -0.00006   0.00000   0.00072  -0.00098  -0.00158
 101        6PY        -0.00003   0.00000   0.00040  -0.00047  -0.00068
 102        6PZ         0.00031  -0.00001   0.00003   0.00239  -0.00047
 103        7PX        -0.00038  -0.00001  -0.00117   0.00394   0.00798
 104        7PY        -0.00021   0.00000  -0.00062   0.00234   0.00474
 105        7PZ        -0.00055   0.00001  -0.00279  -0.00168  -0.00118
 106        8D 0        0.00006   0.00000   0.00014  -0.00034  -0.00087
 107        8D+1        0.00001   0.00000   0.00013  -0.00042  -0.00019
 108        8D-1        0.00000   0.00000   0.00007  -0.00024  -0.00011
 109        8D+2        0.00001   0.00000  -0.00002   0.00028   0.00069
 110        8D-2        0.00001   0.00000  -0.00003   0.00045   0.00112
 111        9D 0        0.00008  -0.00001  -0.00005   0.00119   0.00099
 112        9D+1       -0.00012   0.00000   0.00007  -0.00004   0.00031
 113        9D-1       -0.00007   0.00000   0.00003  -0.00002   0.00017
 114        9D+2       -0.00002   0.00000   0.00049  -0.00110  -0.00200
 115        9D-2       -0.00003   0.00000   0.00084  -0.00192  -0.00352
 116 5   Cl 1S          0.00007   0.99708  -0.00064   0.06648  -0.03480
 117        2S         -0.00007   0.01040   0.00292  -0.25192   0.13078
 118        3S          0.00005   0.00017  -0.00391   0.52468  -0.27825
 119        4S          0.00008   0.00026  -0.00025   0.06428  -0.03748
 120        5S         -0.00181  -0.00020  -0.01230   0.35094  -0.17058
 121        6S         -0.00050  -0.00011  -0.00461   0.02452   0.01129
 122        7PX         0.00004   0.00000   0.00000   0.00007   0.00038
 123        7PY         0.00000   0.00000   0.00000   0.00000   0.00000
 124        7PZ         0.00732   0.00016   0.00152   0.00459   0.02878
 125        8PX         0.00001   0.00000   0.00000  -0.00010  -0.00095
 126        8PY         0.00000   0.00000   0.00000   0.00000  -0.00001
 127        8PZ         0.00051  -0.00003  -0.00227  -0.00602  -0.07204
 128        9PX         0.00000   0.00000  -0.00001  -0.00003  -0.00041
 129        9PY         0.00000   0.00000   0.00000   0.00000   0.00000
 130        9PZ         0.00032   0.00003  -0.00264   0.00068  -0.03139
 131       10PX         0.00001   0.00000   0.00005  -0.00002  -0.00043
 132       10PY         0.00000   0.00000   0.00000   0.00000  -0.00001
 133       10PZ         0.00096   0.00015   0.00271   0.00302  -0.05234
 134       11PX         0.00000   0.00000  -0.00001   0.00001   0.00001
 135       11PY         0.00000   0.00000   0.00000   0.00000   0.00000
 136       11PZ         0.00002   0.00002  -0.00040   0.00263  -0.00874
 137       12D 0       -0.00003   0.00001  -0.00035   0.00448   0.00453
 138       12D+1        0.00000   0.00000   0.00000   0.00006   0.00015
 139       12D-1        0.00000   0.00000   0.00000   0.00000   0.00000
 140       12D+2        0.00000   0.00000   0.00000   0.00000   0.00000
 141       12D-2        0.00000   0.00000   0.00000   0.00000  -0.00001
 142       13D 0       -0.00022   0.00000  -0.00163   0.00819   0.00968
 143       13D+1       -0.00001   0.00000  -0.00003   0.00012   0.00026
 144       13D-1        0.00000   0.00000   0.00000   0.00001   0.00000
 145       13D+2        0.00000   0.00000   0.00000   0.00000   0.00000
 146       13D-2        0.00000   0.00000   0.00000  -0.00001  -0.00001
 147       14D 0       -0.00014  -0.00004  -0.00184  -0.00018   0.00538
 148       14D+1       -0.00001   0.00000  -0.00004   0.00001   0.00007
 149       14D-1        0.00000   0.00000   0.00000   0.00000   0.00000
 150       14D+2        0.00000   0.00000   0.00000   0.00000   0.00000
 151       14D-2        0.00000   0.00000   0.00000   0.00000   0.00001
 152       15F 0        0.00005   0.00000   0.00023  -0.00180  -0.00191
 153       15F+1        0.00000   0.00000   0.00000  -0.00003  -0.00007
 154       15F-1        0.00000   0.00000   0.00000   0.00000   0.00000
 155       15F+2        0.00000   0.00000   0.00000   0.00000   0.00000
 156       15F-2        0.00000   0.00000   0.00000   0.00000   0.00001
 157       15F+3        0.00000   0.00000   0.00000   0.00000   0.00000
 158       15F-3       -0.00001   0.00000  -0.00001   0.00002   0.00009
 159       16F 0       -0.00005   0.00001   0.00005  -0.00093  -0.00171
 160       16F+1        0.00001   0.00000   0.00002  -0.00003  -0.00005
 161       16F-1        0.00000   0.00000   0.00000   0.00000   0.00000
 162       16F+2        0.00000   0.00000   0.00000   0.00000   0.00000
 163       16F-2        0.00000   0.00000   0.00001   0.00000  -0.00002
 164       16F+3        0.00000   0.00000   0.00000   0.00000   0.00000
 165       16F-3        0.00003   0.00000   0.00002  -0.00001  -0.00021
 166 6   F  1S          0.97743  -0.00002   0.21189   0.01316   0.02161
 167        2S         -0.01503   0.00000  -0.53161  -0.03405  -0.05730
 168        3S          0.04206   0.00000  -0.16471  -0.01081  -0.01853
 169        4S          0.00193  -0.00001  -0.36876  -0.02363  -0.04389
 170        5S         -0.00084  -0.00006  -0.04529   0.00420   0.00780
 171        6PX         0.00000   0.00000  -0.00020  -0.00019  -0.00166
 172        6PY         0.00000   0.00000   0.00001   0.00001   0.00009
 173        6PZ         0.00048   0.00000   0.01352   0.01270   0.08743
 174        7PX         0.00000   0.00000  -0.00023  -0.00024  -0.00200
 175        7PY         0.00000   0.00000   0.00001   0.00001   0.00011
 176        7PZ        -0.00012   0.00000   0.01475   0.01552   0.10520
 177        8PX        -0.00001   0.00000  -0.00020  -0.00017  -0.00151
 178        8PY         0.00000   0.00000   0.00001   0.00001   0.00009
 179        8PZ         0.00240  -0.00001   0.01247   0.01226   0.08367
 180        9PX         0.00000   0.00000  -0.00007  -0.00005  -0.00037
 181        9PY         0.00000   0.00000   0.00000   0.00000   0.00002
 182        9PZ        -0.00008  -0.00002   0.00220   0.00316   0.02422
 183       10D 0       -0.00002   0.00000  -0.00013   0.00017   0.00060
 184       10D+1        0.00000   0.00000   0.00000   0.00000  -0.00001
 185       10D-1        0.00000   0.00000   0.00000   0.00000   0.00000
 186       10D+2        0.00000   0.00000   0.00000   0.00000   0.00000
 187       10D-2        0.00000   0.00000   0.00000   0.00000   0.00000
 188       11D 0       -0.00003   0.00000  -0.00104   0.00091   0.00275
 189       11D+1        0.00000   0.00000   0.00001  -0.00001  -0.00007
 190       11D-1        0.00000   0.00000   0.00000   0.00000   0.00000
 191       11D+2        0.00000   0.00000   0.00000   0.00000   0.00000
 192       11D-2        0.00000   0.00000   0.00000   0.00000  -0.00001
 193       12D 0        0.00080   0.00000  -0.00055   0.00035   0.00386
 194       12D+1       -0.00001   0.00000  -0.00001   0.00000  -0.00004
 195       12D-1        0.00000   0.00000   0.00000   0.00000   0.00000
 196       12D+2        0.00000   0.00000   0.00000   0.00000   0.00000
 197       12D-2        0.00000   0.00000   0.00001   0.00001   0.00001
 198       13F 0       -0.00006   0.00000  -0.00002   0.00013   0.00027
 199       13F+1        0.00000   0.00000   0.00000   0.00000  -0.00001
 200       13F-1        0.00000   0.00000   0.00000   0.00000   0.00000
 201       13F+2        0.00000   0.00000   0.00000   0.00000   0.00000
 202       13F-2        0.00000   0.00000   0.00000   0.00000   0.00000
 203       13F+3        0.00000   0.00000   0.00000   0.00000   0.00000
 204       13F-3        0.00001   0.00000   0.00001   0.00002   0.00003
 205       14F 0        0.00020   0.00000  -0.00040  -0.00006   0.00063
 206       14F+1        0.00000   0.00000   0.00001   0.00000  -0.00001
 207       14F-1        0.00000   0.00000   0.00000   0.00000   0.00000
 208       14F+2        0.00000   0.00000   0.00000   0.00000   0.00000
 209       14F-2        0.00000   0.00000   0.00000   0.00001   0.00001
 210       14F+3        0.00000   0.00000   0.00000   0.00000   0.00000
 211       14F-3       -0.00001   0.00000  -0.00007  -0.00006  -0.00009
                          11        12        13        14        15
     Eigenvalues --     1.96440   1.96434   1.95947   1.95898   1.94913
   1 1   C  1S          0.00110  -0.00097   0.00142  -0.00134  -0.00290
   2        2S         -0.00294   0.00258  -0.00378   0.00354   0.00829
   3        3S         -0.00059   0.00051  -0.00071   0.00065   0.00202
   4        4S         -0.00025   0.00018   0.00309  -0.00340   0.01809
   5        5S          0.00088  -0.00084   0.00139  -0.00144   0.00365
   6        6PX        -0.07193   0.06645  -0.16157   0.16495  -0.04761
   7        6PY         0.07350   0.06497   0.16379   0.16277   0.04579
   8        6PZ         0.00018  -0.00022   0.00010  -0.00024   0.00259
   9        7PX        -0.09629   0.08909  -0.21415   0.21862  -0.06624
  10        7PY         0.09840   0.08710   0.21708   0.21572   0.06372
  11        7PZ         0.00011  -0.00018   0.00011  -0.00030   0.00365
  12        8PX        -0.07017   0.06548  -0.16486   0.16916  -0.05066
  13        8PY         0.07174   0.06405   0.16716   0.16697   0.04874
  14        8PZ         0.00035  -0.00039   0.00032  -0.00049   0.00362
  15        9PX         0.00144  -0.00167  -0.01321   0.01357  -0.00864
  16        9PY        -0.00146  -0.00163   0.01340   0.01339   0.00832
  17        9PZ         0.00007  -0.00007   0.00007  -0.00008   0.00007
  18       10D 0        0.00006  -0.00005   0.00003  -0.00002  -0.00056
  19       10D+1        0.00193  -0.00189   0.00090  -0.00090   0.00269
  20       10D-1       -0.00197  -0.00185  -0.00091  -0.00088  -0.00258
  21       10D+2        0.00466   0.00416   0.01047   0.01048   0.00339
  22       10D-2       -0.00456   0.00425  -0.01033   0.01061  -0.00353
  23       11D 0        0.00009  -0.00006  -0.00026   0.00028  -0.00305
  24       11D+1        0.00893  -0.00908  -0.00542   0.00539   0.01123
  25       11D-1       -0.00911  -0.00886   0.00552   0.00534  -0.01079
  26       11D+2        0.01524   0.01396   0.03185   0.03220   0.01149
  27       11D-2       -0.01490   0.01425  -0.03144   0.03260  -0.01197
  28       12D 0        0.00010  -0.00008   0.00009  -0.00007  -0.00155
  29       12D+1        0.00420  -0.00442  -0.00403   0.00400  -0.00091
  30       12D-1       -0.00428  -0.00431   0.00411   0.00396   0.00089
  31       12D+2        0.01460   0.01380   0.02505   0.02583   0.00669
  32       12D-2       -0.01428   0.01408  -0.02472   0.02614  -0.00700
  33       13F 0       -0.00001   0.00001  -0.00002   0.00002   0.00011
  34       13F+1       -0.00015   0.00020   0.00142  -0.00142   0.00159
  35       13F-1        0.00016   0.00020  -0.00144  -0.00140  -0.00153
  36       13F+2       -0.00045  -0.00045  -0.00007  -0.00010  -0.00022
  37       13F-2        0.00044  -0.00046   0.00007  -0.00010   0.00023
  38       13F+3        0.00000   0.00000   0.00002   0.00002   0.00001
  39       13F-3       -0.00005   0.00005  -0.00006   0.00006   0.00016
  40       14F 0        0.00007  -0.00006   0.00014  -0.00014   0.00030
  41       14F+1       -0.00020   0.00035   0.00417  -0.00406   0.00520
  42       14F-1        0.00020   0.00034  -0.00423  -0.00401  -0.00502
  43       14F+2       -0.00275  -0.00271  -0.00007  -0.00010  -0.00220
  44       14F-2        0.00269  -0.00277   0.00007  -0.00011   0.00230
  45       14F+3        0.00008   0.00007   0.00023   0.00023   0.00002
  46       14F-3       -0.00006   0.00006   0.00012  -0.00013   0.00093
  47 2   H  1S         -0.05120  -0.04413  -0.10843  -0.10582  -0.02973
  48        2S         -0.04673  -0.03932  -0.11116  -0.10717  -0.03123
  49        3S          0.04274   0.03917   0.08388   0.08480   0.00148
  50        4S         -0.00410  -0.00406   0.01236   0.01222   0.00065
  51        5PX        -0.00147   0.00148  -0.00292   0.00325  -0.00070
  52        5PY        -0.00407  -0.00341  -0.00896  -0.00856  -0.00234
  53        5PZ        -0.00002   0.00005  -0.00200  -0.00195   0.00030
  54        6PX        -0.00581   0.00554  -0.00935   0.00989  -0.00261
  55        6PY         0.00523   0.00494   0.00770   0.00817   0.00341
  56        6PZ        -0.00198  -0.00195   0.00030   0.00025  -0.00073
  57        7PX        -0.00682   0.00628  -0.00954   0.00933  -0.00201
  58        7PY         0.01084   0.00907   0.03241   0.03206   0.00572
  59        7PZ         0.00054   0.00039   0.00544   0.00529   0.00160
  60        8D 0        0.00033   0.00026   0.00098   0.00094   0.00027
  61        8D+1       -0.00001   0.00001  -0.00022   0.00022   0.00003
  62        8D-1       -0.00054  -0.00051  -0.00017  -0.00017  -0.00019
  63        8D+2        0.00049   0.00037   0.00142   0.00130   0.00033
  64        8D-2       -0.00076   0.00073  -0.00153   0.00164  -0.00041
  65        9D 0       -0.00039  -0.00038   0.00097   0.00110  -0.00020
  66        9D+1        0.00109  -0.00108  -0.00074   0.00067   0.00087
  67        9D-1       -0.00235  -0.00236   0.00250   0.00234  -0.00046
  68        9D+2       -0.00125  -0.00103  -0.00196  -0.00181  -0.00080
  69        9D-2       -0.00122   0.00112  -0.00204   0.00202  -0.00081
  70 3   H  1S          0.06744  -0.01664   0.14495  -0.03945   0.04610
  71        2S          0.05977  -0.01439   0.14408  -0.03870   0.04239
  72        3S         -0.05845   0.01528  -0.11748   0.03306  -0.00644
  73        4S          0.00550  -0.00156  -0.01696   0.00467  -0.00107
  74        5PX         0.00490  -0.00011   0.01086  -0.00056   0.00318
  75        5PY        -0.00218   0.00235  -0.00501   0.00538  -0.00158
  76        5PZ         0.00005   0.00001   0.00273  -0.00074  -0.00002
  77        6PX        -0.00526   0.00550  -0.00805   0.00960  -0.00456
  78        6PY         0.00565   0.00556   0.00875   0.00996   0.00369
  79        6PZ         0.00278  -0.00079  -0.00064   0.00015   0.00119
  80        7PX        -0.01093   0.00735  -0.03601   0.01704  -0.00795
  81        7PY         0.00947   0.00594   0.02513   0.00540   0.00540
  82        7PZ        -0.00078   0.00016  -0.00750   0.00203  -0.00348
  83        8D 0       -0.00040   0.00009  -0.00126   0.00034  -0.00037
  84        8D+1        0.00063  -0.00016   0.00022   0.00011   0.00025
  85        8D-1       -0.00036   0.00011  -0.00003   0.00030  -0.00015
  86        8D+2        0.00056   0.00080   0.00140   0.00172   0.00038
  87        8D-2       -0.00037   0.00061  -0.00126   0.00151  -0.00038
  88        9D 0        0.00054  -0.00015  -0.00142   0.00044   0.00013
  89        9D+1        0.00251  -0.00154  -0.00279   0.00123   0.00014
  90        9D-1       -0.00195  -0.00086   0.00194   0.00037  -0.00042
  91        9D+2       -0.00036   0.00152  -0.00053   0.00274  -0.00021
  92        9D-2        0.00159   0.00046   0.00250   0.00086   0.00093
  93 4   H  1S         -0.01823   0.06255  -0.03896   0.14761  -0.01080
  94        2S         -0.01712   0.05740  -0.04114   0.15411  -0.01285
  95        3S          0.01459  -0.05344   0.02868  -0.11278  -0.00041
  96        4S         -0.00144   0.00567   0.00432  -0.01661   0.00022
  97        5PX         0.00024  -0.00448   0.00077  -0.01097   0.00028
  98        5PY         0.00251  -0.00199   0.00514  -0.00499   0.00125
  99        5PZ         0.00000  -0.00010  -0.00071   0.00268   0.00021
 100        6PX        -0.00547   0.00472  -0.00858   0.00717  -0.00262
 101        6PY         0.00602   0.00492   0.00991   0.00819   0.00236
 102        6PZ        -0.00066   0.00258   0.00005  -0.00014  -0.00026
 103        7PX        -0.00788   0.01017  -0.01627   0.03675  -0.00292
 104        7PY         0.00591   0.00827   0.00516   0.02486   0.00123
 105        7PZ         0.00017  -0.00050   0.00191  -0.00721   0.00033
 106        8D 0        0.00012  -0.00039   0.00036  -0.00136   0.00011
 107        8D+1        0.00016  -0.00062  -0.00009  -0.00027   0.00008
 108        8D-1        0.00011  -0.00035   0.00030  -0.00006   0.00001
 109        8D+2        0.00080   0.00050   0.00154   0.00146   0.00040
 110        8D-2       -0.00068   0.00037  -0.00151   0.00137  -0.00037
 111        9D 0       -0.00013   0.00051   0.00031  -0.00142  -0.00011
 112        9D+1        0.00144  -0.00266  -0.00126   0.00267   0.00079
 113        9D-1       -0.00085  -0.00196   0.00042   0.00181  -0.00084
 114        9D+2        0.00166  -0.00045   0.00276  -0.00075   0.00109
 115        9D-2       -0.00041  -0.00153  -0.00073  -0.00270  -0.00020
 116 5   Cl 1S          0.00018  -0.00016   0.00023  -0.00021  -0.00055
 117        2S         -0.00067   0.00059  -0.00083   0.00078   0.00211
 118        3S          0.00149  -0.00130   0.00188  -0.00177  -0.00428
 119        4S          0.00022  -0.00019   0.00029  -0.00028  -0.00065
 120        5S          0.00080  -0.00069   0.00106  -0.00098  -0.00376
 121        6S         -0.00041   0.00039  -0.00041   0.00042  -0.00128
 122        7PX         0.00644  -0.00599   0.02935  -0.03243  -0.16107
 123        7PY        -0.00659  -0.00586  -0.02976  -0.03201   0.15498
 124        7PZ        -0.00048   0.00044  -0.00106   0.00113  -0.00089
 125        8PX        -0.01527   0.01418  -0.06942   0.07655   0.36848
 126        8PY         0.01561   0.01387   0.07039   0.07555  -0.35455
 127        8PZ         0.00116  -0.00106   0.00251  -0.00265   0.00209
 128        9PX        -0.00707   0.00659  -0.03206   0.03546   0.17799
 129        9PY         0.00723   0.00645   0.03251   0.03500  -0.17126
 130        9PZ         0.00050  -0.00046   0.00111  -0.00118   0.00103
 131       10PX        -0.00758   0.00711  -0.03728   0.04180   0.26477
 132       10PY         0.00775   0.00696   0.03780   0.04126  -0.25475
 133       10PZ         0.00091  -0.00085   0.00177  -0.00187   0.00308
 134       11PX        -0.00147   0.00153  -0.00213   0.00270   0.04468
 135       11PY         0.00151   0.00149   0.00216   0.00266  -0.04299
 136       11PZ         0.00019  -0.00018   0.00025  -0.00026   0.00116
 137       12D 0       -0.00006   0.00006  -0.00015   0.00015   0.00024
 138       12D+1        0.00139  -0.00127   0.00428  -0.00446  -0.00022
 139       12D-1       -0.00142  -0.00125  -0.00434  -0.00440   0.00021
 140       12D+2        0.00009   0.00007   0.00040   0.00037   0.00016
 141       12D-2       -0.00009   0.00007  -0.00039   0.00037  -0.00016
 142       13D 0       -0.00016   0.00014  -0.00030   0.00031   0.00036
 143       13D+1        0.00216  -0.00194   0.00759  -0.00789  -0.00058
 144       13D-1       -0.00221  -0.00190  -0.00770  -0.00779   0.00057
 145       13D+2        0.00025   0.00021   0.00049   0.00043   0.00037
 146       13D-2       -0.00024   0.00021  -0.00048   0.00043  -0.00039
 147       14D 0       -0.00010   0.00009  -0.00019   0.00019  -0.00014
 148       14D+1       -0.00004   0.00005  -0.00004   0.00003  -0.00246
 149       14D-1        0.00004   0.00005   0.00004   0.00003   0.00237
 150       14D+2       -0.00047  -0.00046  -0.00005  -0.00005   0.00002
 151       14D-2        0.00046  -0.00047   0.00005  -0.00005  -0.00003
 152       15F 0        0.00003  -0.00003   0.00006  -0.00006  -0.00007
 153       15F+1       -0.00065   0.00060  -0.00181   0.00190   0.00103
 154       15F-1        0.00066   0.00059   0.00184   0.00187  -0.00099
 155       15F+2       -0.00009  -0.00007  -0.00025  -0.00023  -0.00005
 156       15F-2        0.00009  -0.00007   0.00025  -0.00023   0.00006
 157       15F+3        0.00000   0.00000   0.00000   0.00000   0.00000
 158       15F-3        0.00000   0.00000   0.00000   0.00000   0.00000
 159       16F 0        0.00004  -0.00003   0.00006  -0.00007  -0.00009
 160       16F+1       -0.00044   0.00040  -0.00139   0.00145   0.00131
 161       16F-1        0.00045   0.00039   0.00141   0.00143  -0.00126
 162       16F+2        0.00001   0.00001   0.00012   0.00014  -0.00012
 163       16F-2       -0.00001   0.00001  -0.00012   0.00014   0.00013
 164       16F+3        0.00000   0.00000   0.00000   0.00000  -0.00001
 165       16F-3        0.00000   0.00000   0.00000   0.00000  -0.00001
 166 6   F  1S         -0.00022   0.00020  -0.00023   0.00022   0.00064
 167        2S          0.00059  -0.00054   0.00064  -0.00061  -0.00136
 168        3S          0.00019  -0.00018   0.00021  -0.00020  -0.00041
 169        4S          0.00051  -0.00047   0.00059  -0.00057  -0.00088
 170        5S         -0.00012   0.00012  -0.00003   0.00002  -0.00043
 171        6PX        -0.22993   0.23968   0.11849  -0.11060   0.01600
 172        6PY         0.23510   0.23450  -0.12009  -0.10912  -0.01525
 173        6PZ        -0.00320   0.00294  -0.00192   0.00218  -0.02073
 174        7PX        -0.27429   0.28589   0.14054  -0.13111   0.01895
 175        7PY         0.28046   0.27972  -0.14243  -0.12934  -0.01805
 176        7PZ        -0.00383   0.00351  -0.00232   0.00262  -0.02472
 177        8PX        -0.22168   0.23121   0.11800  -0.11050   0.01619
 178        8PY         0.22668   0.22622  -0.11959  -0.10901  -0.01543
 179        8PZ        -0.00307   0.00282  -0.00182   0.00206  -0.02042
 180        9PX        -0.06963   0.07274   0.04140  -0.03917   0.00787
 181        9PY         0.07120   0.07116  -0.04196  -0.03865  -0.00753
 182        9PZ        -0.00095   0.00087  -0.00043   0.00051  -0.00638
 183       10D 0       -0.00001   0.00001  -0.00001   0.00001  -0.00005
 184       10D+1       -0.00042   0.00043  -0.00006   0.00007  -0.00008
 185       10D-1        0.00043   0.00042   0.00006   0.00007   0.00008
 186       10D+2        0.00002   0.00001   0.00002   0.00003   0.00001
 187       10D-2       -0.00002   0.00001  -0.00002   0.00003  -0.00001
 188       11D 0       -0.00005   0.00004  -0.00006   0.00006  -0.00013
 189       11D+1       -0.00171   0.00172  -0.00081   0.00091  -0.00041
 190       11D-1        0.00175   0.00168   0.00083   0.00090   0.00040
 191       11D+2        0.00005   0.00002   0.00018   0.00018   0.00012
 192       11D-2       -0.00005   0.00002  -0.00018   0.00018  -0.00013
 193       12D 0       -0.00010   0.00009  -0.00008   0.00009  -0.00060
 194       12D+1       -0.00410   0.00429   0.00257  -0.00246  -0.00024
 195       12D-1        0.00419   0.00419  -0.00261  -0.00243   0.00023
 196       12D+2        0.00003   0.00001  -0.00021  -0.00018  -0.00025
 197       12D-2       -0.00004   0.00001   0.00021  -0.00019   0.00026
 198       13F 0       -0.00001   0.00001  -0.00001   0.00001  -0.00001
 199       13F+1       -0.00016   0.00015  -0.00017   0.00018  -0.00004
 200       13F-1        0.00016   0.00015   0.00018   0.00018   0.00004
 201       13F+2        0.00004   0.00003   0.00008   0.00008   0.00004
 202       13F-2       -0.00004   0.00004  -0.00008   0.00008  -0.00004
 203       13F+3        0.00000   0.00000   0.00000   0.00000   0.00000
 204       13F-3        0.00000   0.00000   0.00000   0.00000   0.00000
 205       14F 0       -0.00002   0.00002  -0.00001   0.00001  -0.00011
 206       14F+1       -0.00100   0.00105   0.00063  -0.00060  -0.00001
 207       14F-1        0.00103   0.00103  -0.00064  -0.00059   0.00001
 208       14F+2       -0.00009  -0.00010  -0.00017  -0.00016  -0.00011
 209       14F-2        0.00008  -0.00010   0.00017  -0.00017   0.00011
 210       14F+3        0.00000   0.00000   0.00000   0.00000   0.00000
 211       14F-3        0.00000   0.00000   0.00000   0.00000  -0.00001
                          16        17        18        19        20
     Eigenvalues --     1.94908   1.94879   1.93535   0.06019   0.02496
   1 1   C  1S          0.00338   0.05316  -0.01580  -0.02406  -0.00259
   2        2S         -0.00967  -0.15134   0.05098   0.06680   0.00947
   3        3S         -0.00235  -0.03571   0.01676   0.02432   0.00452
   4        4S         -0.02082  -0.29087   0.08706  -0.22143  -0.00190
   5        5S         -0.00419  -0.05736   0.03918  -0.02902  -0.00154
   6        6PX         0.04813  -0.00789   0.00061   0.00006   0.11764
   7        6PY         0.05040  -0.00079  -0.00004   0.00012   0.11100
   8        6PZ        -0.00304  -0.04551  -0.12872   0.27937  -0.00070
   9        7PX         0.06679  -0.01107   0.00109  -0.00069   0.21944
  10        7PY         0.06995  -0.00106  -0.00007   0.00023   0.20706
  11        7PZ        -0.00428  -0.06450  -0.18059   0.44327  -0.00102
  12        8PX         0.05162  -0.00889   0.00130  -0.00073   0.10029
  13        8PY         0.05408  -0.00086  -0.00003   0.00010   0.09448
  14        8PZ        -0.00424  -0.06397  -0.07660   0.20176   0.00032
  15        9PX         0.00860  -0.00146   0.00030   0.00013   0.02129
  16        9PY         0.00901  -0.00013   0.00000   0.00000   0.02003
  17        9PZ        -0.00009  -0.00123  -0.00166  -0.00006  -0.00023
  18       10D 0        0.00065   0.00931  -0.01106  -0.00881  -0.00006
  19       10D+1       -0.00257   0.00036  -0.00004  -0.00014   0.01847
  20       10D-1       -0.00269   0.00004  -0.00001  -0.00001   0.01740
  21       10D+2        0.00372  -0.00005   0.00000   0.00000   0.00221
  22       10D-2        0.00355  -0.00048  -0.00003  -0.00004   0.00242
  23       11D 0        0.00352   0.04961  -0.04570   0.06669   0.00156
  24       11D+1       -0.01058   0.00122  -0.00014   0.00078   0.04314
  25       11D-1       -0.01107   0.00015  -0.00003   0.00004   0.04070
  26       11D+2        0.01267  -0.00018   0.00000   0.00001   0.05039
  27       11D-2        0.01210  -0.00158   0.00002   0.00008   0.05342
  28       12D 0        0.00180   0.02807  -0.00381  -0.01694  -0.00006
  29       12D+1        0.00076  -0.00009  -0.00006   0.00026   0.01420
  30       12D-1        0.00080   0.00002   0.00000  -0.00002   0.01344
  31       12D+2        0.00761  -0.00013   0.00000   0.00000   0.01219
  32       12D-2        0.00730  -0.00075  -0.00008   0.00066   0.01287
  33       13F 0       -0.00013  -0.00207  -0.00328  -0.00586   0.00011
  34       13F+1       -0.00155   0.00026  -0.00004   0.00005  -0.00724
  35       13F-1       -0.00163   0.00002   0.00000  -0.00001  -0.00683
  36       13F+2       -0.00025   0.00001   0.00000   0.00000   0.00220
  37       13F-2       -0.00024   0.00005  -0.00001  -0.00003   0.00232
  38       13F+3        0.00001   0.00000   0.00000   0.00000   0.00006
  39       13F-3       -0.00019  -0.00307   0.00115  -0.00053   0.00006
  40       14F 0       -0.00034  -0.00545  -0.00087   0.01162   0.00040
  41       14F+1       -0.00499   0.00083  -0.00010   0.00029  -0.00221
  42       14F-1       -0.00525   0.00005   0.00000   0.00001  -0.00210
  43       14F+2       -0.00238   0.00004  -0.00001   0.00002  -0.00170
  44       14F-2       -0.00229   0.00016  -0.00001   0.00047  -0.00180
  45       14F+3        0.00003  -0.00001   0.00000  -0.00001   0.00035
  46       14F-3       -0.00107  -0.01502   0.00917  -0.03769  -0.00041
  47 2   H  1S         -0.03676  -0.03317   0.02884  -0.00683   0.02789
  48        2S         -0.03397  -0.00265   0.02283   0.07998   0.18440
  49        3S          0.00630   0.02172   0.02031   0.06878   0.11999
  50        4S          0.00089   0.00009   0.00193   0.00722   0.04907
  51        5PX         0.00080  -0.00012   0.00000   0.00004   0.00239
  52        5PY        -0.00278  -0.00210   0.00248  -0.00200  -0.00596
  53        5PZ        -0.00007  -0.00266  -0.00321   0.01429  -0.00834
  54        6PX         0.00263  -0.00066   0.00019  -0.00072   0.00572
  55        6PY         0.00457   0.00544  -0.00154   0.00982   0.04288
  56        6PZ        -0.00093  -0.00098  -0.01029   0.02820  -0.00329
  57        7PX         0.00198  -0.00022  -0.00005   0.00033  -0.00038
  58        7PY         0.00813   0.01093  -0.00164   0.01271   0.03584
  59        7PZ         0.00265   0.00802   0.00317  -0.01401   0.00453
  60        8D 0        0.00031   0.00014  -0.00085   0.00060   0.00179
  61        8D+1       -0.00002   0.00000   0.00001  -0.00009   0.00139
  62        8D-1       -0.00023  -0.00020  -0.00171   0.00673  -0.00267
  63        8D+2        0.00041   0.00052  -0.00061   0.00186   0.00168
  64        8D-2        0.00044  -0.00008   0.00000   0.00001   0.00175
  65        9D 0       -0.00001   0.00082  -0.00282   0.00596  -0.00227
  66        9D+1       -0.00080   0.00002   0.00005   0.00010   0.00310
  67        9D-1       -0.00017   0.00201  -0.00055  -0.00588   0.01077
  68        9D+2       -0.00071   0.00109   0.00035  -0.00113  -0.00695
  69        9D-2        0.00077  -0.00011   0.00002  -0.00006   0.00074
  70 3   H  1S         -0.01347  -0.02942   0.02861  -0.00696   0.00979
  71        2S         -0.01073   0.00156   0.02229   0.07932   0.07445
  72        3S          0.00349   0.02203   0.02030   0.06957   0.05008
  73        4S          0.00034  -0.00001   0.00202   0.00713   0.02070
  74        5PX        -0.00031  -0.00163   0.00217  -0.00184  -0.00053
  75        5PY         0.00146   0.00085  -0.00125   0.00109   0.00402
  76        5PZ        -0.00015  -0.00269  -0.00328   0.01457  -0.00354
  77        6PX         0.00349   0.00395  -0.00111   0.00740   0.01935
  78        6PY         0.00244  -0.00271   0.00075  -0.00468  -0.00167
  79        6PZ        -0.00036  -0.00100  -0.01039   0.02862  -0.00127
  80        7PX         0.00421   0.00862  -0.00120   0.01101   0.01292
  81        7PY         0.00096  -0.00513   0.00066  -0.00617  -0.00746
  82        7PZ         0.00126   0.00791   0.00313  -0.01419   0.00196
  83        8D 0        0.00010   0.00012  -0.00085   0.00068   0.00076
  84        8D+1       -0.00008  -0.00017  -0.00149   0.00589  -0.00006
  85        8D-1        0.00002   0.00010   0.00087  -0.00346   0.00213
  86        8D+2        0.00047  -0.00029   0.00030  -0.00099   0.00166
  87        8D-2        0.00044   0.00041  -0.00053   0.00173   0.00177
  88        9D 0        0.00005   0.00087  -0.00286   0.00617  -0.00071
  89        9D+1       -0.00055   0.00174  -0.00042  -0.00523   0.00598
  90        9D-1       -0.00103  -0.00099   0.00027   0.00309   0.00128
  91        9D+2        0.00106  -0.00065  -0.00016   0.00053   0.00243
  92        9D-2        0.00042   0.00099   0.00029  -0.00097  -0.00181
  93 4   H  1S          0.04376  -0.03846   0.02909  -0.00670  -0.04661
  94        2S          0.04635  -0.00865   0.02340   0.08053  -0.27157
  95        3S         -0.00377   0.02163   0.02038   0.06789  -0.17113
  96        4S         -0.00103   0.00024   0.00184   0.00732  -0.06939
  97        5PX        -0.00309   0.00212  -0.00214   0.00165  -0.00783
  98        5PY        -0.00141   0.00127  -0.00123   0.00094  -0.00363
  99        5PZ        -0.00034  -0.00264  -0.00315   0.01403   0.01169
 100        6PX         0.00374  -0.00553   0.00154  -0.00955   0.05277
 101        6PY         0.00337  -0.00286   0.00077  -0.00508   0.03234
 102        6PZ         0.00106  -0.00100  -0.01019   0.02779   0.00508
 103        7PX         0.00746  -0.01059   0.00163  -0.01099   0.04453
 104        7PY         0.00518  -0.00601   0.00097  -0.00654   0.02544
 105        7PZ        -0.00216   0.00819   0.00320  -0.01380  -0.00607
 106        8D 0       -0.00041   0.00017  -0.00085   0.00053  -0.00247
 107        8D+1       -0.00024   0.00019   0.00146  -0.00576  -0.00355
 108        8D-1       -0.00014   0.00011   0.00084  -0.00327  -0.00153
 109        8D+2        0.00039  -0.00025   0.00030  -0.00087   0.00170
 110        8D-2        0.00034  -0.00050   0.00052  -0.00151   0.00181
 111        9D 0        0.00017   0.00079  -0.00279   0.00575   0.00407
 112        9D+1       -0.00034  -0.00174   0.00052   0.00495   0.01264
 113        9D-1       -0.00056  -0.00101   0.00027   0.00281   0.00841
 114        9D+2       -0.00032  -0.00043  -0.00020   0.00061  -0.00498
 115        9D-2       -0.00117  -0.00085  -0.00032   0.00100  -0.00891
 116 5   Cl 1S          0.00064   0.01018   0.00050  -0.01679  -0.00003
 117        2S         -0.00246  -0.03884  -0.00167   0.05630   0.00010
 118        3S          0.00501   0.08029   0.01125  -0.15673  -0.00026
 119        4S          0.00077   0.01239   0.00452  -0.03985   0.00000
 120        5S          0.00439   0.06882   0.01222  -0.04603  -0.00049
 121        6S          0.00147   0.02033  -0.01253   0.01582  -0.00001
 122        7PX         0.15377  -0.01972  -0.00106  -0.00106   0.01531
 123        7PY         0.16112  -0.00179  -0.00009  -0.00007   0.01446
 124        7PZ         0.00105   0.02661  -0.21012  -0.16340  -0.00086
 125        8PX        -0.35178   0.04509   0.00232   0.00231  -0.02382
 126        8PY        -0.36859   0.00411   0.00019   0.00016  -0.02250
 127        8PZ        -0.00246  -0.06213   0.46461   0.36066   0.00195
 128        9PX        -0.16994   0.02180   0.00106   0.00132  -0.02545
 129        9PY        -0.17806   0.00198   0.00009   0.00009  -0.02403
 130        9PZ        -0.00122  -0.03099   0.21829   0.20646   0.00126
 131       10PX        -0.25297   0.03246   0.00151   0.00003   0.01194
 132       10PY        -0.26505   0.00296   0.00013   0.00001   0.01127
 133       10PZ        -0.00360  -0.07205   0.31775   0.02934  -0.00045
 134       11PX        -0.04283   0.00557   0.00007  -0.00003   0.00438
 135       11PY        -0.04487   0.00051   0.00002   0.00000   0.00413
 136       11PZ        -0.00136  -0.02394   0.04618   0.00728  -0.00020
 137       12D 0       -0.00028  -0.00471  -0.01240   0.06747   0.00250
 138       12D+1        0.00009   0.00002  -0.00019   0.00064  -0.04203
 139       12D-1        0.00010   0.00000  -0.00001   0.00005  -0.03967
 140       12D+2        0.00019   0.00000   0.00000   0.00000   0.00005
 141       12D-2        0.00018  -0.00003   0.00001   0.00000   0.00007
 142       13D 0       -0.00043  -0.00753  -0.01943   0.09787   0.00361
 143       13D+1        0.00038   0.00001  -0.00033   0.00112  -0.06269
[...]
  79        6PZ        -0.31969   0.04707  -0.05088  -0.17605  -0.04434
  80        7PX         2.19699   7.05326  -6.51202  -1.74660   0.09921
  81        7PY         0.09710   7.80881   7.01872   0.86984   3.95512
  82        7PZ        -1.17286   1.02352  -3.37423  -0.01557  -0.19597
  83        8D 0       -0.03935   0.00346   0.01063   0.02424   0.00561
  84        8D+1        0.01263   0.02448  -0.01589   0.00689   0.00035
  85        8D-1       -0.00273   0.03304   0.02183  -0.00453  -0.00699
  86        8D+2        0.05260  -0.10759  -0.03088   0.02465  -0.03034
  87        8D-2       -0.11870  -0.04210  -0.01042  -0.04395  -0.00600
  88        9D 0       -0.50917  -0.04204   0.43343  -0.15890   0.05777
  89        9D+1       -0.21287  -0.12136  -0.23333  -0.03484  -0.01107
  90        9D-1        0.07558  -0.36678   0.01657   0.02023   0.11371
  91        9D+2        0.08530   1.72093  -0.23737  -0.37822   0.45545
  92        9D-2        0.23463   0.56041   1.39879   0.61714   0.35074
  93 4   H  1S         -0.03312   0.01478  -0.00586  -0.01061  -0.02317
  94        2S         -0.23028  -3.13403   0.84192  -0.46341   1.97117
  95        3S          3.40991 -27.77171   7.53874  -3.26309  24.51142
  96        4S          1.66199   1.49951  -0.44190  -2.15795  10.65635
  97        5PX        -0.03550  -0.07745   0.07517  -0.08186   0.10500
  98        5PY        -0.01836  -0.07456  -0.07352  -0.04942   0.04412
  99        5PZ         0.05796  -0.01648   0.00523   0.02874  -0.00890
 100        6PX        -0.29134   1.83616  -1.28133   0.59422  -1.12517
 101        6PY        -0.19440   1.47582   0.88400   0.36500  -0.48164
 102        6PZ        -0.33929   0.01867  -0.00866  -0.15011   0.14616
 103        7PX         0.10082   6.79858  -7.28044   1.71749  -6.59124
 104        7PY        -0.15704   7.02643   7.40954   1.12167  -2.70290
 105        7PZ        -2.02464  -2.92867   0.77427   0.05064   0.80093
 106        8D 0       -0.03357   0.01284  -0.00584   0.02571  -0.01567
 107        8D+1       -0.00900   0.01543  -0.02718  -0.00987   0.01466
 108        8D-1       -0.00519   0.02185   0.03221  -0.00505   0.00692
 109        8D+2        0.06446  -0.03465  -0.09539   0.02435   0.01140
 110        8D-2        0.10553   0.00130   0.06743   0.04075   0.03480
 111        9D 0       -0.44232   0.53267  -0.16781  -0.13570  -0.25902
 112        9D+1        0.25659   0.17913   0.15486   0.04083  -0.23922
 113        9D-1        0.15255  -0.01399  -0.34267   0.02244  -0.10973
 114        9D+2       -0.21693  -0.23424   1.70194  -0.33898   0.26209
 115        9D-2       -0.32798  -1.33042  -0.59016  -0.62219   0.13757
 116 5   Cl 1S          0.02007  -0.00268   0.00115   0.01172   0.00029
 117        2S          0.27747  -0.03752   0.01636   0.16292   0.00446
 118        3S          0.77399  -0.10363   0.04462   0.45795   0.01156
 119        4S         -0.04123   0.00687  -0.00371  -0.01433  -0.00169
 120        5S         -4.31815   0.55463  -0.22671  -3.01583  -0.07016
 121        6S         -9.72718   1.27210  -0.52627 -13.23994  -0.18156
 122        7PX        -0.00031  -0.00043   0.00062  -0.00037   0.00208
 123        7PY        -0.00003  -0.00047  -0.00064  -0.00001   0.00213
 124        7PZ        -0.00456   0.00057  -0.00022  -0.02274  -0.00039
 125        8PX        -0.00612  -0.01105   0.01383  -0.00754   0.04171
 126        8PY        -0.00076  -0.01180  -0.01413  -0.00020   0.04272
 127        8PZ        -0.06426   0.00793  -0.00284  -0.31750  -0.00468
 128        9PX         0.00121   0.00222  -0.00308   0.00120  -0.00697
 129        9PY         0.00014   0.00237   0.00314   0.00003  -0.00714
 130        9PZ         0.00196  -0.00025   0.00008   0.07964   0.00142
 131       10PX         0.04113   0.03874  -0.04546   0.07677  -0.29684
 132       10PY         0.00467   0.04400   0.04801   0.00282  -0.30450
 133       10PZ         5.85899  -0.76155   0.31412   5.07216   0.08374
 134       11PX         0.16872   0.78604  -0.82062   0.02525   0.17163
 135       11PY         0.05902   0.79939   0.82361   0.00152   0.17481
 136       11PZ         0.78364  -0.10573   0.04281   3.35832   0.04835
 137       12D 0        0.06758  -0.00849   0.00340   0.00176  -0.00017
 138       12D+1       -0.00473  -0.02094   0.02208  -0.00044   0.00255
 139       12D-1       -0.00152  -0.02132  -0.02216   0.00000   0.00259
 140       12D+2        0.00041   0.00517   0.00571   0.00002  -0.00884
 141       12D-2        0.00202   0.00499  -0.00566  -0.00018  -0.00867
 142       13D 0       -0.38474   0.04954  -0.02043  -0.07019  -0.00035
 143       13D+1        0.01750   0.07632  -0.08191   0.00168  -0.01785
 144       13D-1        0.00540   0.07777   0.08221  -0.00003  -0.01819
 145       13D+2       -0.00090  -0.01143  -0.01333  -0.00006   0.03180
 146       13D-2       -0.00550  -0.01088   0.01317   0.00031   0.03118
 147       14D 0       -1.37979   0.18135  -0.07518  -1.23978  -0.01918
 148       14D+1       -0.06981  -0.20603   0.21638  -0.05076   0.22969
 149       14D-1       -0.01627  -0.21298  -0.21879  -0.00151   0.23516
 150       14D+2        0.00291   0.04384   0.04759   0.00000  -0.14502
 151       14D-2        0.00971   0.04276  -0.04725   0.00599  -0.14169
 152       15F 0       -0.04264   0.00574  -0.00250   0.00126   0.00011
 153       15F+1       -0.00273  -0.00285   0.00317  -0.00250   0.01325
 154       15F-1       -0.00029  -0.00317  -0.00330  -0.00006   0.01354
 155       15F+2        0.00044   0.00671   0.00694  -0.00005  -0.00727
 156       15F-2        0.00073   0.00665  -0.00694   0.00052  -0.00706
 157       15F+3        0.00000   0.00009   0.00008   0.00001   0.00019
 158       15F-3       -0.00930   0.00090  -0.00017   0.02292   0.00020
 159       16F 0        0.23115  -0.02999   0.01230   0.08882   0.00059
 160       16F+1        0.00886   0.01019  -0.00957   0.01077  -0.04529
 161       16F-1        0.00109   0.01118   0.00997   0.00029  -0.04633
 162       16F+2       -0.00227  -0.03222  -0.03251   0.00010   0.03022
 163       16F-2       -0.00428  -0.03189   0.03249  -0.00235   0.02943
 164       16F+3       -0.00001  -0.00021  -0.00022  -0.00001  -0.00031
 165       16F-3        0.01934  -0.00191   0.00040  -0.04283  -0.00034
 166 6   F  1S          0.03978  -0.00501   0.00202  -0.02272   0.00037
 167        2S          0.13994  -0.01759   0.00708  -0.08629   0.00172
 168        3S         -0.07134   0.00900  -0.00362   0.03678  -0.00021
 169        4S         -0.37500   0.04916  -0.02112  -0.01897  -0.01164
 170        5S         -0.05481   0.04112  -0.03545  -5.93301  -0.09052
 171        6PX         0.00105   0.00499  -0.00522   0.00012  -0.00120
 172        6PY         0.00038   0.00506   0.00524   0.00001  -0.00123
 173        6PZ         0.00536  -0.00060   0.00019   0.00222   0.00008
 174        7PX        -0.00483  -0.02592   0.02695  -0.00058   0.00438
 175        7PY        -0.00199  -0.02623  -0.02698  -0.00004   0.00447
 176        7PZ        -0.06315   0.00772  -0.00292   0.00270  -0.00016
 177        8PX         0.02774   0.18224  -0.18804   0.00272  -0.00152
 178        8PY         0.01394   0.18369   0.18802   0.00011  -0.00157
 179        8PZ         0.62367  -0.07566   0.02814  -0.24698  -0.00768
 180        9PX         0.09308   0.57884  -0.60016   0.01231   0.16037
 181        9PY         0.04255   0.58498   0.60091  -0.00107   0.16331
 182        9PZ        -0.86111   0.11141  -0.04614  -2.49129  -0.03816
 183       10D 0        0.01120  -0.00158   0.00071  -0.00799   0.00000
 184       10D+1        0.00190   0.01018  -0.01053   0.00054  -0.00159
 185       10D-1        0.00077   0.01032   0.01056   0.00001  -0.00163
 186       10D+2       -0.00028  -0.00352  -0.00345   0.00000  -0.00204
 187       10D-2       -0.00106  -0.00342   0.00342   0.00004  -0.00200
 188       11D 0       -0.04144   0.00590  -0.00271   0.01579  -0.00023
 189       11D+1       -0.00591  -0.03274   0.03386  -0.00155   0.00283
 190       11D-1       -0.00249  -0.03315  -0.03393  -0.00003   0.00292
 191       11D+2        0.00096   0.01194   0.01168   0.00000   0.00723
 192       11D-2        0.00366   0.01159  -0.01157  -0.00032   0.00708
 193       12D 0        0.41170  -0.05531   0.02394  -0.01169   0.00002
 194       12D+1        0.01164   0.09628  -0.09840   0.00265   0.02124
 195       12D-1        0.00751   0.09662   0.09822   0.00013   0.02165
 196       12D+2       -0.00350  -0.04427  -0.04397  -0.00002  -0.01375
 197       12D-2       -0.01281  -0.04307   0.04365   0.00089  -0.01343
 198       13F 0       -0.02706   0.00383  -0.00180  -0.00757  -0.00021
 199       13F+1        0.00294   0.01287  -0.01317   0.00075  -0.00564
 200       13F-1        0.00095   0.01314   0.01326   0.00000  -0.00578
 201       13F+2        0.00047   0.00632   0.00652   0.00002  -0.00198
 202       13F-2        0.00146   0.00621  -0.00651   0.00051  -0.00194
 203       13F+3        0.00003   0.00035   0.00036   0.00000   0.00005
 204       13F-3        0.01264  -0.00162   0.00069  -0.00134  -0.00031
 205       14F 0        0.06729  -0.00970   0.00464   0.01175   0.00032
 206       14F+1       -0.00677  -0.02767   0.02850  -0.00119   0.01244
 207       14F-1       -0.00203  -0.02833  -0.02872   0.00000   0.01274
 208       14F+2       -0.00130  -0.01759  -0.01804  -0.00004   0.00472
 209       14F-2       -0.00383  -0.01730   0.01801  -0.00088   0.00462
 210       14F+3       -0.00004  -0.00047  -0.00049   0.00000  -0.00007
 211       14F-3       -0.01706   0.00217  -0.00091   0.00254   0.00056
                         211
     Eigenvalues --     0.00000
   1 1   C  1S         -0.00914
   2        2S         -0.05372
   3        3S         -0.00728
   4        4S         -0.59748
   5        5S         -0.28224
   6        6PX        -0.00579
   7        6PY         0.00572
   8        6PZ        -0.00002
   9        7PX         1.14207
  10        7PY        -1.12123
  11        7PZ         0.00914
  12        8PX        12.51509
  13        8PY       -12.27052
  14        8PZ         0.00950
  15        9PX         5.66781
  16        9PY        -5.55627
  17        9PZ        -0.02325
  18       10D 0        0.00063
  19       10D+1       -0.00172
  20       10D-1        0.00168
  21       10D+2       -0.01592
  22       10D-2        0.01620
  23       11D 0        0.00983
  24       11D+1       -0.15134
  25       11D-1        0.14852
  26       11D+2       -0.31554
  27       11D-2        0.32280
  28       12D 0       -0.14753
  29       12D+1       -0.92072
  30       12D-1        0.90473
  31       12D+2        0.39549
  32       12D-2       -0.39856
  33       13F 0       -0.00081
  34       13F+1        0.02677
  35       13F-1       -0.02623
  36       13F+2       -0.00631
  37       13F-2        0.00647
  38       13F+3        0.00070
  39       13F-3        0.00080
  40       14F 0        0.00188
  41       14F+1       -0.29315
  42       14F-1        0.28757
  43       14F+2        0.05513
  44       14F-2       -0.05652
  45       14F+3       -0.00336
  46       14F-3       -0.01823
  47 2   H  1S          0.01973
  48        2S         -1.59078
  49        3S        -18.33890
  50        4S         -7.84410
  51        5PX         0.03584
  52        5PY         0.08204
  53        5PZ         0.00740
  54        6PX        -0.35227
  55        6PY        -0.94130
  56        6PZ        -0.11949
  57        7PX        -2.43862
  58        7PY        -5.22217
  59        7PZ        -0.58119
  60        8D 0        0.01275
  61        8D+1        0.00422
  62        8D-1        0.01038
  63        8D+2        0.02959
  64        8D-2        0.02097
  65        9D 0        0.19573
  66        9D+1       -0.06510
  67        9D-1       -0.19439
  68        9D+2        0.18979
  69        9D-2       -0.39541
  70 3   H  1S         -0.02835
  71        2S          2.32761
  72        3S         25.67303
  73        4S         10.92254
  74        5PX        -0.10402
  75        5PY         0.04554
  76        5PZ        -0.01151
  77        6PX         1.22047
  78        6PY        -0.56460
  79        6PZ         0.17753
  80        7PX         6.79423
  81        7PY        -2.93391
  82        7PZ         0.78634
  83        8D 0       -0.02061
  84        8D+1       -0.01258
  85        8D-1        0.00541
  86        8D+2        0.01474
  87        8D-2       -0.04076
  88        9D 0       -0.25506
  89        9D+1        0.24284
  90        9D-1       -0.11342
  91        9D+2        0.26008
  92        9D-2       -0.17488
  93 4   H  1S          0.00723
  94        2S         -0.57685
  95        3S         -6.96252
  96        4S         -2.99164
  97        5PX        -0.00328
  98        5PY        -0.05745
  99        5PZ         0.00260
 100        6PX         0.06412
 101        6PY         0.59022
 102        6PZ        -0.04362
 103        7PX         0.07232
 104        7PY         3.81774
 105        7PZ        -0.23292
 106        8D 0        0.00409
 107        8D+1       -0.00103
 108        8D-1       -0.00654
 109        8D+2       -0.02891
 110        8D-2        0.00421
 111        9D 0        0.07845
 112        9D+1        0.02231
 113        9D-1        0.11238
 114        9D+2        0.42783
 115        9D-2       -0.32556
 116 5   Cl 1S         -0.00025
 117        2S         -0.00399
 118        3S         -0.01030
 119        4S          0.00154
 120        5S          0.06355
 121        6S          0.15967
 122        7PX        -0.00211
 123        7PY         0.00207
 124        7PZ         0.00036
 125        8PX        -0.04170
 126        8PY         0.04100
 127        8PZ         0.00420
 128        9PX         0.00711
 129        9PY        -0.00699
 130        9PZ        -0.00133
 131       10PX         0.29681
 132       10PY        -0.29231
 133       10PZ        -0.07387
 134       11PX        -0.18135
 135       11PY         0.17738
 136       11PZ        -0.04322
 137       12D 0        0.00019
 138       12D+1       -0.00256
 139       12D-1        0.00250
 140       12D+2       -0.00835
 141       12D-2        0.00855
 142       13D 0        0.00018
 143       13D+1        0.01799
 144       13D-1       -0.01760
 145       13D+2        0.03023
 146       13D-2       -0.03092
 147       14D 0        0.01643
 148       14D+1       -0.22684
 149       14D-1        0.22295
 150       14D+2       -0.14029
 151       14D-2        0.14299
 152       15F 0       -0.00015
 153       15F+1       -0.01275
 154       15F-1        0.01252
 155       15F+2       -0.00739
 156       15F-2        0.00750
 157       15F+3        0.00017
 158       15F-3       -0.00018
 159       16F 0       -0.00031
 160       16F+1        0.04317
 161       16F-1       -0.04240
 162       16F+2        0.02979
 163       16F-2       -0.03027
 164       16F+3       -0.00026
 165       16F-3        0.00029
 166 6   F  1S         -0.00038
 167        2S         -0.00175
 168        3S          0.00023
 169        4S          0.01114
 170        5S          0.08209
 171        6PX         0.00120
 172        6PY        -0.00118
 173        6PZ        -0.00008
 174        7PX        -0.00428
 175        7PY         0.00420
 176        7PZ         0.00014
 177        8PX         0.00010
 178        8PY        -0.00011
 179        8PZ         0.00748
 180        9PX        -0.16609
 181        9PY         0.16247
 182        9PZ         0.03482
 183       10D 0        0.00000
 184       10D+1        0.00149
 185       10D-1       -0.00147
 186       10D+2       -0.00198
 187       10D-2        0.00202
 188       11D 0        0.00022
 189       11D+1       -0.00246
 190       11D-1        0.00244
 191       11D+2        0.00701
 192       11D-2       -0.00715
 193       12D 0        0.00016
 194       12D+1       -0.02372
 195       12D-1        0.02322
 196       12D+2       -0.01322
 197       12D-2        0.01346
 198       13F 0        0.00021
 199       13F+1        0.00573
 200       13F-1       -0.00563
 201       13F+2       -0.00178
 202       13F-2        0.00182
 203       13F+3        0.00005
 204       13F-3        0.00030
 205       14F 0       -0.00030
 206       14F+1       -0.01276
 207       14F-1        0.01254
 208       14F+2        0.00437
 209       14F-2       -0.00446
 210       14F+3       -0.00007
 211       14F-3       -0.00054
          Condensed to atoms (all electrons):
              1          2          3          4          5          6
     1  C    7.011371  -0.009220  -0.014893  -0.003235  -0.050811  -0.099797
     2  H   -0.009220   0.547020   0.019987   0.020123  -0.018744   0.004340
     3  H   -0.014893   0.019987   0.546930   0.020116  -0.018779   0.005161
     4  H   -0.003235   0.020123   0.020116   0.547217  -0.018763   0.003456
     5  Cl  -0.050811  -0.018744  -0.018779  -0.018763  17.709187   0.026397
     6  F   -0.099797   0.004340   0.005161   0.003456   0.026397   9.907602
 Mulliken atomic charges:
              1
     1  C   -0.833415
     2  H    0.436495
     3  H    0.441479
     4  H    0.431086
     5  Cl  -0.628486
     6  F   -0.847158
 Sum of Mulliken atomic charges =  -1.00000
 Mulliken charges with hydrogens summed into heavy atoms:
              1
     1  C    0.475644
     5  Cl  -0.628486
     6  F   -0.847158
 Sum of Mulliken charges with hydrogens summed into heavy atoms =  -1.00000
 Electronic spatial extent (au):  <R**2>=            490.3167
 Charge=             -1.0000 electrons
 Dipole moment (field-independent basis, Debye):
    X=             -0.0063    Y=              0.0006    Z=              4.0662  Tot=              4.0662
 Quadrupole moment (field-independent basis, Debye-Ang):
   XX=            -28.1814   YY=            -28.1815   ZZ=            -62.8204
   XY=             -0.0156   XZ=              0.0088   YZ=             -0.0144
 Traceless Quadrupole moment (field-independent basis, Debye-Ang):
   XX=             11.5464   YY=             11.5462   ZZ=            -23.0926
   XY=             -0.0156   XZ=              0.0088   YZ=             -0.0144
 Octapole moment (field-independent basis, Debye-Ang**2):
  XXX=              0.1105  YYY=             -0.9748  ZZZ=             49.6881  XYY=              0.0364
  XXY=              0.9406  XXZ=             -4.2361  XZZ=              0.0801  YZZ=              0.0111
  YYZ=             -4.2354  XYZ=              0.0076
 Hexadecapole moment (field-independent basis, Debye-Ang**3):
 XXXX=            -41.2718 YYYY=            -41.2691 ZZZZ=           -761.6439 XXXY=             -0.0245
 XXXZ=             -0.0956 YYYX=             -0.0460 YYYZ=              0.5144 ZZZX=             -0.0624
 ZZZY=             -0.1891 XXYY=            -13.7570 XXZZ=           -103.3857 YYZZ=           -103.3868
 XXYZ=             -0.6772 YYXZ=             -0.0315 ZZXY=             -0.0145
 N-N= 8.498403436898D+01 E-N=-1.604179952226D+03  KE= 5.991956557370D+02
 1\1\GINC-TRAPISTA\SP\RQCISD-FC\Aug-CC-pVTZ\C1H3Cl1F1(1-)\BRUNS\23-Aug-
 2020\0\\# QCISD aug-cc-pvtz nosymm density=current output=wfn\\clch3f_
 ts-wavefunction\\-1,1\C,0,-0.009825,0.000029,-0.497709\H,0,0.000019,-1
 .05257,-0.620726\H,0,-0.911312,0.526365,-0.621245\H,0,0.91175,0.526132
 ,-0.62157\Cl,0,0.000555,0.000962,1.644718\F,0,-0.000186,-0.000921,-2.5
 93468\\Version=EM64L-G09RevB.01\HF=-598.616988\MP2=-599.291137\MP3=-59
 9.3098379\MP4D=-599.3247291\MP4DQ=-599.3102895\MP4SDQ=-599.3196564\QCI
 SD=-599.3190387\RMSD=9.417e-09\Dipole=-0.0052338,0.0006775,1.5873113\Q
 uadrupole=8.5844603,8.5843288,-17.1687891,-0.0115828,0.0065191,-0.0106
 807\PG=C01 [X(C1H3Cl1F1)]\\@

 Writing a WFN file to GAUSSIAN.wfn.


 HE THAT IS UNAWARE OF HIS IGNORANCE WILL BE MISLED BY HIS KNOWLEDGE.

                                        -- WHATLEY
 Job cpu time:  0 days  3 hours 32 minutes 18.6 seconds.
 File lengths (MBytes):  RWF=  29002 Int=      0 D2E=      0 Chk=      4 Scr=      1
 Normal termination of Gaussian 09 at Sun Aug 23 19:22:03 2020.
