 clch3f_ts-wavefunction
GAUSSIAN            211 MOL ORBITALS    339 PRIMITIVES        6 NUCLEI
  C    1    (CENTRE  1)   0.00033070  0.00005480 -0.94053370  CHARGE =  6.0
  H    2    (CENTRE  2)   0.00003590 -1.98906904 -1.17300214  CHARGE =  1.0
  H    3    (CENTRE  3)  -1.72213010  0.99468570 -1.17398291  CHARGE =  1.0
  H    4    (CENTRE  4)   1.72295780  0.99424539 -1.17459707  CHARGE =  1.0
  Cl   5    (CENTRE  5)   0.01994606  0.00181792  3.10806659  CHARGE = 17.0
  F    6    (CENTRE  6)  -0.00035149 -0.00174044 -4.90094425  CHARGE =  9.0
CENTRE ASSIGNMENTS    1  1  1  1  1  1  1  1  1  1  1  1  1  1  1  1  1  1  1  1
CENTRE ASSIGNMENTS    1  1  1  1  1  1  1  1  1  1  1  1  1  1  1  1  1  1  1  1
CENTRE ASSIGNMENTS    1  1  1  1  1  1  1  1  1  1  1  1  1  1  1  1  1  1  1  1
CENTRE ASSIGNMENTS    1  1  1  1  1  1  1  1  1  1  1  1  2  2  2  2  2  2  2  2
CENTRE ASSIGNMENTS    2  2  2  2  2  2  2  2  2  2  2  2  2  2  2  2  2  2  2  3
CENTRE ASSIGNMENTS    3  3  3  3  3  3  3  3  3  3  3  3  3  3  3  3  3  3  3  3
CENTRE ASSIGNMENTS    3  3  3  3  3  3  4  4  4  4  4  4  4  4  4  4  4  4  4  4
CENTRE ASSIGNMENTS    4  4  4  4  4  4  4  4  4  4  4  4  4  5  5  5  5  5  5  5
CENTRE ASSIGNMENTS    5  5  5  5  5  5  5  5  5  5  5  5  5  5  5  5  5  5  5  5
CENTRE ASSIGNMENTS    5  5  5  5  5  5  5  5  5  5  5  5  5  5  5  5  5  5  5  5
CENTRE ASSIGNMENTS    5  5  5  5  5  5  5  5  5  5  5  5  5  5  5  5  5  5  5  5
CENTRE ASSIGNMENTS    5  5  5  5  5  5  5  5  5  5  5  5  5  5  5  5  5  5  5  5
CENTRE ASSIGNMENTS    5  5  5  5  5  5  5  5  5  5  5  5  5  5  5  5  5  5  5  5
CENTRE ASSIGNMENTS    5  5  5  5  5  5  5  6  6  6  6  6  6  6  6  6  6  6  6  6
CENTRE ASSIGNMENTS    6  6  6  6  6  6  6  6  6  6  6  6  6  6  6  6  6  6  6  6
CENTRE ASSIGNMENTS    6  6  6  6  6  6  6  6  6  6  6  6  6  6  6  6  6  6  6  6
CENTRE ASSIGNMENTS    6  6  6  6  6  6  6  6  6  6  6  6  6  6  6  6  6  6  6
TYPE ASSIGNMENTS      1  1  1  1  1  1  1  1  1  1  1  1  1  1  1  1  2  2  2  3
TYPE ASSIGNMENTS      3  3  4  4  4  2  3  4  2  3  4  2  3  4  5  6  7  8  9 10
TYPE ASSIGNMENTS      5  6  7  8  9 10  5  6  7  8  9 10 11 12 13 17 14 15 18 19
TYPE ASSIGNMENTS     16 20 11 12 13 17 14 15 18 19 16 20  1  1  1  1  1  1  2  3
TYPE ASSIGNMENTS      4  2  3  4  2  3  4  5  6  7  8  9 10  5  6  7  8  9 10  1
TYPE ASSIGNMENTS      1  1  1  1  1  2  3  4  2  3  4  2  3  4  5  6  7  8  9 10
TYPE ASSIGNMENTS      5  6  7  8  9 10  1  1  1  1  1  1  2  3  4  2  3  4  2  3
TYPE ASSIGNMENTS      4  5  6  7  8  9 10  5  6  7  8  9 10  1  1  1  1  1  1  1
TYPE ASSIGNMENTS      1  1  1  1  1  1  1  1  1  1  1  1  1  1  1  1  1  1  1  1
TYPE ASSIGNMENTS      1  1  1  1  2  2  2  2  2  2  3  3  3  3  3  3  4  4  4  4
TYPE ASSIGNMENTS      4  4  2  2  2  2  2  2  3  3  3  3  3  3  4  4  4  4  4  4
TYPE ASSIGNMENTS      2  3  4  2  3  4  2  3  4  5  6  7  8  9 10  5  6  7  8  9
TYPE ASSIGNMENTS     10  5  6  7  8  9 10 11 12 13 17 14 15 18 19 16 20 11 12 13
TYPE ASSIGNMENTS     17 14 15 18 19 16 20  1  1  1  1  1  1  1  1  1  1  1  1  1
TYPE ASSIGNMENTS      1  1  1  2  2  2  3  3  3  4  4  4  2  3  4  2  3  4  2  3
TYPE ASSIGNMENTS      4  5  6  7  8  9 10  5  6  7  8  9 10  5  6  7  8  9 10 11
TYPE ASSIGNMENTS     12 13 17 14 15 18 19 16 20 11 12 13 17 14 15 18 19 16 20
EXPONENTS  0.8236000D+04 0.1235000D+04 0.2808000D+03 0.7927000D+02 0.2559000D+02
EXPONENTS  0.8997000D+01 0.3319000D+01 0.2808000D+03 0.7927000D+02 0.2559000D+02
EXPONENTS  0.8997000D+01 0.3319000D+01 0.3643000D+00 0.9059000D+00 0.1285000D+00
EXPONENTS  0.4402000D-01 0.1871000D+02 0.4133000D+01 0.1200000D+01 0.1871000D+02
EXPONENTS  0.4133000D+01 0.1200000D+01 0.1871000D+02 0.4133000D+01 0.1200000D+01
EXPONENTS  0.3827000D+00 0.3827000D+00 0.3827000D+00 0.1209000D+00 0.1209000D+00
EXPONENTS  0.1209000D+00 0.3569000D-01 0.3569000D-01 0.3569000D-01 0.1097000D+01
EXPONENTS  0.1097000D+01 0.1097000D+01 0.1097000D+01 0.1097000D+01 0.1097000D+01
EXPONENTS  0.3180000D+00 0.3180000D+00 0.3180000D+00 0.3180000D+00 0.3180000D+00
EXPONENTS  0.3180000D+00 0.1000000D+00 0.1000000D+00 0.1000000D+00 0.1000000D+00
EXPONENTS  0.1000000D+00 0.1000000D+00 0.7610000D+00 0.7610000D+00 0.7610000D+00
EXPONENTS  0.7610000D+00 0.7610000D+00 0.7610000D+00 0.7610000D+00 0.7610000D+00
EXPONENTS  0.7610000D+00 0.7610000D+00 0.2680000D+00 0.2680000D+00 0.2680000D+00
EXPONENTS  0.2680000D+00 0.2680000D+00 0.2680000D+00 0.2680000D+00 0.2680000D+00
EXPONENTS  0.2680000D+00 0.2680000D+00 0.3387000D+02 0.5095000D+01 0.1159000D+01
EXPONENTS  0.3258000D+00 0.1027000D+00 0.2526000D-01 0.1407000D+01 0.1407000D+01
EXPONENTS  0.1407000D+01 0.3880000D+00 0.3880000D+00 0.3880000D+00 0.1020000D+00
EXPONENTS  0.1020000D+00 0.1020000D+00 0.1057000D+01 0.1057000D+01 0.1057000D+01
EXPONENTS  0.1057000D+01 0.1057000D+01 0.1057000D+01 0.2470000D+00 0.2470000D+00
EXPONENTS  0.2470000D+00 0.2470000D+00 0.2470000D+00 0.2470000D+00 0.3387000D+02
EXPONENTS  0.5095000D+01 0.1159000D+01 0.3258000D+00 0.1027000D+00 0.2526000D-01
EXPONENTS  0.1407000D+01 0.1407000D+01 0.1407000D+01 0.3880000D+00 0.3880000D+00
EXPONENTS  0.3880000D+00 0.1020000D+00 0.1020000D+00 0.1020000D+00 0.1057000D+01
EXPONENTS  0.1057000D+01 0.1057000D+01 0.1057000D+01 0.1057000D+01 0.1057000D+01
EXPONENTS  0.2470000D+00 0.2470000D+00 0.2470000D+00 0.2470000D+00 0.2470000D+00
EXPONENTS  0.2470000D+00 0.3387000D+02 0.5095000D+01 0.1159000D+01 0.3258000D+00
EXPONENTS  0.1027000D+00 0.2526000D-01 0.1407000D+01 0.1407000D+01 0.1407000D+01
EXPONENTS  0.3880000D+00 0.3880000D+00 0.3880000D+00 0.1020000D+00 0.1020000D+00
EXPONENTS  0.1020000D+00 0.1057000D+01 0.1057000D+01 0.1057000D+01 0.1057000D+01
EXPONENTS  0.1057000D+01 0.1057000D+01 0.2470000D+00 0.2470000D+00 0.2470000D+00
EXPONENTS  0.2470000D+00 0.2470000D+00 0.2470000D+00 0.4561000D+06 0.6833000D+05
EXPONENTS  0.1555000D+05 0.4405000D+04 0.1439000D+04 0.5204000D+03 0.2031000D+03
EXPONENTS  0.8396000D+02 0.3620000D+02 0.1583000D+02 0.6334000D+01 0.4405000D+04
EXPONENTS  0.1439000D+04 0.5204000D+03 0.2031000D+03 0.8396000D+02 0.3620000D+02
EXPONENTS  0.1583000D+02 0.6334000D+01 0.2694000D+01 0.1439000D+04 0.2031000D+03
EXPONENTS  0.8396000D+02 0.3620000D+02 0.1583000D+02 0.6334000D+01 0.2694000D+01
EXPONENTS  0.4313000D+00 0.9768000D+00 0.1625000D+00 0.5910000D-01 0.6633000D+03
EXPONENTS  0.1568000D+03 0.4998000D+02 0.1842000D+02 0.7240000D+01 0.2922000D+01
EXPONENTS  0.6633000D+03 0.1568000D+03 0.4998000D+02 0.1842000D+02 0.7240000D+01
EXPONENTS  0.2922000D+01 0.6633000D+03 0.1568000D+03 0.4998000D+02 0.1842000D+02
EXPONENTS  0.7240000D+01 0.2922000D+01 0.1568000D+03 0.4998000D+02 0.1842000D+02
EXPONENTS  0.7240000D+01 0.2922000D+01 0.3818000D+00 0.1568000D+03 0.4998000D+02
EXPONENTS  0.1842000D+02 0.7240000D+01 0.2922000D+01 0.3818000D+00 0.1568000D+03
EXPONENTS  0.4998000D+02 0.1842000D+02 0.7240000D+01 0.2922000D+01 0.3818000D+00
EXPONENTS  0.1022000D+01 0.1022000D+01 0.1022000D+01 0.1301000D+00 0.1301000D+00
EXPONENTS  0.1301000D+00 0.4190000D-01 0.4190000D-01 0.4190000D-01 0.1046000D+01
EXPONENTS  0.1046000D+01 0.1046000D+01 0.1046000D+01 0.1046000D+01 0.1046000D+01
EXPONENTS  0.3440000D+00 0.3440000D+00 0.3440000D+00 0.3440000D+00 0.3440000D+00
EXPONENTS  0.3440000D+00 0.1350000D+00 0.1350000D+00 0.1350000D+00 0.1350000D+00
EXPONENTS  0.1350000D+00 0.1350000D+00 0.7060000D+00 0.7060000D+00 0.7060000D+00
EXPONENTS  0.7060000D+00 0.7060000D+00 0.7060000D+00 0.7060000D+00 0.7060000D+00
EXPONENTS  0.7060000D+00 0.7060000D+00 0.3120000D+00 0.3120000D+00 0.3120000D+00
EXPONENTS  0.3120000D+00 0.3120000D+00 0.3120000D+00 0.3120000D+00 0.3120000D+00
EXPONENTS  0.3120000D+00 0.3120000D+00 0.1950000D+05 0.2923000D+04 0.6645000D+03
EXPONENTS  0.1875000D+03 0.6062000D+02 0.2142000D+02 0.7950000D+01 0.6645000D+03
EXPONENTS  0.1875000D+03 0.6062000D+02 0.2142000D+02 0.7950000D+01 0.8815000D+00
EXPONENTS  0.2257000D+01 0.3041000D+00 0.9158000D-01 0.4388000D+02 0.9926000D+01
EXPONENTS  0.2930000D+01 0.4388000D+02 0.9926000D+01 0.2930000D+01 0.4388000D+02
EXPONENTS  0.9926000D+01 0.2930000D+01 0.9132000D+00 0.9132000D+00 0.9132000D+00
EXPONENTS  0.2672000D+00 0.2672000D+00 0.2672000D+00 0.7361000D-01 0.7361000D-01
EXPONENTS  0.7361000D-01 0.3107000D+01 0.3107000D+01 0.3107000D+01 0.3107000D+01
EXPONENTS  0.3107000D+01 0.3107000D+01 0.8550000D+00 0.8550000D+00 0.8550000D+00
EXPONENTS  0.8550000D+00 0.8550000D+00 0.8550000D+00 0.2920000D+00 0.2920000D+00
EXPONENTS  0.2920000D+00 0.2920000D+00 0.2920000D+00 0.2920000D+00 0.1917000D+01
EXPONENTS  0.1917000D+01 0.1917000D+01 0.1917000D+01 0.1917000D+01 0.1917000D+01
EXPONENTS  0.1917000D+01 0.1917000D+01 0.1917000D+01 0.1917000D+01 0.7240000D+00
EXPONENTS  0.7240000D+00 0.7240000D+00 0.7240000D+00 0.7240000D+00 0.7240000D+00
EXPONENTS  0.7240000D+00 0.7240000D+00 0.7240000D+00 0.7240000D+00
MO    1     MO 0.0        OCC NO =    2.0000300  ORB. ENERGY =    0.000000
 -0.31893371D-04 -0.59455669D-04 -0.10048818D-03 -0.15105248D-03 -0.18554092D-03
 -0.15658999D-03 -0.58881924D-04  0.14467932D-07  0.10813883D-06  0.40413948D-06
  0.11274862D-05  0.15105207D-05 -0.17836433D-05 -0.55581767D-05  0.20292824D-04
  0.20130944D-05  0.79737636D-04  0.74759102D-04  0.53232935D-04  0.79194323D-04
  0.74249712D-04  0.52870218D-04 -0.55737101D-05 -0.52257075D-05 -0.37210150D-05
  0.25671468D-03  0.25499067D-03 -0.11522838D-05  0.32845387D-03  0.32619008D-03
  0.59875416D-06  0.65902851D-05  0.65439253D-05 -0.31681987D-07  0.43553900D-04
 -0.44536555D-04  0.98265435D-06  0.88334517D-04 -0.36204762D-03 -0.35948945D-03
  0.13784928D-03 -0.13590705D-03 -0.19422277D-05  0.27547177D-03  0.70600562D-04
  0.70380462D-04  0.28600628D-04 -0.29186933D-04  0.58630548D-06  0.58101476D-04
 -0.46646891D-04 -0.46272794D-04  0.65705406D-04  0.64989137D-04  0.10668109D-05
  0.65706402D-04  0.66032157D-04  0.15150255D-04 -0.26282262D-03 -0.26099957D-03
 -0.18350688D-04  0.33153161D-04 -0.18935194D-04 -0.19665707D-04 -0.31615667D-06
 -0.18876831D-04 -0.16219710D-04  0.37104719D-04  0.75682413D-04  0.75216832D-04
 -0.36156249D-04  0.73836812D-04 -0.28126092D-04 -0.50726565D-04 -0.74796290D-04
  0.24861584D-03  0.78976393D-03 -0.87465399D-05  0.34900783D-05  0.49689542D-04
  0.16509672D-04  0.59463324D-04  0.20072616D-03  0.19181235D-03  0.53665253D-04
  0.12110648D-03  0.15608517D-04 -0.76965897D-04  0.29582700D-04  0.47383196D-04
  0.22289352D-04 -0.31881523D-04  0.21079098D-03 -0.30300141D-04 -0.82645263D-05
  0.38564667D-04  0.20629397D-04  0.44239503D-04  0.21967982D-04 -0.10530512D-04
 -0.18992212D-04 -0.28004005D-04  0.86563333D-04  0.29220264D-03 -0.33053798D-05
  0.17836184D-04 -0.48402592D-05  0.58482925D-05  0.10428195D-03  0.33261186D-04
  0.70175504D-04  0.75284956D-04  0.40768402D-04  0.54253837D-05  0.14468907D-04
 -0.31554329D-04  0.17085422D-04 -0.19040813D-04  0.46275571D-04 -0.76724955D-04
  0.71680233D-05 -0.21157344D-04  0.13989320D-04  0.69466153D-05  0.37138809D-04
  0.48020492D-04  0.38313199D-04  0.69099432D-04  0.10188707D-03 -0.36312237D-03
 -0.10887100D-02  0.11786115D-04  0.60352715D-04  0.36277296D-04 -0.23919089D-04
  0.23063188D-03  0.15771778D-03 -0.26739315D-03  0.13491808D-03  0.10019742D-03
 -0.22927177D-04  0.55956491D-06  0.66878139D-04 -0.67437704D-04 -0.13064887D-03
  0.25572604D-03  0.13419035D-03  0.22711481D-04  0.31454651D-04 -0.54166132D-04
 -0.29955991D-04  0.18041834D-04  0.28772629D-04 -0.29602540D-04 -0.55383194D-04
 -0.95689875D-04 -0.15512453D-03 -0.23557149D-03 -0.32742220D-03 -0.38927991D-03
 -0.34678407D-03 -0.17222030D-03 -0.27726012D-04 -0.29252580D-06 -0.14084857D-06
 -0.46984725D-05 -0.16373236D-04 -0.58962674D-04 -0.12997588D-03 -0.18296408D-03
  0.87279832D-05  0.23944028D-03  0.14157954D-03 -0.46884730D-09 -0.56788857D-08
 -0.11842717D-07 -0.33962852D-07 -0.17636436D-08  0.14646429D-06  0.37843559D-06
 -0.30833151D-06  0.89967194D-05 -0.44619575D-05 -0.19024187D-06  0.82381024D+01
  0.10851508D+02  0.11970912D+02  0.99427797D+01  0.52798919D+01  0.13622397D+01
  0.81816437D+01  0.10777139D+02  0.11888871D+02  0.98746382D+01  0.52437069D+01
  0.13529038D+01 -0.61579239D-01 -0.81114263D-01 -0.89481730D-01 -0.74321583D-01
 -0.39466823D-01 -0.10182647D-01 -0.32606267D-03  0.31521641D-02  0.44448805D-02
  0.63573549D-02 -0.32192750D-04 -0.58302940D-02 -0.32382817D-03  0.31305624D-02
  0.44144198D-02  0.63137881D-02 -0.31972134D-04 -0.57903392D-02  0.25423758D-05
 -0.24578053D-04 -0.34657621D-04 -0.49569566D-04  0.25101330D-06  0.45459967D-04
  0.54386403D-01  0.54013682D-01 -0.40976763D-03 -0.45674877D-03 -0.45363215D-03
  0.44788884D-05 -0.41130060D-04 -0.40848215D-04  0.28684015D-06  0.36635126D-05
 -0.97350888D-05  0.60715762D-05  0.12929582D-04 -0.69638047D-03 -0.69164081D-03
 -0.13673253D-05  0.37355730D-05 -0.23682477D-05 -0.49290548D-05  0.25287469D-03
  0.25115371D-03  0.71928355D-06 -0.90635568D-06  0.18707213D-06  0.16002582D-05
 -0.43349912D-04 -0.43048034D-04  0.18020210D-05  0.18532807D-05 -0.59584632D-07
  0.18523627D-05  0.16042855D-05  0.25024397D-04 -0.72584257D-05 -0.71641277D-05
 -0.24845643D-04  0.50159104D-04  0.10407918D-04  0.10295287D-04  0.35258496D-06
  0.10334454D-04  0.10402778D-04 -0.58295143D-05 -0.41558208D-04 -0.41288638D-04
  0.47717595D-05 -0.10751112D-04  0.56329702D-05  0.10499866D-04  0.17799612D-04
  0.26951020D-04  0.33694711D-04  0.28983494D-04  0.11115794D-04 -0.52004949D-08
 -0.68844815D-07 -0.25005689D-06 -0.74178907D-06 -0.85476207D-06  0.10382359D-05
  0.26516165D-06 -0.18020295D-05 -0.32593903D-05 -0.20638899D-03 -0.20184393D-03
 -0.13336682D-03 -0.20497633D-03 -0.20046238D-03 -0.13245397D-03 -0.12431192D-04
 -0.12157434D-04 -0.80329308D-05 -0.65794454D-05 -0.65542854D-05 -0.92443811D-06
 -0.46956082D-04 -0.46620765D-04 -0.27809118D-05 -0.13890399D-04 -0.13795498D-04
 -0.44351442D-06  0.49091218D-04 -0.49928693D-04  0.83747533D-06  0.99542610D-04
 -0.94143430D-04 -0.93409118D-04 -0.24731311D-04  0.25023686D-04 -0.29237500D-06
 -0.49993302D-04  0.72232924D-04  0.71688061D-04  0.12776992D-04 -0.12559473D-04
 -0.21751860D-06  0.25441384D-04 -0.52199783D-04 -0.51806591D-04 -0.50130031D-04
 -0.49631742D-04 -0.39760475D-06 -0.50223989D-04 -0.50034409D-04 -0.13315451D-03
  0.20061408D-03  0.19892963D-03  0.13434732D-03 -0.26862468D-03  0.17799140D-04
  0.17625048D-04  0.71494155D-07  0.17828302D-04  0.17761212D-04  0.42386461D-04
 -0.71225722D-04 -0.70636357D-04 -0.42600944D-04  0.85325838D-04
MO    2     MO 0.0        OCC NO =    2.0000300  ORB. ENERGY =    0.000000
  0.31533058D-04  0.58783973D-04  0.99352924D-04  0.14934597D-03  0.18344478D-03
  0.15482092D-03  0.58216710D-04 -0.14360390D-07 -0.10733502D-06 -0.40113546D-06
 -0.11191055D-05 -0.14992928D-05  0.17703852D-05  0.55199587D-05 -0.20240956D-04
 -0.20177589D-05 -0.77330882D-04 -0.72502617D-04 -0.51626182D-04  0.77875926D-04
  0.73013630D-04  0.51990054D-04  0.54884565D-05  0.51457769D-05  0.36640997D-05
 -0.25669364D-03  0.25851290D-03  0.88007668D-06 -0.32718873D-03  0.32944743D-03
 -0.84659002D-06 -0.66150263D-05  0.66597831D-05  0.25925696D-07  0.47451143D-04
 -0.46794655D-04 -0.65648781D-06 -0.93373515D-04  0.35887751D-03 -0.36128952D-03
  0.13666043D-03 -0.13855114D-03  0.18907114D-05 -0.27355608D-03 -0.67487144D-04
  0.68226352D-04  0.29523808D-04 -0.28977743D-04 -0.54606500D-06 -0.58101691D-04
  0.46962285D-04 -0.47234853D-04 -0.65446215D-04  0.66156690D-04 -0.83818061D-06
 -0.65452709D-04  0.65119054D-04  0.20027518D-04  0.26179135D-03 -0.26358912D-03
 -0.17512976D-04 -0.36757414D-04  0.18963618D-04 -0.18272743D-04  0.25775703D-06
  0.18992509D-04 -0.21643205D-04  0.34190643D-04 -0.75883364D-04  0.76461435D-04
 -0.34963914D-04 -0.68852885D-04 -0.28573308D-04 -0.51533138D-04 -0.75985582D-04
  0.27106209D-03  0.80139205D-03 -0.83922164D-05 -0.29165048D-05  0.51826924D-04
  0.17567769D-04 -0.58577846D-04  0.20735083D-03  0.19117736D-03 -0.53110437D-04
  0.12286529D-03  0.15803304D-04 -0.79055948D-04  0.30759305D-04  0.48296643D-04
 -0.20849572D-04  0.34412296D-04  0.21023930D-03 -0.31222361D-04 -0.87053995D-05
  0.39927760D-04 -0.20388501D-04 -0.42389653D-04  0.22192090D-04  0.39131706D-04
  0.70575644D-04  0.10406375D-03 -0.34674998D-03 -0.10848071D-02  0.11623404D-04
 -0.58534992D-04  0.35046179D-04 -0.22802431D-04 -0.23025170D-03  0.15808608D-03
 -0.25602789D-03 -0.13412962D-03  0.10026215D-03 -0.20213287D-04 -0.20379924D-05
  0.65689423D-04 -0.63651431D-04  0.13275124D-03 -0.25443051D-03  0.13207519D-03
  0.22194679D-04  0.30901415D-04 -0.53096094D-04  0.30213651D-04 -0.18242398D-04
  0.28653468D-04 -0.10224908D-04 -0.18441043D-04 -0.27191308D-04  0.10359030D-03
  0.29015214D-03 -0.29645640D-05 -0.18706822D-04 -0.61495336D-05  0.66740947D-05
 -0.10557851D-03  0.31746225D-04  0.69963505D-04 -0.74968466D-04  0.40915996D-04
  0.60657646D-05  0.13282728D-04 -0.31352112D-04  0.18069383D-04  0.19975868D-04
 -0.41863770D-04 -0.78623268D-04  0.67797273D-05 -0.21481610D-04  0.14701883D-04
 -0.69670472D-05 -0.36011953D-04  0.46496107D-04  0.29542388D-04  0.55270655D-04
  0.95495433D-04  0.15480932D-03  0.23509280D-03  0.32675688D-03  0.38848889D-03
  0.34607940D-03  0.17187035D-03  0.27669672D-04  0.29193138D-06  0.14055052D-06
  0.46885300D-05  0.16338588D-04  0.58837902D-04  0.12970083D-03  0.18257691D-03
 -0.87095138D-05 -0.23893360D-03 -0.14127994D-03  0.48382934D-09  0.58603549D-08
  0.12221152D-07  0.35048137D-07  0.18200009D-08 -0.15114456D-06 -0.39052853D-06
  0.31818426D-06 -0.89675069D-05  0.44149034D-05  0.19072057D-06 -0.81814576D+01
 -0.10776894D+02 -0.11888601D+02 -0.98744137D+01 -0.52435877D+01 -0.13528730D+01
  0.82383225D+01  0.10851798D+02  0.11971232D+02  0.99430454D+01  0.52800330D+01
  0.13622761D+01  0.54051299D-01  0.71198206D-01  0.78542766D-01  0.65235917D-01
  0.34642082D-01  0.89378383D-02  0.32377979D-03 -0.31300946D-02 -0.44137602D-02
 -0.63128447D-02  0.31967357D-04  0.57894740D-02 -0.32603042D-03  0.31518523D-02
  0.44444407D-02  0.63567260D-02 -0.32189565D-04 -0.58297172D-02 -0.22421002D-05
  0.21675182D-04  0.30564270D-04  0.43714991D-04 -0.22136656D-06 -0.40090770D-04
 -0.54013794D-01  0.54389227D-01  0.36003270D-03  0.45331787D-03 -0.45648326D-03
 -0.40431980D-05  0.40835080D-04 -0.41118922D-04 -0.24968120D-06  0.13830982D-04
 -0.84128020D-05 -0.54181804D-05 -0.21560565D-04  0.69077878D-03 -0.69561617D-03
 -0.47654434D-05  0.26431749D-05  0.21222685D-05  0.71595263D-05 -0.25097489D-03
  0.25273359D-03  0.10630629D-05 -0.91331454D-06 -0.14974837D-06 -0.19291118D-05
  0.43022525D-04 -0.43316626D-04 -0.15340117D-05  0.14562908D-05  0.72513488D-07
 -0.15215581D-05  0.17528025D-05  0.24426608D-04  0.61235931D-05 -0.61216750D-05
 -0.24644148D-04 -0.48755438D-04 -0.10340670D-04  0.10463323D-04 -0.31288258D-06
 -0.10408958D-04  0.10344748D-04 -0.42828839D-05  0.41430968D-04 -0.41734716D-04
  0.52215316D-05  0.95308257D-05 -0.56161785D-05 -0.10468566D-04 -0.17746552D-04
 -0.26870680D-04 -0.33594268D-04 -0.28897095D-04 -0.11082658D-04  0.52917706D-08
  0.70053134D-07  0.25444573D-06  0.75480846D-06  0.86976430D-06 -0.10564583D-05
 -0.26248577D-06  0.18326909D-05  0.32669777D-05  0.20526513D-03  0.20074481D-03
  0.13264059D-03 -0.20668090D-03 -0.20212941D-03 -0.13355545D-03  0.12525311D-04
  0.12249481D-04  0.80937498D-05  0.55408048D-05 -0.55985965D-05  0.91052280D-06
  0.47489621D-04 -0.47803227D-04  0.28410996D-05  0.13765330D-04 -0.13860799D-04
  0.45618494D-06  0.51114238D-04 -0.50350768D-04 -0.76347007D-06 -0.10075870D-03
  0.92946527D-04 -0.93502409D-04 -0.25534278D-04  0.25301200D-04  0.23307798D-06
  0.50457021D-04 -0.71752928D-04  0.72200876D-04  0.12663103D-04 -0.12932467D-04
  0.26936387D-06 -0.25387624D-04  0.52583234D-04 -0.52911910D-04  0.50942670D-04
 -0.51305970D-04  0.20797866D-06  0.51107864D-04 -0.51127397D-04 -0.13317542D-03
 -0.20393587D-03  0.20504531D-03  0.13255148D-03  0.26356990D-03 -0.18099058D-04
  0.18229191D-04 -0.28697447D-08 -0.18152002D-04  0.18164169D-04  0.42153568D-04
  0.72449176D-04 -0.72851742D-04 -0.42144959D-04 -0.83595296D-04
MO    3     MO 0.0        OCC NO =    2.0000210  ORB. ENERGY =    0.000000
 -0.14453536D-01 -0.26944303D-01 -0.45539543D-01 -0.68454427D-01 -0.84084002D-01
 -0.70963932D-01 -0.26684291D-01 -0.38139818D-05 -0.28507151D-04 -0.10653773D-03
 -0.29722368D-03 -0.39819779D-03  0.47019734D-03 -0.87191534D-03 -0.19343690D-02
 -0.82063778D-04  0.34497626D-05  0.32343717D-05  0.23030654D-05  0.50984007D-06
  0.47800748D-06  0.34036980D-06  0.11672217D-02  0.10943445D-02  0.77923849D-03
  0.30365794D-05  0.27409211D-06  0.60719282D-03 -0.31699544D-05 -0.16636826D-06
 -0.37919416D-03 -0.11579260D-07  0.20929470D-08  0.46694731D-05 -0.10555501D-03
 -0.10556699D-03  0.21112200D-03  0.12244308D-05  0.23619494D-05  0.27459094D-06
 -0.24081412D-04 -0.24074816D-04  0.48156228D-04  0.65660408D-07 -0.29947415D-05
  0.65706978D-07  0.11420367D-04  0.11424623D-04 -0.22844990D-04 -0.38833796D-06
 -0.72331824D-06 -0.29109904D-07  0.88573568D-07  0.36266800D-04  0.77254726D-05
  0.14335839D-06 -0.10881980D-03 -0.11545735D-04 -0.40907910D-06  0.19395282D-07
 -0.11630683D-04 -0.12190575D-05  0.34174103D-06  0.51873769D-04 -0.85667577D-04
  0.42090310D-06 -0.15539692D-03  0.12856806D-03 -0.14461262D-05 -0.22439052D-06
  0.12843467D-03  0.23289136D-06 -0.48309597D-05 -0.87128348D-05 -0.12847070D-04
  0.75271068D-03  0.23594546D-03  0.50643103D-05 -0.15962706D-06  0.95855788D-04
  0.28424683D-04 -0.15888622D-06  0.19933577D-03 -0.42566755D-05 -0.22268646D-06
  0.44034755D-04  0.38734383D-04 -0.73917924D-04  0.54244483D-04  0.19673441D-04
 -0.16449059D-06  0.53517835D-06  0.76003958D-04 -0.96520369D-05 -0.12042658D-04
  0.21694694D-04 -0.21513607D-06  0.26866566D-06 -0.34558735D-04 -0.48327568D-05
 -0.87160759D-05 -0.12851849D-04  0.75257774D-03  0.23323002D-03  0.49804336D-05
  0.82646941D-04 -0.47820184D-04  0.27051501D-04  0.17340326D-03 -0.10025543D-03
 -0.40731586D-05  0.37960283D-04 -0.22042471D-04  0.38214560D-04  0.22893792D-04
 -0.41203101D-04  0.18309310D-04 -0.11122811D-03  0.65666871D-04 -0.37546586D-04
 -0.11521912D-04 -0.10340671D-04  0.21862583D-04  0.18045468D-05 -0.29808274D-04
  0.17402556D-04 -0.48245384D-05 -0.87012536D-05 -0.12829993D-04  0.75283566D-03
  0.23869884D-03  0.51485100D-05 -0.83356750D-04 -0.48002258D-04  0.29945902D-04
 -0.17184311D-03 -0.99083203D-04 -0.42094263D-05 -0.38277764D-04 -0.21948747D-04
  0.39310491D-04  0.21460394D-04 -0.42593594D-04  0.21133200D-04  0.11062765D-03
 -0.66096460D-04 -0.38375310D-04 -0.11344448D-04 -0.10133547D-04  0.21477995D-04
 -0.22828133D-05  0.30098633D-04  0.17244216D-04 -0.15460251D+00 -0.28924480D+00
 -0.49975085D+00 -0.81015485D+00 -0.12302979D+01 -0.17099983D+01 -0.20330570D+01
 -0.18111178D+01 -0.89943939D+00 -0.14480213D+00 -0.15277480D-02 -0.72284164D-03
 -0.24112787D-01 -0.84028235D-01 -0.30259928D+00 -0.66704245D+00 -0.93898049D+00
  0.44792430D-01  0.12288190D+01  0.72659300D+00 -0.15531642D-04 -0.18812612D-03
 -0.39231718D-03 -0.11250974D-02 -0.58424741D-04  0.48519656D-02  0.12536547D-01
 -0.10214189D-01  0.46600032D-01 -0.38435902D-03 -0.13197079D-03  0.39464325D-01
  0.51983748D-01  0.57346211D-01  0.47630518D-01  0.25293127D-01  0.65257590D-02
  0.25849440D-02  0.34049760D-02  0.37562215D-02  0.31198361D-02  0.16567195D-02
  0.42744230D-03  0.59412724D+01  0.78260457D+01  0.86333534D+01  0.71706760D+01
  0.38078279D+01  0.98243951D+00 -0.13363885D-05  0.12919344D-04  0.18217624D-04
  0.26056021D-04 -0.13194402D-06 -0.23895829D-04 -0.91645558D-07  0.88597029D-06
  0.12493106D-05  0.17868446D-05 -0.90483297D-08 -0.16387051D-05 -0.21079129D-03
  0.20377946D-02  0.28735031D-02  0.41098696D-02 -0.20811801D-04 -0.37691380D-02
  0.27560196D-03  0.18119945D-04  0.41653121D-01 -0.30255869D-05 -0.21182401D-06
 -0.48392583D-03 -0.10124861D-06 -0.43864074D-08 -0.98416055D-05 -0.71162975D-05
 -0.71261848D-05  0.14242482D-04 -0.71805541D-06  0.18328546D-05  0.23997914D-07
 -0.11141170D-03 -0.11141901D-03  0.22283070D-03  0.27536353D-06  0.33213712D-05
  0.28817000D-06 -0.14321975D-04 -0.14324302D-04  0.28646277D-04 -0.92848083D-07
  0.69591948D-06  0.38180215D-07 -0.25279586D-06 -0.72128042D-05  0.54418910D-05
 -0.26404165D-06  0.21622811D-04 -0.81661767D-05  0.10224292D-05  0.15601115D-07
 -0.81594963D-05 -0.47955698D-06  0.34913621D-06  0.20730263D-05 -0.33737165D-04
  0.35231606D-06 -0.61314888D-05  0.50603107D-04 -0.13997247D-05 -0.87590171D-07
  0.50608389D-04  0.63174297D-07 -0.87936617D-03 -0.16391401D-02 -0.27787076D-02
 -0.42073390D-02 -0.52601005D-02 -0.45246297D-02 -0.17352929D-02 -0.68419132D-06
 -0.90574120D-05 -0.32898168D-04 -0.97591797D-04 -0.11245483D-03  0.13659315D-03
 -0.95958335D-04 -0.15940649D-03  0.12410352D-04 -0.17075642D-05 -0.16699605D-05
 -0.11034135D-05  0.17841755D-05  0.17448846D-05  0.11529191D-05  0.39019705D-02
  0.38160419D-02  0.25214202D-02 -0.13962522D-05  0.40062477D-06  0.87921622D-03
  0.56115060D-06  0.99931992D-08  0.21388879D-04 -0.12436046D-06  0.46579336D-08
  0.93356640D-05 -0.35646323D-04 -0.35641995D-04  0.71288318D-04  0.13876078D-05
  0.88689152D-07  0.10524250D-06  0.21096645D-04  0.21094806D-04 -0.42191451D-04
 -0.69223042D-06 -0.35526941D-06 -0.61061806D-07  0.18116948D-04  0.18117001D-04
 -0.36233949D-04  0.28744007D-06  0.71538698D-06 -0.49615060D-07  0.11406674D-05
 -0.30037418D-05  0.46416622D-04  0.11352189D-05  0.88728927D-05 -0.69631409D-04
 -0.45572212D-05  0.13833260D-06 -0.69618458D-04 -0.18475981D-05 -0.39927289D-06
  0.95422034D-06 -0.25392581D-04 -0.39757184D-06 -0.27888667D-05  0.38091088D-04
  0.15953905D-05 -0.73794290D-07  0.38086653D-04  0.55055510D-06
MO    4     MO 0.0        OCC NO =    2.0000123  ORB. ENERGY =    0.000000
  0.26826220D-01  0.50009478D-01  0.84522831D-01  0.12705358D+00  0.15606257D+00
  0.13171130D+00  0.49526888D-01 -0.14568460D-05 -0.10889021D-04 -0.40694759D-04
 -0.11353204D-03 -0.15210164D-03  0.17960367D-03  0.26462200D-02 -0.36106677D-02
 -0.42241198D-04  0.50267009D-05  0.47128516D-05  0.33558311D-05  0.16029087D-05
  0.15028288D-05  0.10701036D-05  0.36695801D-02  0.34404646D-02  0.24498157D-02
  0.10484281D-04  0.60732307D-06  0.13052640D-02 -0.45364146D-05 -0.17938120D-06
 -0.41701924D-03 -0.44594329D-07  0.17437887D-08  0.37047207D-05 -0.31915987D-03
 -0.31921407D-03  0.63837394D-03  0.37510664D-05  0.90752497D-05  0.83257933D-06
  0.95988540D-05  0.96086637D-05 -0.19207518D-04  0.20312023D-05 -0.86554594D-05
 -0.24858761D-07 -0.17868581D-04 -0.17863522D-04  0.35732103D-04 -0.61402896D-06
 -0.62447668D-06  0.49780068D-07  0.39661421D-06 -0.42210020D-04  0.22587605D-04
  0.33014324D-06  0.12657739D-03 -0.33947402D-04 -0.15199859D-05  0.52665520D-07
 -0.33815414D-04 -0.45454821D-05  0.78478161D-06  0.82068298D-04 -0.16373135D-03
  0.90930589D-06 -0.24577984D-03  0.24569714D-03 -0.32636507D-05 -0.42505562D-06
  0.24549690D-03 -0.11957320D-05 -0.90323050D-04 -0.16290134D-03 -0.24019793D-03
  0.10229262D-02  0.68428779D-03  0.42671490D-05 -0.54612979D-06 -0.57779830D-04
  0.33538480D-04 -0.55256783D-07  0.30466189D-03 -0.43243959D-04 -0.29018745D-06
  0.11105521D-03  0.75812178D-04 -0.14238428D-03  0.24279462D-04  0.11810482D-03
 -0.51679623D-06  0.14983042D-05  0.14266023D-03 -0.14789767D-04 -0.21036682D-04
  0.35826449D-04 -0.25365858D-06  0.15475229D-06 -0.62798430D-04 -0.90152467D-04
 -0.16259369D-03 -0.23974430D-03  0.10280465D-02  0.67870518D-03  0.41143617D-05
 -0.50223093D-04  0.28698866D-04  0.30723562D-04  0.26754950D-03 -0.15459713D-03
 -0.45705030D-04  0.95748860D-04 -0.55445971D-04  0.75009364D-04 -0.14977702D-04
 -0.99028332D-04  0.11400603D-03 -0.14613745D-03  0.12111887D-03 -0.68891530D-04
 -0.19319451D-04 -0.16355801D-04  0.35675251D-04  0.48344657D-05 -0.54355608D-04
  0.31529304D-04 -0.90478868D-04 -0.16318236D-03 -0.24061230D-03  0.10177435D-02
  0.68989461D-03  0.44201627D-05  0.49887540D-04  0.29112476D-04  0.36359064D-04
 -0.26009204D-03 -0.15009074D-03 -0.40417511D-04 -0.96538600D-04 -0.55517145D-04
  0.76757404D-04 -0.19926330D-04 -0.10248078D-03  0.12240711D-03  0.14225080D-03
 -0.12589747D-03 -0.73307852D-04 -0.19587856D-04 -0.16299710D-04  0.35887566D-04
 -0.58945621D-05  0.54506713D-04  0.31410216D-04  0.91313864D-01  0.17083849D+00
  0.29517103D+00  0.47850692D+00  0.72665867D+00  0.10099872D+01  0.12007974D+01
  0.10697120D+01  0.53124161D+00  0.85525405D-01  0.90234354D-03  0.42753013D-03
  0.14261689D-01  0.49699132D-01  0.17897462D+00  0.39452728D+00  0.55536708D+00
 -0.26492820D-01 -0.72679427D+00 -0.42974890D+00  0.62780583D-05  0.76042617D-04
  0.15857886D-03  0.45477656D-03  0.23615914D-04 -0.19612171D-02 -0.50674083D-02
  0.41286858D-02 -0.28545104D-01  0.14181721D-02 -0.18175540D-03  0.71361940D-01
  0.94000368D-01  0.10369712D+00  0.86128578D-01  0.45736665D-01  0.11800299D-01
  0.43014742D-02  0.56660478D-02  0.62505376D-02  0.51915609D-02  0.27568629D-02
  0.71128504D-03  0.99143877D+01  0.13059568D+02  0.14406748D+02  0.11965932D+02
  0.63542419D+01  0.16394276D+01 -0.22426835D-05  0.21680821D-04  0.30572221D-04
  0.43726364D-04 -0.22142415D-06 -0.40101200D-04 -0.14587522D-06  0.14102277D-05
  0.19885683D-05  0.28441787D-05 -0.14402521D-07 -0.26083801D-05 -0.33685890D-03
  0.32565351D-02  0.45920544D-02  0.65678525D-02 -0.33258681D-04 -0.60233402D-02
  0.51757129D-03  0.31473720D-04  0.72555411D-01 -0.21509348D-05 -0.13795229D-06
 -0.30638256D-03 -0.98567492D-07 -0.18922989D-08 -0.39566366D-05  0.45439257D-03
  0.45443468D-03 -0.90882725D-03 -0.11382361D-05 -0.15172846D-04 -0.11748213D-05
 -0.30963520D-03 -0.30965956D-03  0.61929476D-03  0.60870017D-06  0.97541422D-05
  0.80140234D-06  0.43329597D-05  0.43323368D-05 -0.86652966D-05 -0.19583299D-06
  0.13214927D-06 -0.83150357D-08 -0.48316145D-07 -0.14493731D-04 -0.46952702D-04
 -0.71058932D-07  0.43594892D-04  0.70414314D-04  0.21600737D-06 -0.11369933D-06
  0.70443793D-04 -0.12608593D-05  0.59606051D-06  0.42132846D-05 -0.62576391D-04
  0.60251039D-06 -0.12476151D-04  0.93861924D-04 -0.23906919D-05 -0.16370231D-06
  0.93867249D-04  0.11910057D-06 -0.63566427D-02 -0.11848793D-01 -0.20086344D-01