 clch3f_ts-wavefunction
GAUSSIAN            211 MOL ORBITALS    339 PRIMITIVES        6 NUCLEI
  C    1    (CENTRE  1)   0.00033070  0.00005480 -0.94053370  CHARGE =  6.0
  H    2    (CENTRE  2)   0.00003590 -1.98906904 -1.17300214  CHARGE =  1.0
  H    3    (CENTRE  3)  -1.72213010  0.99468570 -1.17398291  CHARGE =  1.0
  H    4    (CENTRE  4)   1.72295780  0.99424539 -1.17459707  CHARGE =  1.0
  Cl   5    (CENTRE  5)   0.00104880  0.00181792  3.08916932  CHARGE = 17.0
  F    6    (CENTRE  6)  -0.00035149 -0.00174044 -4.90094425  CHARGE =  9.0
CENTRE ASSIGNMENTS    1  1  1  1  1  1  1  1  1  1  1  1  1  1  1  1  1  1  1  1
CENTRE ASSIGNMENTS    1  1  1  1  1  1  1  1  1  1  1  1  1  1  1  1  1  1  1  1
CENTRE ASSIGNMENTS    1  1  1  1  1  1  1  1  1  1  1  1  1  1  1  1  1  1  1  1
CENTRE ASSIGNMENTS    1  1  1  1  1  1  1  1  1  1  1  1  2  2  2  2  2  2  2  2
CENTRE ASSIGNMENTS    2  2  2  2  2  2  2  2  2  2  2  2  2  2  2  2  2  2  2  3
CENTRE ASSIGNMENTS    3  3  3  3  3  3  3  3  3  3  3  3  3  3  3  3  3  3  3  3
CENTRE ASSIGNMENTS    3  3  3  3  3  3  4  4  4  4  4  4  4  4  4  4  4  4  4  4
CENTRE ASSIGNMENTS    4  4  4  4  4  4  4  4  4  4  4  4  4  5  5  5  5  5  5  5
CENTRE ASSIGNMENTS    5  5  5  5  5  5  5  5  5  5  5  5  5  5  5  5  5  5  5  5
CENTRE ASSIGNMENTS    5  5  5  5  5  5  5  5  5  5  5  5  5  5  5  5  5  5  5  5
CENTRE ASSIGNMENTS    5  5  5  5  5  5  5  5  5  5  5  5  5  5  5  5  5  5  5  5
CENTRE ASSIGNMENTS    5  5  5  5  5  5  5  5  5  5  5  5  5  5  5  5  5  5  5  5
CENTRE ASSIGNMENTS    5  5  5  5  5  5  5  5  5  5  5  5  5  5  5  5  5  5  5  5
CENTRE ASSIGNMENTS    5  5  5  5  5  5  5  6  6  6  6  6  6  6  6  6  6  6  6  6
CENTRE ASSIGNMENTS    6  6  6  6  6  6  6  6  6  6  6  6  6  6  6  6  6  6  6  6
CENTRE ASSIGNMENTS    6  6  6  6  6  6  6  6  6  6  6  6  6  6  6  6  6  6  6  6
CENTRE ASSIGNMENTS    6  6  6  6  6  6  6  6  6  6  6  6  6  6  6  6  6  6  6
TYPE ASSIGNMENTS      1  1  1  1  1  1  1  1  1  1  1  1  1  1  1  1  2  2  2  3
TYPE ASSIGNMENTS      3  3  4  4  4  2  3  4  2  3  4  2  3  4  5  6  7  8  9 10
TYPE ASSIGNMENTS      5  6  7  8  9 10  5  6  7  8  9 10 11 12 13 17 14 15 18 19
TYPE ASSIGNMENTS     16 20 11 12 13 17 14 15 18 19 16 20  1  1  1  1  1  1  2  3
TYPE ASSIGNMENTS      4  2  3  4  2  3  4  5  6  7  8  9 10  5  6  7  8  9 10  1
TYPE ASSIGNMENTS      1  1  1  1  1  2  3  4  2  3  4  2  3  4  5  6  7  8  9 10
TYPE ASSIGNMENTS      5  6  7  8  9 10  1  1  1  1  1  1  2  3  4  2  3  4  2  3
TYPE ASSIGNMENTS      4  5  6  7  8  9 10  5  6  7  8  9 10  1  1  1  1  1  1  1
TYPE ASSIGNMENTS      1  1  1  1  1  1  1  1  1  1  1  1  1  1  1  1  1  1  1  1
TYPE ASSIGNMENTS      1  1  1  1  2  2  2  2  2  2  3  3  3  3  3  3  4  4  4  4
TYPE ASSIGNMENTS      4  4  2  2  2  2  2  2  3  3  3  3  3  3  4  4  4  4  4  4
TYPE ASSIGNMENTS      2  3  4  2  3  4  2  3  4  5  6  7  8  9 10  5  6  7  8  9
TYPE ASSIGNMENTS     10  5  6  7  8  9 10 11 12 13 17 14 15 18 19 16 20 11 12 13
TYPE ASSIGNMENTS     17 14 15 18 19 16 20  1  1  1  1  1  1  1  1  1  1  1  1  1
TYPE ASSIGNMENTS      1  1  1  2  2  2  3  3  3  4  4  4  2  3  4  2  3  4  2  3
TYPE ASSIGNMENTS      4  5  6  7  8  9 10  5  6  7  8  9 10  5  6  7  8  9 10 11
TYPE ASSIGNMENTS     12 13 17 14 15 18 19 16 20 11 12 13 17 14 15 18 19 16 20
EXPONENTS  0.8236000D+04 0.1235000D+04 0.2808000D+03 0.7927000D+02 0.2559000D+02
EXPONENTS  0.8997000D+01 0.3319000D+01 0.2808000D+03 0.7927000D+02 0.2559000D+02
EXPONENTS  0.8997000D+01 0.3319000D+01 0.3643000D+00 0.9059000D+00 0.1285000D+00
EXPONENTS  0.4402000D-01 0.1871000D+02 0.4133000D+01 0.1200000D+01 0.1871000D+02
EXPONENTS  0.4133000D+01 0.1200000D+01 0.1871000D+02 0.4133000D+01 0.1200000D+01
EXPONENTS  0.3827000D+00 0.3827000D+00 0.3827000D+00 0.1209000D+00 0.1209000D+00
EXPONENTS  0.1209000D+00 0.3569000D-01 0.3569000D-01 0.3569000D-01 0.1097000D+01
EXPONENTS  0.1097000D+01 0.1097000D+01 0.1097000D+01 0.1097000D+01 0.1097000D+01
EXPONENTS  0.3180000D+00 0.3180000D+00 0.3180000D+00 0.3180000D+00 0.3180000D+00
EXPONENTS  0.3180000D+00 0.1000000D+00 0.1000000D+00 0.1000000D+00 0.1000000D+00
EXPONENTS  0.1000000D+00 0.1000000D+00 0.7610000D+00 0.7610000D+00 0.7610000D+00
EXPONENTS  0.7610000D+00 0.7610000D+00 0.7610000D+00 0.7610000D+00 0.7610000D+00
EXPONENTS  0.7610000D+00 0.7610000D+00 0.2680000D+00 0.2680000D+00 0.2680000D+00
EXPONENTS  0.2680000D+00 0.2680000D+00 0.2680000D+00 0.2680000D+00 0.2680000D+00
EXPONENTS  0.2680000D+00 0.2680000D+00 0.3387000D+02 0.5095000D+01 0.1159000D+01
EXPONENTS  0.3258000D+00 0.1027000D+00 0.2526000D-01 0.1407000D+01 0.1407000D+01
EXPONENTS  0.1407000D+01 0.3880000D+00 0.3880000D+00 0.3880000D+00 0.1020000D+00
EXPONENTS  0.1020000D+00 0.1020000D+00 0.1057000D+01 0.1057000D+01 0.1057000D+01
EXPONENTS  0.1057000D+01 0.1057000D+01 0.1057000D+01 0.2470000D+00 0.2470000D+00
EXPONENTS  0.2470000D+00 0.2470000D+00 0.2470000D+00 0.2470000D+00 0.3387000D+02
EXPONENTS  0.5095000D+01 0.1159000D+01 0.3258000D+00 0.1027000D+00 0.2526000D-01
EXPONENTS  0.1407000D+01 0.1407000D+01 0.1407000D+01 0.3880000D+00 0.3880000D+00
EXPONENTS  0.3880000D+00 0.1020000D+00 0.1020000D+00 0.1020000D+00 0.1057000D+01
EXPONENTS  0.1057000D+01 0.1057000D+01 0.1057000D+01 0.1057000D+01 0.1057000D+01
EXPONENTS  0.2470000D+00 0.2470000D+00 0.2470000D+00 0.2470000D+00 0.2470000D+00
EXPONENTS  0.2470000D+00 0.3387000D+02 0.5095000D+01 0.1159000D+01 0.3258000D+00
EXPONENTS  0.1027000D+00 0.2526000D-01 0.1407000D+01 0.1407000D+01 0.1407000D+01
EXPONENTS  0.3880000D+00 0.3880000D+00 0.3880000D+00 0.1020000D+00 0.1020000D+00
EXPONENTS  0.1020000D+00 0.1057000D+01 0.1057000D+01 0.1057000D+01 0.1057000D+01
EXPONENTS  0.1057000D+01 0.1057000D+01 0.2470000D+00 0.2470000D+00 0.2470000D+00
EXPONENTS  0.2470000D+00 0.2470000D+00 0.2470000D+00 0.4561000D+06 0.6833000D+05
EXPONENTS  0.1555000D+05 0.4405000D+04 0.1439000D+04 0.5204000D+03 0.2031000D+03
EXPONENTS  0.8396000D+02 0.3620000D+02 0.1583000D+02 0.6334000D+01 0.4405000D+04
EXPONENTS  0.1439000D+04 0.5204000D+03 0.2031000D+03 0.8396000D+02 0.3620000D+02
EXPONENTS  0.1583000D+02 0.6334000D+01 0.2694000D+01 0.1439000D+04 0.2031000D+03
EXPONENTS  0.8396000D+02 0.3620000D+02 0.1583000D+02 0.6334000D+01 0.2694000D+01
EXPONENTS  0.4313000D+00 0.9768000D+00 0.1625000D+00 0.5910000D-01 0.6633000D+03
EXPONENTS  0.1568000D+03 0.4998000D+02 0.1842000D+02 0.7240000D+01 0.2922000D+01
EXPONENTS  0.6633000D+03 0.1568000D+03 0.4998000D+02 0.1842000D+02 0.7240000D+01
EXPONENTS  0.2922000D+01 0.6633000D+03 0.1568000D+03 0.4998000D+02 0.1842000D+02
EXPONENTS  0.7240000D+01 0.2922000D+01 0.1568000D+03 0.4998000D+02 0.1842000D+02
EXPONENTS  0.7240000D+01 0.2922000D+01 0.3818000D+00 0.1568000D+03 0.4998000D+02
EXPONENTS  0.1842000D+02 0.7240000D+01 0.2922000D+01 0.3818000D+00 0.1568000D+03
EXPONENTS  0.4998000D+02 0.1842000D+02 0.7240000D+01 0.2922000D+01 0.3818000D+00
EXPONENTS  0.1022000D+01 0.1022000D+01 0.1022000D+01 0.1301000D+00 0.1301000D+00
EXPONENTS  0.1301000D+00 0.4190000D-01 0.4190000D-01 0.4190000D-01 0.1046000D+01
EXPONENTS  0.1046000D+01 0.1046000D+01 0.1046000D+01 0.1046000D+01 0.1046000D+01
EXPONENTS  0.3440000D+00 0.3440000D+00 0.3440000D+00 0.3440000D+00 0.3440000D+00
EXPONENTS  0.3440000D+00 0.1350000D+00 0.1350000D+00 0.1350000D+00 0.1350000D+00
EXPONENTS  0.1350000D+00 0.1350000D+00 0.7060000D+00 0.7060000D+00 0.7060000D+00
EXPONENTS  0.7060000D+00 0.7060000D+00 0.7060000D+00 0.7060000D+00 0.7060000D+00
EXPONENTS  0.7060000D+00 0.7060000D+00 0.3120000D+00 0.3120000D+00 0.3120000D+00
EXPONENTS  0.3120000D+00 0.3120000D+00 0.3120000D+00 0.3120000D+00 0.3120000D+00
EXPONENTS  0.3120000D+00 0.3120000D+00 0.1950000D+05 0.2923000D+04 0.6645000D+03
EXPONENTS  0.1875000D+03 0.6062000D+02 0.2142000D+02 0.7950000D+01 0.6645000D+03
EXPONENTS  0.1875000D+03 0.6062000D+02 0.2142000D+02 0.7950000D+01 0.8815000D+00
EXPONENTS  0.2257000D+01 0.3041000D+00 0.9158000D-01 0.4388000D+02 0.9926000D+01
EXPONENTS  0.2930000D+01 0.4388000D+02 0.9926000D+01 0.2930000D+01 0.4388000D+02
EXPONENTS  0.9926000D+01 0.2930000D+01 0.9132000D+00 0.9132000D+00 0.9132000D+00
EXPONENTS  0.2672000D+00 0.2672000D+00 0.2672000D+00 0.7361000D-01 0.7361000D-01
EXPONENTS  0.7361000D-01 0.3107000D+01 0.3107000D+01 0.3107000D+01 0.3107000D+01
EXPONENTS  0.3107000D+01 0.3107000D+01 0.8550000D+00 0.8550000D+00 0.8550000D+00
EXPONENTS  0.8550000D+00 0.8550000D+00 0.8550000D+00 0.2920000D+00 0.2920000D+00
EXPONENTS  0.2920000D+00 0.2920000D+00 0.2920000D+00 0.2920000D+00 0.1917000D+01
EXPONENTS  0.1917000D+01 0.1917000D+01 0.1917000D+01 0.1917000D+01 0.1917000D+01
EXPONENTS  0.1917000D+01 0.1917000D+01 0.1917000D+01 0.1917000D+01 0.7240000D+00
EXPONENTS  0.7240000D+00 0.7240000D+00 0.7240000D+00 0.7240000D+00 0.7240000D+00
EXPONENTS  0.7240000D+00 0.7240000D+00 0.7240000D+00 0.7240000D+00
MO    1     MO 0.0        OCC NO =    2.0000301  ORB. ENERGY =    0.000000
 -0.60647036D-08 -0.11305829D-07 -0.19108392D-07 -0.28723477D-07 -0.35281647D-07
 -0.29776465D-07 -0.11196729D-07  0.34232281D-11  0.25586509D-10  0.95622627D-10
  0.26677224D-09  0.35740125D-09 -0.42202424D-09 -0.11620445D-08  0.98913478D-08
  0.26413063D-08  0.11107559D-03  0.10414043D-03  0.74154190D-04  0.12177473D-05
  0.11417155D-05  0.81296945D-06 -0.23752040D-07 -0.22269048D-07 -0.15856888D-07
  0.35551513D-03  0.38972026D-05 -0.62352221D-07  0.46953123D-03  0.51463082D-05
 -0.88673218D-07  0.96102207D-05  0.10526183D-06 -0.17908368D-08  0.62383113D-06
 -0.71781365D-06  0.93982518D-07  0.12607397D-03 -0.52072503D-03 -0.57293918D-05
  0.22164153D-05 -0.21965250D-05 -0.19890325D-07  0.38752192D-03  0.10358201D-03
  0.10715301D-05  0.45836622D-06 -0.47101232D-06  0.12646103D-07  0.82912744D-04
 -0.66400700D-04 -0.74136128D-06  0.92915842D-04  0.10177961D-05  0.68557185D-07
  0.92939353D-04  0.10283204D-05  0.11690444D-06 -0.37168688D-03 -0.40817085D-05
 -0.32257599D-06  0.52378254D-04 -0.27589310D-04 -0.30280795D-06 -0.20740910D-07
 -0.27543030D-04 -0.28273275D-06  0.63518336D-06  0.11031096D-03  0.11911566D-05
 -0.57296063D-06  0.10241340D-03 -0.45283470D-06 -0.81670602D-06 -0.12042326D-05
  0.40033523D-05  0.12589995D-04 -0.12937546D-06  0.51249352D-05  0.79504030D-06
  0.30802229D-06  0.83542776D-04  0.31453476D-05  0.30187323D-05  0.75836490D-04
  0.19185404D-05  0.23687504D-06 -0.12394073D-05  0.43037299D-06  0.80903430D-06
  0.31097795D-04 -0.48691323D-04  0.33380138D-05 -0.46728610D-06 -0.14072525D-06
  0.60801135D-06  0.29168938D-04  0.61573325D-04  0.32942066D-06 -0.35157274D-04
 -0.63407592D-04 -0.93494457D-04  0.31109546D-03  0.97700113D-03 -0.10016423D-04
  0.54838089D-04 -0.28642157D-04  0.24021900D-04  0.23344605D-03 -0.85526123D-04
  0.23548938D-03  0.14887585D-03 -0.41340162D-04  0.19460702D-04  0.81491185D-05
 -0.70437353D-04  0.62288234D-04 -0.10421875D-03  0.21179930D-03 -0.15079633D-03
 -0.10917474D-04 -0.37144994D-04  0.48062468D-04 -0.15718623D-04  0.38716317D-04
  0.13975944D-04  0.35610298D-04  0.64224639D-04  0.94699193D-04 -0.31511419D-03
 -0.98959446D-03  0.10145453D-04  0.55478457D-04  0.29111992D-04 -0.24350863D-04
  0.23531610D-03  0.88433619D-04 -0.23861324D-03  0.14982089D-03  0.43527588D-04
 -0.19766622D-04 -0.78563823D-05  0.71024205D-04 -0.63167823D-04 -0.10586792D-03
  0.21515747D-03  0.15163630D-03  0.11393466D-04  0.37303448D-04 -0.48696913D-04
 -0.16288313D-04  0.38376632D-04 -0.12785102D-04 -0.43059436D-07 -0.80559610D-07
 -0.13918914D-06 -0.22564194D-06 -0.34265895D-06 -0.47626370D-06 -0.56624104D-06
 -0.50442719D-06 -0.25050921D-06 -0.40329864D-07 -0.42550388D-09 -0.20212185D-09
 -0.67424467D-08 -0.23496077D-07 -0.84613177D-07 -0.18651922D-06 -0.26255886D-06
  0.12524913D-07  0.34360387D-06  0.20317082D-06 -0.37394555D-11 -0.45293938D-10
 -0.94455733D-10 -0.27088260D-09 -0.14066556D-10  0.11681771D-08  0.30183454D-08
 -0.24592057D-08  0.12169182D-07 -0.10261999D-08 -0.41184176D-09  0.11610155D+02
  0.15293290D+02  0.16870892D+02  0.14012597D+02  0.74410779D+01  0.19198370D+01
  0.12726694D+00  0.16764034D+00  0.18493353D+00  0.15360178D+00  0.81566807D-01
  0.21044663D-01 -0.21311531D-02 -0.28072272D-02 -0.30968111D-02 -0.25721441D-02
 -0.13658799D-02 -0.35240415D-03 -0.46041365D-03  0.44509829D-02  0.62763505D-02
  0.89768416D-02 -0.45457462D-04 -0.82326104D-02 -0.50468823D-05  0.48790010D-04
  0.68799008D-04  0.98400781D-04 -0.49828770D-06 -0.90242797D-04  0.84461060D-07
 -0.81651518D-06 -0.11513716D-05 -0.16467660D-05  0.83389913D-08  0.15102398D-05
  0.76638238D-01  0.84008411D-03 -0.14067297D-04 -0.64454054D-03 -0.70654524D-05
  0.11813282D-06 -0.57787075D-04 -0.63344672D-06  0.10650983D-07 -0.32844061D-07
 -0.15077354D-06  0.18361761D-06  0.25264073D-04 -0.99934079D-03 -0.10957900D-04
  0.13761044D-07  0.52830234D-07 -0.66591278D-07 -0.88620535D-05  0.36473276D-03
  0.39989994D-05  0.40039431D-08 -0.15346977D-07  0.11343034D-07  0.26125106D-05
 -0.61487357D-04 -0.67434745D-06  0.23659386D-05  0.25751881D-07  0.16196440D-08
  0.23966869D-05  0.38872212D-07  0.40335503D-06 -0.94945028D-05 -0.11612786D-06
 -0.40821397D-06  0.71868576D-04  0.15294391D-04  0.16764792D-06  0.11166953D-07
  0.15288246D-04  0.16498235D-06 -0.11282394D-06 -0.61171420D-04 -0.66792610D-06
  0.79323082D-07 -0.14657865D-04  0.63767386D-08  0.11886252D-07  0.20149845D-07
  0.30509590D-07  0.38143707D-07  0.32810428D-07  0.12583505D-07 -0.12791195D-10
 -0.16933147D-09 -0.61504270D-09 -0.18245126D-08 -0.21023822D-08  0.25536564D-08
  0.20273924D-09 -0.42801087D-08 -0.46313112D-08 -0.29562154D-03 -0.28911140D-03
 -0.19102813D-03 -0.32403347D-05 -0.31689766D-05 -0.20938768D-05  0.46687898D-07
  0.45659745D-07  0.30169324D-07 -0.74441641D-05 -0.83169607D-07  0.28002241D-08
 -0.68413687D-04 -0.74862917D-06  0.72130802D-08 -0.19649386D-04 -0.21535125D-06
  0.29498254D-08  0.78084359D-06 -0.80667011D-06  0.25826521D-07  0.14187165D-03
 -0.13430240D-03 -0.14951866D-05 -0.38549908D-06  0.40465083D-06 -0.19151751D-07
 -0.71130493D-04  0.10363789D-03  0.11472887D-05  0.19241954D-06 -0.20506709D-06
  0.12647554D-07  0.36103674D-04 -0.75793147D-04 -0.83561724D-06 -0.73599912D-04
 -0.80430478D-06 -0.51588083D-07 -0.73779535D-04 -0.87300115D-06 -0.20130741D-05
  0.29457927D-03  0.32859155D-05  0.21678383D-05 -0.37878982D-03  0.26125644D-04
  0.28551958D-06  0.18077588D-07  0.26182533D-04  0.30737175D-06  0.63466321D-06
 -0.10455946D-03 -0.11639305D-05 -0.68889598D-06  0.12030716D-03
MO    2     MO 0.0        OCC NO =    2.0000301  ORB. ENERGY =    0.000000
 -0.42116626D-07 -0.78513876D-07 -0.13269915D-06 -0.19947157D-06 -0.24501510D-06
 -0.20678410D-06 -0.77756220D-07 -0.12883785D-11 -0.96298313D-11 -0.35988878D-10
 -0.10040337D-09 -0.13451283D-09  0.15883457D-09 -0.46756992D-08  0.14341504D-07
 -0.60123201D-08 -0.12173754D-05 -0.11413668D-05 -0.81272116D-06  0.11107222D-03
  0.10413727D-03  0.74151937D-04 -0.44627321D-07 -0.41840950D-07 -0.29793249D-07
 -0.38968732D-05  0.35551056D-03 -0.16147337D-06 -0.51473752D-05  0.46952536D-03
 -0.19149173D-06 -0.10542302D-06  0.96098143D-05 -0.40729112D-08  0.63148927D-04
 -0.63378643D-04  0.22971669D-06 -0.15237423D-05  0.56855193D-05 -0.52061641D-03
  0.19373631D-03 -0.19369148D-03 -0.44837012D-07 -0.43777040D-05 -0.12030634D-05
  0.10392130D-03  0.41471911D-04 -0.41499482D-04  0.27570751D-07 -0.95232825D-06
  0.71355765D-06 -0.66326531D-04 -0.10141106D-05  0.92902713D-04  0.15869547D-06
 -0.10240163D-05  0.92923949D-04  0.26361224D-04  0.40663480D-05 -0.37163209D-03
 -0.26837311D-04 -0.75812261D-06  0.31160386D-06 -0.27610310D-04 -0.46056416D-07
  0.29335385D-06 -0.27564680D-04  0.51152596D-04 -0.12281654D-05  0.11039561D-03
 -0.51014427D-04 -0.11125191D-05 -0.40858261D-04 -0.73689556D-04 -0.10865521D-03
  0.36153317D-03  0.11354061D-02 -0.11640990D-04 -0.42713577D-07  0.71844796D-04
  0.27876925D-04 -0.84182109D-06  0.28477375D-03  0.27355673D-03 -0.81454786D-06
  0.17386176D-03  0.22552745D-04 -0.11145236D-03  0.39230149D-04  0.72222207D-04
 -0.25275792D-06  0.64341195D-06  0.30083799D-03 -0.43472638D-04 -0.12384476D-04
  0.55857114D-04 -0.31001118D-06 -0.64372599D-06  0.30918286D-04  0.20820694D-04
  0.37550979D-04  0.55368897D-04 -0.18424148D-03 -0.57861197D-03  0.59325085D-05
 -0.29497774D-04  0.22118386D-04 -0.14229381D-04 -0.89688859D-04  0.13473885D-03
 -0.13950797D-03 -0.44088039D-04  0.10081255D-03 -0.11566935D-04  0.10834437D-04
  0.26027797D-04 -0.36862234D-04  0.79774586D-04 -0.15374924D-03  0.40314986D-04
  0.21140485D-04  0.73565411D-05 -0.28497026D-04  0.26264072D-04  0.12856466D-04
  0.53716049D-04  0.20035655D-04  0.36135129D-04  0.53281227D-04 -0.17729645D-03
 -0.55680538D-03  0.57092295D-05  0.28274572D-04  0.21470425D-04 -0.13702797D-04
  0.84475155D-04  0.13278626D-03 -0.13428431D-03  0.40797467D-04  0.99860943D-04
 -0.11147885D-04  0.11046017D-04  0.24478857D-04 -0.35524874D-04 -0.77421373D-04
  0.14899267D-03  0.36952599D-04  0.20881691D-04  0.65375298D-05 -0.27419221D-04
 -0.25897314D-04 -0.13732450D-04  0.54025537D-04  0.14921578D-06  0.27916680D-06
  0.48233831D-06  0.78192708D-06  0.11874313D-05  0.16504178D-05  0.19622203D-05
  0.17480140D-05  0.86810072D-06  0.13975687D-06  0.14745176D-08  0.69785078D-09
  0.23279134D-07  0.81123121D-07  0.29213749D-06  0.64398075D-06  0.90651705D-06
 -0.43243818D-07 -0.11863350D-05 -0.70147245D-06  0.16565044D-10  0.20064314D-09
  0.41842011D-09  0.11999560D-08  0.62312045D-10 -0.51747923D-08 -0.13370669D-07
  0.10893792D-07 -0.41494853D-07 -0.21155406D-08  0.12131820D-08 -0.12726786D+00
 -0.16764154D+00 -0.18493487D+00 -0.15360289D+00 -0.81567395D-01 -0.21044814D-01
  0.11610154D+02  0.15293288D+02  0.16870891D+02  0.14012596D+02  0.74410773D+01
  0.19198368D+01 -0.50606249D-02 -0.66660268D-02 -0.73536711D-02 -0.61077996D-02
 -0.32434111D-02 -0.83681701D-03  0.50469771D-05 -0.48790927D-04 -0.68800300D-04
 -0.98402629D-04  0.49829706D-06  0.90244492D-04 -0.46041337D-03  0.44509802D-02
  0.62763467D-02  0.89768360D-02 -0.45457434D-04 -0.82326053D-02  0.20103399D-06
 -0.19434673D-05 -0.27404917D-05 -0.39196281D-05  0.19848445D-07  0.35946687D-05
 -0.84009150D-03  0.76638229D-01 -0.33411317D-04  0.70651202D-05 -0.64454149D-03
  0.28317728D-06  0.63344618D-06 -0.57787080D-04  0.24994060D-07  0.12853244D-04
 -0.13289414D-04  0.43617000D-06 -0.46520122D-06  0.10950796D-04 -0.99931197D-03
 -0.45105816D-05  0.46715561D-05 -0.16097452D-06  0.16561395D-06 -0.39970752D-05
  0.36472065D-03  0.13202853D-05 -0.13466448D-05  0.26359541D-07 -0.40536241D-07
  0.67363539D-06 -0.61484383D-04 -0.19535089D-07  0.23497671D-05  0.43389858D-08
 -0.32711451D-07  0.23806085D-05  0.35938355D-04  0.91316718D-07 -0.94299098D-05
 -0.35951372D-04 -0.81915296D-06 -0.16898859D-06  0.15297376D-04  0.26967279D-07
 -0.16632833D-06  0.15291161D-04 -0.73024553D-05  0.67329410D-06 -0.61183289D-04
  0.72215535D-05  0.13887833D-06 -0.15502338D-07 -0.28896385D-07 -0.48985810D-07
 -0.74171141D-07 -0.92730263D-07 -0.79764655D-07 -0.30591462D-07  0.37464442D-10
  0.49595907D-09  0.18014136D-08  0.53438594D-08  0.61577186D-08 -0.74794664D-08
 -0.49085926D-09  0.12529703D-07  0.11793321D-07  0.32407379D-05  0.31693709D-05
  0.20941374D-05 -0.29562333D-03 -0.28911316D-03 -0.19102929D-03  0.13610130D-06
  0.13310410D-06  0.87947507D-07  0.80129377D-07 -0.74531816D-05 -0.27487791D-08
  0.75116608D-06 -0.68406872D-04  0.43904465D-07  0.21542917D-06 -0.19649133D-04
  0.10129014D-07  0.70971047D-04 -0.71025377D-04  0.54330747D-07 -0.16325432D-05
  0.14477531D-05 -0.13417207D-03 -0.35591148D-04  0.35635323D-04 -0.44175584D-07
  0.82467556D-06 -0.11240794D-05  0.10357117D-03  0.18068889D-04 -0.18105339D-04
  0.36450005D-07 -0.42239578D-06  0.82561091D-06 -0.75754610D-04  0.77586672D-06
 -0.73511600D-04 -0.13516037D-06  0.84065865D-06 -0.73677382D-04 -0.18953504D-03
 -0.31682588D-05  0.29421218D-03  0.18994052D-03  0.44204521D-05 -0.27661352D-06
  0.26097229D-04  0.48714046D-07 -0.29724286D-06  0.26149802D-04  0.60202201D-04
  0.11270834D-05 -0.10444149D-03 -0.60348343D-04 -0.14086030D-05
MO    3     MO 0.0        OCC NO =    2.0000211  ORB. ENERGY =    0.000000
 -0.14828962D-01 -0.27644173D-01 -0.46722419D-01 -0.70232510D-01 -0.86268060D-01
 -0.72807199D-01 -0.27377408D-01 -0.39105270D-05 -0.29228767D-04 -0.10923457D-03
 -0.30474745D-03 -0.40827757D-03  0.48209968D-03 -0.89260770D-03 -0.19799998D-02
 -0.86218614D-04  0.21140577D-06  0.19820634D-06  0.14113472D-06  0.51347673D-06
  0.48141707D-06  0.34279764D-06  0.11805927D-02  0.11068807D-02  0.78816497D-03
  0.10527089D-06  0.26627750D-06  0.60674512D-03 -0.68594545D-07 -0.17488649D-06
 -0.38647390D-03  0.78930454D-09  0.19509975D-08  0.44930376D-05 -0.10484752D-03
 -0.10484918D-03  0.20969670D-03 -0.94740710D-09  0.11283337D-06  0.27216421D-06
 -0.23511384D-04 -0.23509616D-04  0.47021000D-04 -0.64769092D-09  0.24176960D-07
  0.62932386D-07  0.11714499D-04  0.11715475D-04 -0.23429974D-04  0.68956116D-10
 -0.12538289D-07 -0.31365002D-07 -0.15988355D-07  0.37776616D-04  0.61003631D-05
  0.41699031D-07 -0.11334655D-03 -0.91013032D-05  0.62660348D-08  0.16704988D-07
 -0.91997860D-05  0.40057617D-07  0.27835751D-08  0.52742945D-04 -0.86196204D-04
  0.83229673D-07 -0.15800140D-03  0.12936358D-03 -0.91580398D-07 -0.22743793D-06
  0.12922503D-03  0.55931414D-07 -0.43088482D-05 -0.77711851D-05 -0.11458608D-04
  0.76753174D-03  0.24069489D-03  0.51864150D-05  0.18284144D-07  0.99496222D-04
  0.31097686D-04  0.25172009D-07  0.20224973D-03 -0.42257194D-05  0.12723098D-07
  0.44678326D-04  0.38921741D-04 -0.75525191D-04  0.54705970D-04  0.20819220D-04
  0.46957040D-07  0.44446669D-07  0.76950440D-04 -0.94160069D-05 -0.12234677D-04
  0.21650684D-04 -0.69721306D-08  0.65001980D-08 -0.35300520D-04 -0.43086760D-05
 -0.77708747D-05 -0.11458150D-04  0.76753338D-03  0.24071411D-03  0.51867118D-05
  0.86155457D-04 -0.49739720D-04  0.31149034D-04  0.17514087D-03 -0.10115123D-03
 -0.41321740D-05  0.38683935D-04 -0.22320859D-04  0.38944703D-04  0.22119205D-04
 -0.42979833D-04  0.20860627D-04 -0.11275060D-03  0.66706311D-04 -0.38421718D-04
 -0.11523760D-04 -0.10109069D-04  0.21632829D-04  0.24176511D-05 -0.30584691D-04
  0.17697226D-04 -0.43084854D-05 -0.77705309D-05 -0.11457643D-04  0.76753720D-03
  0.24071414D-03  0.51867396D-05 -0.86157404D-04 -0.49718106D-04  0.31180624D-04
 -0.17516834D-03 -0.10110701D-03 -0.40686474D-05 -0.38675661D-04 -0.22311086D-04
  0.38958755D-04  0.22124037D-04 -0.43008405D-04  0.20884369D-04  0.11270357D-03
 -0.66718029D-04 -0.38445878D-04 -0.11513445D-04 -0.10108444D-04  0.21621889D-04
 -0.24105317D-05  0.30612523D-04  0.17690216D-04 -0.15439787D+00 -0.28886194D+00
 -0.49908937D+00 -0.80908250D+00 -0.12286694D+01 -0.17077349D+01 -0.20303659D+01
 -0.18087205D+01 -0.89824886D+00 -0.14461047D+00 -0.15257258D-02 -0.72189731D-03
 -0.24081286D-01 -0.83918460D-01 -0.30220396D+00 -0.66617102D+00 -0.93775379D+00
  0.44733912D-01  0.12272137D+01  0.72564377D+00 -0.15536354D-04 -0.18818318D-03
 -0.39243619D-03 -0.11254387D-02 -0.58442463D-04  0.48534374D-02  0.12540350D-01
 -0.10217287D-01  0.46534729D-01 -0.36401422D-03 -0.12788976D-03  0.10633024D-02
  0.14006180D-02  0.15451009D-02  0.12833273D-02  0.68148239D-03  0.17582602D-03
  0.26185061D-02  0.34491850D-02  0.38049910D-02  0.31603429D-02  0.16782298D-02
  0.43299206D-03  0.59620126D+01  0.78533653D+01  0.86634912D+01  0.71957078D+01
  0.38211205D+01  0.98586906D+00 -0.37835429D-07  0.36576859D-06  0.51577189D-06
  0.73769024D-06 -0.37355595D-08 -0.67653153D-06 -0.93154910D-07  0.90056173D-06
  0.12698860D-05  0.18162730D-05 -0.91973507D-08 -0.16656936D-05 -0.21218949D-03
  0.20513114D-02  0.28925632D-02  0.41371306D-02 -0.20949847D-04 -0.37941390D-02
  0.74568451D-05  0.18359341D-04  0.41808727D-01 -0.87833679D-07 -0.21531883D-06
 -0.49187413D-03 -0.17673897D-08 -0.44365374D-08 -0.99439526D-05 -0.77043827D-05
 -0.77041282D-05  0.15408511D-04 -0.66785122D-10  0.82477622D-08  0.21653327D-07
 -0.11335283D-03 -0.11335292D-03  0.22670575D-03  0.77896478D-10  0.12151330D-06
  0.29661412D-06 -0.14712244D-04 -0.14712109D-04  0.29424354D-04  0.35380910D-11
  0.15854819D-07  0.38433240D-07  0.13631180D-08 -0.73492389D-05  0.50721428D-05
 -0.98532020D-08  0.22034704D-04 -0.76184011D-05  0.57638480D-08  0.13012467D-07
 -0.75980273D-05 -0.77234080D-08  0.83734089D-08  0.20945158D-05 -0.34034348D-04
  0.11537494D-07 -0.61946979D-05  0.51054471D-04 -0.36657721D-07 -0.88849502D-07
  0.51048572D-04  0.21143603D-08 -0.91663285D-03 -0.17086052D-02 -0.28964665D-02
 -0.43856420D-02 -0.54830184D-02 -0.47163791D-02 -0.18088329D-02 -0.68989541D-06
 -0.91329235D-05 -0.33172440D-04 -0.98405418D-04 -0.11339237D-03  0.13773192D-03
 -0.98173092D-04 -0.15816886D-03  0.13958750D-04  0.66251355D-06  0.64792378D-06
  0.42811063D-06  0.17685383D-05  0.17295918D-05  0.11428144D-05  0.38730835D-02
  0.37877911D-02  0.25027537D-02  0.14803477D-06  0.39994865D-06  0.87104703D-03
  0.42552942D-08  0.84251454D-08  0.21535393D-04  0.15568006D-08  0.44344595D-08
  0.95310960D-05 -0.35719182D-04 -0.35717462D-04  0.71436644D-04  0.10761188D-08
  0.36711125D-07  0.98079335D-07  0.21294237D-04  0.21293573D-04 -0.42587810D-04
 -0.47706266D-09 -0.22164503D-07 -0.57786687D-07  0.17918195D-04  0.17918133D-04
 -0.35836329D-04  0.93057411D-10 -0.17713071D-07 -0.50644990D-07 -0.96886295D-08
 -0.27118087D-05  0.46231228D-04 -0.13774478D-07  0.79978479D-05 -0.69354650D-04
  0.42840367D-07  0.13757815D-06 -0.69339033D-04 -0.98056321D-09  0.57608873D-08
  0.86991570D-06 -0.25345228D-04  0.70603867D-08 -0.25362956D-05  0.38020336D-04
 -0.24343049D-07 -0.73451467D-07  0.38015347D-04  0.29279887D-09
MO    4     MO 0.0        OCC NO =    2.0000123  ORB. ENERGY =    0.000000
  0.26311346D-01  0.49049650D-01  0.82900591D-01  0.12461505D+00  0.15306727D+00
  0.12918338D+00  0.48576323D-01 -0.16615373D-05 -0.12418962D-04 -0.46412496D-04
 -0.12948364D-03 -0.17347238D-03  0.20483853D-03  0.26308224D-02 -0.37105418D-02
 -0.52120252D-04  0.65780333D-06  0.61673244D-06  0.43915023D-06  0.16271075D-05
  0.15255167D-05  0.10862588D-05  0.37207403D-02  0.34884306D-02  0.24839704D-02
  0.22883056D-06  0.56696273D-06  0.12981535D-02 -0.76693678D-07 -0.19413588D-06
 -0.42626108D-03  0.62930387D-09  0.13410012D-08  0.34440990D-05 -0.31742821D-03
 -0.31743269D-03  0.63486090D-03 -0.58191510D-09  0.33903593D-06  0.83409782D-06
  0.10687990D-04  0.10691520D-04 -0.21379510D-04 -0.40577794D-09 -0.11817311D-07
 -0.32203583D-07 -0.17137610D-04 -0.17136602D-04  0.34274212D-04 -0.13240947D-09
  0.17703702D-07  0.45493698D-07  0.10757778D-07 -0.39201453D-04  0.16721955D-04
 -0.49080762D-07  0.11755919D-03 -0.25136240D-04  0.16807428D-07  0.45171616D-07
 -0.25029625D-04 -0.41508666D-07  0.11485153D-07  0.84574578D-04 -0.16398595D-03
  0.14045749D-06 -0.25329285D-03  0.24608905D-03 -0.17491295D-06 -0.43088650D-06
  0.24586880D-03  0.89752673D-07 -0.89564381D-04 -0.16153305D-03 -0.23818039D-03
  0.10563402D-02  0.69576983D-03  0.46348073D-05  0.85272258D-09 -0.49735523D-04
  0.40256512D-04  0.32159378D-07  0.30921850D-03 -0.41451108D-04  0.27666970D-07
  0.11258818D-03  0.75791572D-04 -0.14634971D-03  0.22789742D-04  0.12355997D-03
  0.68906379D-07  0.11441735D-06  0.14523770D-03 -0.14605574D-04 -0.21784581D-04
  0.36390155D-04 -0.13327615D-07  0.10048877D-07 -0.64430015D-04 -0.89564038D-04
 -0.16153243D-03 -0.23817948D-03  0.10563473D-02  0.69578655D-03  0.46360320D-05
 -0.43073749D-04  0.24897388D-04  0.40239258D-04  0.26777842D-03 -0.15467186D-03
 -0.41298512D-04  0.97483390D-04 -0.56258842D-04  0.75849105D-04 -0.19544881D-04
 -0.10409905D-03  0.12364394D-03 -0.14640511D-03  0.12581213D-03 -0.72368419D-04
 -0.19978072D-04 -0.16379124D-04  0.36357195D-04  0.61755961D-05 -0.55819020D-04
  0.32291471D-04 -0.89564331D-04 -0.16153296D-03 -0.23818025D-03  0.10563491D-02
  0.69579351D-03  0.46358617D-05  0.43094006D-04  0.24886168D-04  0.40224875D-04
 -0.26783165D-03 -0.15460342D-03 -0.41203018D-04 -0.97471525D-04 -0.56234326D-04
  0.75884208D-04 -0.19551563D-04 -0.10413590D-03  0.12368746D-03  0.14633700D-03
 -0.12573002D-03 -0.72389159D-04 -0.19959894D-04 -0.16377780D-04  0.36337674D-04
 -0.61621739D-05  0.55867997D-04  0.32279724D-04  0.91638991D-01  0.17144677D+00
  0.29622200D+00  0.48021066D+00  0.72924597D+00  0.10135833D+01  0.12050729D+01
  0.10735208D+01  0.53313312D+00  0.85829922D-01  0.90555637D-03  0.42908433D-03
  0.14313535D-01  0.49879803D-01  0.17962525D+00  0.39596151D+00  0.55738601D+00
 -0.26589129D-01 -0.72943638D+00 -0.43131117D+00  0.62857841D-05  0.76136195D-04
  0.15877401D-03  0.45533621D-03  0.23644976D-04 -0.19636306D-02 -0.50736443D-02
  0.41337666D-02 -0.28656888D-01  0.14526905D-02 -0.17407194D-03  0.17718219D-02
  0.23339040D-02  0.25746614D-02  0.21384579D-02  0.11355805D-02  0.29298570D-03
  0.43313970D-02  0.57054631D-02  0.62940189D-02  0.52276755D-02  0.27760408D-02
  0.71623303D-03  0.99034588D+01  0.13045172D+02  0.14390867D+02  0.11952742D+02
  0.63472375D+01  0.16376204D+01 -0.60410550D-07  0.58401033D-06  0.82351553D-06
  0.11778451D-05 -0.59644415D-08 -0.10801950D-05 -0.14759449D-06  0.14268486D-05
  0.20120054D-05  0.28777000D-05 -0.14572268D-07 -0.26391223D-05 -0.33776776D-03
  0.32653213D-02  0.46044439D-02  0.65855729D-02 -0.33348414D-04 -0.60395914D-02
  0.12974089D-04  0.31715082D-04  0.72520984D-01 -0.56675181D-07 -0.14099233D-06
 -0.31925817D-03 -0.71709554D-09 -0.19429908D-08 -0.41179616D-05  0.45793315D-03
  0.45793359D-03 -0.91586675D-03 -0.30990260D-09 -0.49132168D-06 -0.11978103D-05
 -0.31419967D-03 -0.31420003D-03  0.62839969D-03  0.17232358D-09  0.33682387D-06
  0.82225760D-06  0.34791110D-05  0.34793048D-05 -0.69584158D-05 -0.30444151D-10
 -0.38757024D-08 -0.83727260D-08  0.18368674D-07 -0.14812046D-04 -0.47694294D-04
 -0.42951954D-08  0.44560345D-04  0.71521550D-04 -0.50810826D-07 -0.12420579D-06
  0.71561333D-04 -0.16198895D-07  0.15456486D-07  0.42654149D-05 -0.63649955D-04
  0.21905652D-07 -0.12629372D-04  0.95480562D-04 -0.68275111D-07 -0.16687303D-06
  0.95469302D-04  0.45439774D-08 -0.65035453D-02 -0.12122620D-01 -0.20550541D-01