 Entering Gaussian System, Link 0=/home/bruns/programas/chemistry/gaussian/g09/g09
 Input=GAUSSIAN.com
 Output=GAUSSIAN.log
 Initial command:
 /home/bruns/programas/chemistry/gaussian/g09/l1.exe /home/bruns/programas/chemistry/gaussian/work/Gau-81678.inp -scrdir=/home/bruns/programas/chemistry/gaussian/work/
 Entering Link 1 = /home/bruns/programas/chemistry/gaussian/g09/l1.exe PID=     81680.
  
 Copyright (c) 1988,1990,1992,1993,1995,1998,2003,2009,2010,
            Gaussian, Inc.  All Rights Reserved.
  
 This is part of the Gaussian(R) 09 program.  It is based on
 the Gaussian(R) 03 system (copyright 2003, Gaussian, Inc.),
 the Gaussian(R) 98 system (copyright 1998, Gaussian, Inc.),
 the Gaussian(R) 94 system (copyright 1995, Gaussian, Inc.),
 the Gaussian 92(TM) system (copyright 1992, Gaussian, Inc.),
 the Gaussian 90(TM) system (copyright 1990, Gaussian, Inc.),
 the Gaussian 88(TM) system (copyright 1988, Gaussian, Inc.),
 the Gaussian 86(TM) system (copyright 1986, Carnegie Mellon
 University), and the Gaussian 82(TM) system (copyright 1983,
 Carnegie Mellon University). Gaussian is a federally registered
 trademark of Gaussian, Inc.
  
 This software contains proprietary and confidential information,
 including trade secrets, belonging to Gaussian, Inc.
  
 This software is provided under written license and may be
 used, copied, transmitted, or stored only in accord with that
 written license.
  
 The following legend is applicable only to US Government
 contracts under FAR:
  
                    RESTRICTED RIGHTS LEGEND
  
 Use, reproduction and disclosure by the US Government is
 subject to restrictions as set forth in subparagraphs (a)
 and (c) of the Commercial Computer Software - Restricted
 Rights clause in FAR 52.227-19.
  
 Gaussian, Inc.
 340 Quinnipiac St., Bldg. 40, Wallingford CT 06492
  
  
 ---------------------------------------------------------------
 Warning -- This program may not be used in any manner that
 competes with the business of Gaussian, Inc. or will provide
 assistance to any competitor of Gaussian, Inc.  The licensee
 of this program is prohibited from giving any competitor of
 Gaussian, Inc. access to this program.  By using this program,
 the user acknowledges that Gaussian, Inc. is engaged in the
 business of creating and licensing software in the field of
 computational chemistry and represents and warrants to the
 licensee that it is not a competitor of Gaussian, Inc. and that
 it will not use this program in any manner prohibited above.
 ---------------------------------------------------------------
  

 Cite this work as:
 Gaussian 09, Revision B.01,
 M. J. Frisch, G. W. Trucks, H. B. Schlegel, G. E. Scuseria, 
 M. A. Robb, J. R. Cheeseman, G. Scalmani, V. Barone, B. Mennucci, 
 G. A. Petersson, H. Nakatsuji, M. Caricato, X. Li, H. P. Hratchian, 
 A. F. Izmaylov, J. Bloino, G. Zheng, J. L. Sonnenberg, M. Hada, 
 M. Ehara, K. Toyota, R. Fukuda, J. Hasegawa, M. Ishida, T. Nakajima, 
 Y. Honda, O. Kitao, H. Nakai, T. Vreven, J. A. Montgomery, Jr., 
 J. E. Peralta, F. Ogliaro, M. Bearpark, J. J. Heyd, E. Brothers, 
 K. N. Kudin, V. N. Staroverov, T. Keith, R. Kobayashi, J. Normand, 
 K. Raghavachari, A. Rendell, J. C. Burant, S. S. Iyengar, J. Tomasi, 
 M. Cossi, N. Rega, J. M. Millam, M. Klene, J. E. Knox, J. B. Cross, 
 V. Bakken, C. Adamo, J. Jaramillo, R. Gomperts, R. E. Stratmann, 
 O. Yazyev, A. J. Austin, R. Cammi, C. Pomelli, J. W. Ochterski, 
 R. L. Martin, K. Morokuma, V. G. Zakrzewski, G. A. Voth, 
 P. Salvador, J. J. Dannenberg, S. Dapprich, A. D. Daniels, 
 O. Farkas, J. B. Foresman, J. V. Ortiz, J. Cioslowski, 
 and D. J. Fox, Gaussian, Inc., Wallingford CT, 2010.
 
 ******************************************
 Gaussian 09:  EM64L-G09RevB.01 12-Aug-2010
                24-Aug-2020 
 ******************************************
 %nproc=8
 Will use up to    8 processors via shared memory.
 %mem=8GB
 -----------------------------------------------------
 # QCISD aug-cc-pvtz nosymm density=current output=wfn
 -----------------------------------------------------
 1/30=1,38=1/1;
 2/12=2,15=1,17=6,18=5,40=1/2;
 3/5=16,6=1,7=10,11=9,16=1,25=1,30=1,71=1/1,2,3;
 4//1;
 5/5=2,38=5/2;
 8/6=4,9=120000,10=1/1,4;
 9/5=8,15=1/13;
 11/28=-7,31=1,32=3,42=3/11;
 10/5=6,13=10,31=1/2;
 6/7=2,8=2,9=2,10=2,22=-1,31=1/1;
 99/5=1,6=1100,9=1/99;
 ----------------------
 clch3f_ts-wavefunction
 ----------------------
 Symbolic Z-matrix:
 Charge = -1 Multiplicity = 1
 C                     0.00018   0.00003  -0.49771 
 H                     0.00002  -1.05257  -0.62073 
 H                    -0.91131   0.52637  -0.62125 
 H                     0.91175   0.51613  -0.62157 
 Cl                    0.00056   0.00096   1.64472 
 F                    -0.00019  -0.00092  -2.59347 
 
                          Input orientation:                          
 ---------------------------------------------------------------------
 Center     Atomic      Atomic             Coordinates (Angstroms)
 Number     Number       Type             X           Y           Z
 ---------------------------------------------------------------------
      1          6           0        0.000175    0.000029   -0.497709
      2          1           0        0.000019   -1.052570   -0.620726
      3          1           0       -0.911312    0.526365   -0.621245
      4          1           0        0.911750    0.516132   -0.621570
      5         17           0        0.000555    0.000962    1.644718
      6          9           0       -0.000186   -0.000921   -2.593468
 ---------------------------------------------------------------------
                    Distance matrix (angstroms):
                    1          2          3          4          5
     1  C    0.000000
     2  H    1.059763   0.000000
     3  H    1.059764   1.823063   0.000000
     4  H    1.054833   1.814409   1.823091   0.000000
     5  Cl   2.142427   2.498433   2.498427   2.496345   0.000000
     6  F    2.095759   2.235548   2.235586   2.233238   4.238186
                    6
     6  F    0.000000
 Symmetry turned off by external request.
 Stoichiometry    CH3ClF(1-)
 Framework group  C1[X(CH3ClF)]
 Deg. of freedom    12
 Full point group                 C1      NOp   1
 Rotational constants (GHZ):    151.3538203      2.2148759      2.2146704
 Standard basis: Aug-CC-pVTZ (5D, 7F)
 Integral buffers will be    131072 words long.
 Raffenetti 1 integral format.
 Two-electron integral symmetry is turned off.
   211 basis functions,   339 primitive gaussians,   244 cartesian basis functions
    18 alpha electrons       18 beta electrons
       nuclear repulsion energy        85.0048914994 Hartrees.
 NAtoms=    6 NActive=    6 NUniq=    6 SFac= 1.00D+00 NAtFMM=   50 NAOKFM=F Big=F
 One-electron integrals computed using PRISM.
 NBasis=   211 RedAO= T  NBF=   211
 NBsUse=   211 1.00D-06 NBFU=   211
 Harris functional with IExCor=  205 diagonalized for initial guess.
 ExpMin= 2.53D-02 ExpMax= 4.56D+05 ExpMxC= 1.44D+03 IAcc=3 IRadAn=         0 AccDes= 0.00D+00
 HarFok:  IExCor=  205 AccDes= 0.00D+00 IRadAn=         0 IDoV= 1
 ScaDFX=  1.000000  1.000000  1.000000  1.000000
 FoFCou: FMM=F IPFlag=           0 FMFlag=      100000 FMFlg1=           0
         NFxFlg=           0 DoJE=T BraDBF=F KetDBF=T FulRan=T
         Omega=  0.000000  0.000000  1.000000  0.000000  0.000000 ICntrl=     500 IOpCl=  0
         NMat0=    1 NMatS0=    1 NMatT0=    0 NMatD0=    1 NMtDS0=    0 NMtDT0=    0
         I1Cent=           4 NGrid=           0.
 Symmetry not used in FoFCou.
 Requested convergence on RMS density matrix=1.00D-08 within 128 cycles.
 Requested convergence on MAX density matrix=1.00D-06.
 Requested convergence on             energy=1.00D-06.
 No special actions if energy rises.
 Keep R1 ints in memory in canonical form, NReq=454274131.
 SCF Done:  E(RHF) =  -598.617098234     A.U. after   12 cycles
             Convg  =    0.9438D-08             -V/T =  2.0001
 ExpMin= 2.53D-02 ExpMax= 4.56D+05 ExpMxC= 1.44D+03 IAcc=3 IRadAn=         5 AccDes= 0.00D+00
 HarFok:  IExCor=  205 AccDes= 0.00D+00 IRadAn=         5 IDoV=-2
 ScaDFX=  1.000000  1.000000  1.000000  1.000000
 DSYEVD returned Info=          93 IAlg= 4 N=    46 NDim=    46 NE2=    21472034 trying DSYEV.
 Range of M.O.s used for correlation:     8   211
 NBasis=   211 NAE=    18 NBE=    18 NFC=     7 NFV=     0
 NROrb=    204 NOA=    11 NOB=    11 NVA=   193 NVB=   193

 **** Warning!!: The largest alpha MO coefficient is  0.35153982D+02

 Semi-Direct transformation.
 ModeAB=           2 MOrb=            11 LenV=    1072528222
 LASXX=     44979418 LTotXX=    44979418 LenRXX=    44979418
 LTotAB=    45631872 MaxLAS=    67073160 LenRXY=    67073160
 NonZer=    89958836 LenScr=   135708672 LnRSAI=           0
 LnScr1=           0 LExtra=           0 Total=    247761250
 MaxDsk=          -1 SrtSym=           F ITran=            4
 JobTyp=0 Pass  1:  I=   1 to  11.
 (rs|ai) integrals will be sorted in core.
 Spin components of T(2) and E(2):
     alpha-alpha T2 =       0.2566387146D-01 E2=     -0.8207407856D-01
     alpha-beta  T2 =       0.1451768212D+00 E2=     -0.5099210682D+00
     beta-beta   T2 =       0.2566387146D-01 E2=     -0.8207407856D-01
 ANorm=    0.1093848511D+01
 E2 =    -0.6740692253D+00 EUMP2 =    -0.59929116745940D+03
 R2 and R3 integrals will be kept in memory, NReq=   900794930.
 Iterations=  50 Convergence= 0.100D-07
 Iteration Nr.   1
 **********************
 DD1Dir will call FoFMem   1 times, MxPair=       132
 NAB=    66 NAA=     0 NBB=     0.
 MP4(R+Q)=  0.14432003D-01
 E3=       -0.18707118D-01        EUMP3=      -0.59930987458D+03
 E4(DQ)=   -0.44859845D-03        UMP4(DQ)=   -0.59931032318D+03
 E4(SDQ)=  -0.98089637D-02        UMP4(SDQ)=  -0.59931968354D+03
 DE(Corr)= -0.67834434     E(Corr)=     -599.29544257    
 NORM(A)=   0.10996345D+01
 Iteration Nr.   2
 **********************
 DD1Dir will call FoFMem   1 times, MxPair=       132
 NAB=    66 NAA=     0 NBB=     0.
 DE(Corr)= -0.70053051     E(CORR)=     -599.31762874     Delta=-2.22D-02
 NORM(A)=   0.11069809D+01
 Iteration Nr.   3
 **********************
 DD1Dir will call FoFMem   1 times, MxPair=       132
 NAB=    66 NAA=     0 NBB=     0.
 DE(Corr)= -0.69813388     E(CORR)=     -599.31523211     Delta= 2.40D-03
 NORM(A)=   0.11109624D+01
 Iteration Nr.   4
 **********************
 DD1Dir will call FoFMem   1 times, MxPair=       132
 NAB=    66 NAA=     0 NBB=     0.
 DE(Corr)= -0.70119021     E(CORR)=     -599.31828845     Delta=-3.06D-03
 NORM(A)=   0.11130660D+01
 Iteration Nr.   5
 **********************
 DD1Dir will call FoFMem   1 times, MxPair=       132
 NAB=    66 NAA=     0 NBB=     0.
 DE(Corr)= -0.70178499     E(CORR)=     -599.31888322     Delta=-5.95D-04
 NORM(A)=   0.11140966D+01
 Iteration Nr.   6
 **********************
 DD1Dir will call FoFMem   1 times, MxPair=       132
 NAB=    66 NAA=     0 NBB=     0.
 DE(Corr)= -0.70193169     E(CORR)=     -599.31902993     Delta=-1.47D-04
 NORM(A)=   0.11144220D+01
 Iteration Nr.   7
 **********************
 DD1Dir will call FoFMem   1 times, MxPair=       132
 NAB=    66 NAA=     0 NBB=     0.
 DE(Corr)= -0.70196136     E(CORR)=     -599.31905960     Delta=-2.97D-05
 NORM(A)=   0.11144529D+01
 Iteration Nr.   8
 **********************
 DD1Dir will call FoFMem   1 times, MxPair=       132
 NAB=    66 NAA=     0 NBB=     0.
 DE(Corr)= -0.70197523     E(CORR)=     -599.31907346     Delta=-1.39D-05
 NORM(A)=   0.11144707D+01
 Iteration Nr.   9
 **********************
 DD1Dir will call FoFMem   1 times, MxPair=       132
 NAB=    66 NAA=     0 NBB=     0.
 DE(Corr)= -0.70195204     E(CORR)=     -599.31905027     Delta= 2.32D-05
 NORM(A)=   0.11144739D+01
 Iteration Nr.  10
 **********************
 DD1Dir will call FoFMem   1 times, MxPair=       132
 NAB=    66 NAA=     0 NBB=     0.
 DE(Corr)= -0.70197132     E(CORR)=     -599.31906956     Delta=-1.93D-05
 NORM(A)=   0.11144741D+01
 Iteration Nr.  11
 **********************
 DD1Dir will call FoFMem   1 times, MxPair=       132
 NAB=    66 NAA=     0 NBB=     0.
 DE(Corr)= -0.70196214     E(CORR)=     -599.31906038     Delta= 9.18D-06
 NORM(A)=   0.11144770D+01
 Iteration Nr.  12
 **********************
 DD1Dir will call FoFMem   1 times, MxPair=       132
 NAB=    66 NAA=     0 NBB=     0.
 DE(Corr)= -0.70196589     E(CORR)=     -599.31906412     Delta=-3.75D-06
 NORM(A)=   0.11144774D+01
 Iteration Nr.  13
 **********************
 DD1Dir will call FoFMem   1 times, MxPair=       132
 NAB=    66 NAA=     0 NBB=     0.
 DE(Corr)= -0.70196645     E(CORR)=     -599.31906469     Delta=-5.65D-07
 NORM(A)=   0.11144781D+01
 Iteration Nr.  14
 **********************
 DD1Dir will call FoFMem   1 times, MxPair=       132
 NAB=    66 NAA=     0 NBB=     0.
 DE(Corr)= -0.70196668     E(CORR)=     -599.31906491     Delta=-2.23D-07
 NORM(A)=   0.11144782D+01
 Iteration Nr.  15
 **********************
 DD1Dir will call FoFMem   1 times, MxPair=       132
 NAB=    66 NAA=     0 NBB=     0.
 DE(Corr)= -0.70196659     E(CORR)=     -599.31906482     Delta= 9.03D-08
 NORM(A)=   0.11144782D+01
 Iteration Nr.  16
 **********************
 DD1Dir will call FoFMem   1 times, MxPair=       132
 NAB=    66 NAA=     0 NBB=     0.
 DE(Corr)= -0.70196679     E(CORR)=     -599.31906502     Delta=-2.02D-07
 NORM(A)=   0.11144780D+01
 Iteration Nr.  17
 **********************
 DD1Dir will call FoFMem   1 times, MxPair=       132
 NAB=    66 NAA=     0 NBB=     0.
 DE(Corr)= -0.70196666     E(CORR)=     -599.31906489     Delta= 1.30D-07
 NORM(A)=   0.11144779D+01
 Iteration Nr.  18
 **********************
 DD1Dir will call FoFMem   1 times, MxPair=       132
 NAB=    66 NAA=     0 NBB=     0.
 DE(Corr)= -0.70196670     E(CORR)=     -599.31906493     Delta=-3.65D-08
 NORM(A)=   0.11144778D+01
 Iteration Nr.  19
 **********************
 DD1Dir will call FoFMem   1 times, MxPair=       132
 NAB=    66 NAA=     0 NBB=     0.
 DE(Corr)= -0.70196664     E(CORR)=     -599.31906488     Delta= 5.24D-08
 NORM(A)=   0.11144777D+01
 Iteration Nr.  20
 **********************
 DD1Dir will call FoFMem   1 times, MxPair=       132
 NAB=    66 NAA=     0 NBB=     0.
 DE(Corr)= -0.70196665     E(CORR)=     -599.31906488     Delta=-2.46D-09
 NORM(A)=   0.11144776D+01
 Iteration Nr.  21
 **********************
 DD1Dir will call FoFMem   1 times, MxPair=       132
 NAB=    66 NAA=     0 NBB=     0.
 DE(Corr)= -0.70196663     E(CORR)=     -599.31906486     Delta= 1.86D-08
 NORM(A)=   0.11144776D+01
 Iteration Nr.  22
 **********************
 DD1Dir will call FoFMem   1 times, MxPair=       132
 NAB=    66 NAA=     0 NBB=     0.
 DE(Corr)= -0.70196662     E(CORR)=     -599.31906486     Delta= 4.16D-09
 NORM(A)=   0.11144776D+01
 Iteration Nr.  23
 **********************
 DD1Dir will call FoFMem   1 times, MxPair=       132
 NAB=    66 NAA=     0 NBB=     0.
 DE(Corr)= -0.70196662     E(CORR)=     -599.31906485     Delta= 4.88D-09
 NORM(A)=   0.11144775D+01
 Iteration Nr.  24
 **********************
 DD1Dir will call FoFMem   1 times, MxPair=       132
 NAB=    66 NAA=     0 NBB=     0.
 DE(Corr)= -0.70196662     E(CORR)=     -599.31906485     Delta=-2.01D-09
 NORM(A)=   0.11144775D+01
 Iteration Nr.  25
 **********************
 DD1Dir will call FoFMem   1 times, MxPair=       132
 NAB=    66 NAA=     0 NBB=     0.
 DE(Corr)= -0.70196662     E(CORR)=     -599.31906485     Delta= 4.99D-09
 NORM(A)=   0.11144775D+01
 Iteration Nr.  26
 **********************
 DD1Dir will call FoFMem   1 times, MxPair=       132
 NAB=    66 NAA=     0 NBB=     0.
 DE(Corr)= -0.70196662     E(CORR)=     -599.31906485     Delta=-4.82D-09
 NORM(A)=   0.11144775D+01
 Iteration Nr.  27
 **********************
 DD1Dir will call FoFMem   1 times, MxPair=       132
 NAB=    66 NAA=     0 NBB=     0.
 DE(Corr)= -0.70196666     E(CORR)=     -599.31906489     Delta=-3.54D-08
 NORM(A)=   0.11144775D+01
 Iteration Nr.  28
 **********************
 DD1Dir will call FoFMem   1 times, MxPair=       132
 NAB=    66 NAA=     0 NBB=     0.
 DE(Corr)= -0.70196663     E(CORR)=     -599.31906486     Delta= 2.59D-08
 NORM(A)=   0.11144775D+01
 Iteration Nr.  29
 **********************
 DD1Dir will call FoFMem   1 times, MxPair=       132
 NAB=    66 NAA=     0 NBB=     0.
 DE(Corr)= -0.70196662     E(CORR)=     -599.31906485     Delta= 1.24D-08
 NORM(A)=   0.11144775D+01
 Iteration Nr.  30
 **********************
 DD1Dir will call FoFMem   1 times, MxPair=       132
 NAB=    66 NAA=     0 NBB=     0.
 DE(Corr)= -0.70196662     E(CORR)=     -599.31906485     Delta=-8.72D-10
 NORM(A)=   0.11144775D+01
 Largest amplitude= 6.61D-02

 Z-AMPLITUDE ITERATIONS

 Iteration Nr.   1
 **********************
 DD1Dir will call FoFMem   1 times, MxPair=       132
 NAB=    66 NAA=     0 NBB=     0.
 DE(Z)  -0.68258557D+00          E(Z)=    -0.59929968380D+03
 NORM(A)=   0.11138049D+01
 Iteration Nr.   2
 **********************
 DD1Dir will call FoFMem   1 times, MxPair=       132
 NAB=    66 NAA=     0 NBB=     0.
 DE(Z)  -0.68251157D+00          E(Z)=    -0.59929960980D+03
 NORM(A)=   0.11155280D+01
 Iteration Nr.   3
 **********************
 DD1Dir will call FoFMem   1 times, MxPair=       132
 NAB=    66 NAA=     0 NBB=     0.
 DE(Z)  -0.68268520D+00          E(Z)=    -0.59929978344D+03
 NORM(A)=   0.11131219D+01
 Iteration Nr.   4
 **********************
 DD1Dir will call FoFMem   1 times, MxPair=       132
 NAB=    66 NAA=     0 NBB=     0.
 DE(Z)  -0.68244953D+00          E(Z)=    -0.59929954777D+03
 NORM(A)=   0.11163730D+01
 Iteration Nr.   5
 **********************
 DD1Dir will call FoFMem   1 times, MxPair=       132
 NAB=    66 NAA=     0 NBB=     0.
 DE(Z)  -0.68276956D+00          E(Z)=    -0.59929986779D+03
 NORM(A)=   0.11078281D+01
 Iteration Nr.   6
 **********************
 DD1Dir will call FoFMem   1 times, MxPair=       132
 NAB=    66 NAA=     0 NBB=     0.
 DE(Z)  -0.68191678D+00          E(Z)=    -0.59929901502D+03
 NORM(A)=   0.11078213D+01
 Iteration Nr.   7
 **********************
 DD1Dir will call FoFMem   1 times, MxPair=       132
 NAB=    66 NAA=     0 NBB=     0.
 DE(Z)  -0.68191965D+00          E(Z)=    -0.59929901789D+03
 NORM(A)=   0.11078180D+01
 Iteration Nr.   8
 **********************
 DD1Dir will call FoFMem   1 times, MxPair=       132
 NAB=    66 NAA=     0 NBB=     0.
 DE(Z)  -0.68191679D+00          E(Z)=    -0.59929901502D+03
 NORM(A)=   0.11078143D+01
 Iteration Nr.   9
 **********************
 DD1Dir will call FoFMem   1 times, MxPair=       132
 NAB=    66 NAA=     0 NBB=     0.
 DE(Z)  -0.68191731D+00          E(Z)=    -0.59929901555D+03
 NORM(A)=   0.11078130D+01
 Iteration Nr.  10
 **********************
 DD1Dir will call FoFMem   1 times, MxPair=       132
 NAB=    66 NAA=     0 NBB=     0.
 DE(Z)  -0.68191700D+00          E(Z)=    -0.59929901524D+03
 NORM(A)=   0.11078126D+01
 Iteration Nr.  11
 **********************
 DD1Dir will call FoFMem   1 times, MxPair=       132
 NAB=    66 NAA=     0 NBB=     0.
 DE(Z)  -0.68191705D+00          E(Z)=    -0.59929901528D+03
 NORM(A)=   0.11078125D+01
 Iteration Nr.  12
 **********************
 DD1Dir will call FoFMem   1 times, MxPair=       132
 NAB=    66 NAA=     0 NBB=     0.
 DE(Z)  -0.68191709D+00          E(Z)=    -0.59929901532D+03
 NORM(A)=   0.11078126D+01
 Iteration Nr.  13
 **********************
 DD1Dir will call FoFMem   1 times, MxPair=       132
 NAB=    66 NAA=     0 NBB=     0.
 DE(Z)  -0.68191710D+00          E(Z)=    -0.59929901534D+03
 NORM(A)=   0.11078126D+01
 Iteration Nr.  14
 **********************
 DD1Dir will call FoFMem   1 times, MxPair=       132
 NAB=    66 NAA=     0 NBB=     0.
 DE(Z)  -0.68191709D+00          E(Z)=    -0.59929901533D+03
 NORM(A)=   0.11078126D+01
 Iteration Nr.  15
 **********************
 DD1Dir will call FoFMem   1 times, MxPair=       132
 NAB=    66 NAA=     0 NBB=     0.
 DE(Z)  -0.68191712D+00          E(Z)=    -0.59929901535D+03
 NORM(A)=   0.11078126D+01
 Iteration Nr.  16
 **********************
 DD1Dir will call FoFMem   1 times, MxPair=       132
 NAB=    66 NAA=     0 NBB=     0.
 DE(Z)  -0.68191710D+00          E(Z)=    -0.59929901533D+03
 NORM(A)=   0.11078126D+01
 Iteration Nr.  17
 **********************
 DD1Dir will call FoFMem   1 times, MxPair=       132
 NAB=    66 NAA=     0 NBB=     0.
 DE(Z)  -0.68191711D+00          E(Z)=    -0.59929901535D+03
 NORM(A)=   0.11078126D+01
 Iteration Nr.  18
 **********************
 DD1Dir will call FoFMem   1 times, MxPair=       132
 NAB=    66 NAA=     0 NBB=     0.
 DE(Z)  -0.68191711D+00          E(Z)=    -0.59929901535D+03
 NORM(A)=   0.11078126D+01
 Iteration Nr.  19
 **********************
 DD1Dir will call FoFMem   1 times, MxPair=       132
 NAB=    66 NAA=     0 NBB=     0.
 DE(Z)  -0.68191711D+00          E(Z)=    -0.59929901535D+03
 NORM(A)=   0.11078126D+01
 Iteration Nr.  20
 **********************
 DD1Dir will call FoFMem   1 times, MxPair=       132
 NAB=    66 NAA=     0 NBB=     0.
 DE(Z)  -0.68191711D+00          E(Z)=    -0.59929901534D+03
 NORM(A)=   0.11078126D+01
 Iteration Nr.  21
 **********************
 DD1Dir will call FoFMem   1 times, MxPair=       132
 NAB=    66 NAA=     0 NBB=     0.
 DE(Z)  -0.68191711D+00          E(Z)=    -0.59929901535D+03
 NORM(A)=   0.11078126D+01
 Iteration Nr.  22
 **********************
 DD1Dir will call FoFMem   1 times, MxPair=       132
 NAB=    66 NAA=     0 NBB=     0.
 DE(Z)  -0.68191711D+00          E(Z)=    -0.59929901534D+03
 NORM(A)=   0.11078126D+01
 Discarding MO integrals.
          Differentiating once with respect to electric field.
                with respect to dipole field.
          Electric field/nuclear overlap derivatives assumed to be zero.
          Keep R1 ints in memory in canonical form, NReq=448662239.
          There are     1 degrees of freedom in the 1st order CPHF.  IDoFFX=0.
 LinEq1:  Iter=  0 NonCon=     1 RMS=3.11D-03 Max=1.20D-01
 AX will form     1 AO Fock derivatives at one time.
 LinEq1:  Iter=  1 NonCon=     1 RMS=6.93D-04 Max=9.16D-03
 LinEq1:  Iter=  2 NonCon=     1 RMS=2.29D-04 Max=5.71D-03
 LinEq1:  Iter=  3 NonCon=     1 RMS=9.49D-05 Max=1.42D-03
 LinEq1:  Iter=  4 NonCon=     1 RMS=3.83D-05 Max=4.08D-04
 LinEq1:  Iter=  5 NonCon=     1 RMS=1.06D-05 Max=2.26D-04
 LinEq1:  Iter=  6 NonCon=     1 RMS=2.41D-06 Max=4.24D-05
 LinEq1:  Iter=  7 NonCon=     1 RMS=6.04D-07 Max=9.13D-06
 LinEq1:  Iter=  8 NonCon=     1 RMS=1.49D-07 Max=1.80D-06
 LinEq1:  Iter=  9 NonCon=     1 RMS=3.03D-08 Max=7.45D-07
 LinEq1:  Iter= 10 NonCon=     1 RMS=6.52D-09 Max=8.70D-08
 LinEq1:  Iter= 11 NonCon=     1 RMS=1.05D-09 Max=1.16D-08
 LinEq1:  Iter= 12 NonCon=     1 RMS=1.68D-10 Max=2.85D-09
 LinEq1:  Iter= 13 NonCon=     0 RMS=2.40D-11 Max=3.20D-10
 Linear equations converged to 1.000D-10 1.000D-09 after    13 iterations.
 End of Minotr Frequency-dependent properties file   721 does not exist.
 End of Minotr Frequency-dependent properties file   722 does not exist.

 **********************************************************************

            Population analysis using the QCI/CC density.

 **********************************************************************

     Natural Orbital Coefficients:
                           1         2         3         4         5
     Eigenvalues --     2.00003   2.00003   2.00002   2.00001   2.00001
   1 1   C  1S          0.00003  -0.00004  -0.04326   0.08089   0.97615
   2        2S          0.00000   0.00000   0.00131   0.00049  -0.01332
   3        3S          0.00001   0.00000  -0.00132   0.00402   0.03986
   4        4S         -0.00010   0.00015  -0.01267  -0.02367   0.00306
   5        5S         -0.00001   0.00001  -0.00120  -0.00063  -0.00063
   6        6PX         0.00000   0.00005   0.00000   0.00000  -0.00002
   7        6PY         0.00005   0.00000   0.00000   0.00000  -0.00001
   8        6PZ         0.00000   0.00000   0.00053   0.00168   0.00087
   9        7PX         0.00002   0.00087  -0.00002  -0.00002   0.00005
  10        7PY         0.00084  -0.00002   0.00000  -0.00001  -0.00001
  11        7PZ         0.00000   0.00000   0.00142   0.00305  -0.00092
  12        8PX         0.00012   0.00460  -0.00004  -0.00007   0.00006
  13        8PY         0.00455  -0.00012   0.00002   0.00001  -0.00002
  14        8PZ         0.00000  -0.00001  -0.00374  -0.00411  -0.00308
  15        9PX         0.00001   0.00042   0.00000   0.00000   0.00000
  16        9PY         0.00043  -0.00001   0.00000   0.00000   0.00000
  17        9PZ         0.00000   0.00000   0.00021   0.00017  -0.00049
  18       10D 0        0.00000   0.00000   0.00011   0.00033  -0.00058
  19       10D+1        0.00000  -0.00015   0.00000   0.00000   0.00000
  20       10D-1       -0.00015   0.00000   0.00000   0.00000   0.00000
  21       10D+2        0.00004   0.00000   0.00000   0.00000   0.00001
  22       10D-2        0.00000   0.00004   0.00000   0.00000   0.00000
  23       11D 0        0.00001  -0.00001   0.00021  -0.00009  -0.00028
  24       11D+1        0.00001   0.00026   0.00000   0.00001  -0.00001
  25       11D-1        0.00026   0.00000   0.00000   0.00000   0.00000
  26       11D+2        0.00101  -0.00002  -0.00001  -0.00002  -0.00001
  27       11D-2        0.00002   0.00102  -0.00001  -0.00001   0.00003
  28       12D 0       -0.00002   0.00002  -0.00078   0.00122  -0.00237
  29       12D+1       -0.00003  -0.00131  -0.00001  -0.00001   0.00001
  30       12D-1       -0.00130   0.00004   0.00001   0.00001  -0.00001
  31       12D+2        0.00162  -0.00003   0.00001  -0.00001  -0.00001
  32       12D-2        0.00002   0.00163  -0.00001  -0.00001   0.00002
  33       13F 0        0.00000   0.00000   0.00001   0.00003   0.00019
  34       13F+1        0.00000  -0.00019   0.00000   0.00000   0.00000
  35       13F-1       -0.00019   0.00001   0.00000   0.00000   0.00000
  36       13F+2        0.00002   0.00000   0.00000   0.00000   0.00000
  37       13F-2        0.00000   0.00002   0.00000   0.00000   0.00000
  38       13F+3        0.00000   0.00000   0.00000   0.00000   0.00001
  39       13F-3        0.00000   0.00000  -0.00006   0.00007   0.00090
  40       14F 0        0.00000   0.00000  -0.00113  -0.00215  -0.00019
  41       14F+1        0.00001   0.00058   0.00000   0.00000  -0.00001
  42       14F-1        0.00057  -0.00002   0.00000   0.00000   0.00000
  43       14F+2        0.00034  -0.00001   0.00000   0.00001   0.00000
  44       14F-2        0.00001   0.00034   0.00000   0.00000  -0.00001
  45       14F+3        0.00001   0.00001  -0.00001  -0.00001  -0.00002
  46       14F-3       -0.00002   0.00002  -0.00086  -0.00136  -0.00192
  47 2   H  1S         -0.00016   0.00000  -0.00002  -0.00035  -0.00134
  48        2S          0.00122  -0.00006   0.00244   0.00332  -0.00064
  49        3S          0.00871  -0.00021   0.00186   0.00528  -0.00433
  50        4S         -0.00026   0.00001   0.00011   0.00009  -0.00013
  51        5PX         0.00000   0.00000   0.00000   0.00000   0.00000
  52        5PY         0.00003   0.00000   0.00004  -0.00003  -0.00048
  53        5PZ         0.00001   0.00000   0.00001   0.00001  -0.00009
  54        6PX         0.00001   0.00020  -0.00001  -0.00001   0.00000
  55        6PY         0.00066  -0.00002   0.00045   0.00069  -0.00079
  56        6PZ         0.00063  -0.00001  -0.00001  -0.00010   0.00024
  57        7PX         0.00002   0.00093  -0.00001  -0.00001   0.00002
  58        7PY         0.00211  -0.00006   0.00054   0.00135  -0.00101
  59        7PZ         0.00027   0.00000   0.00048   0.00093  -0.00007
  60        8D 0        0.00004   0.00000   0.00001   0.00007   0.00014
  61        8D+1        0.00000  -0.00001   0.00000   0.00000   0.00000
  62        8D-1        0.00009   0.00000   0.00002   0.00005  -0.00004
  63        8D+2       -0.00005   0.00000  -0.00004  -0.00005   0.00028
  64        8D-2        0.00000   0.00001   0.00000   0.00000   0.00000
  65        9D 0        0.00039  -0.00001   0.00015   0.00025   0.00063
  66        9D+1        0.00000   0.00025   0.00000   0.00000   0.00000
  67        9D-1        0.00013   0.00000  -0.00014  -0.00025   0.00001
  68        9D+2       -0.00013   0.00000   0.00001   0.00003  -0.00010
  69        9D-2        0.00000   0.00012   0.00000   0.00000   0.00001
  70 3   H  1S          0.00008  -0.00014  -0.00002  -0.00035  -0.00135
  71        2S         -0.00054   0.00104   0.00243   0.00332  -0.00057
  72        3S         -0.00417   0.00768   0.00176   0.00523  -0.00424
  73        4S          0.00013  -0.00024   0.00011   0.00010  -0.00013
  74        5PX        -0.00001   0.00003   0.00004  -0.00002  -0.00042
  75        5PY         0.00001  -0.00001  -0.00002   0.00001   0.00024
  76        5PZ        -0.00001   0.00001   0.00001   0.00002  -0.00009
  77        6PX        -0.00019   0.00055   0.00039   0.00060  -0.00066
  78        6PY         0.00029  -0.00022  -0.00022  -0.00034   0.00039
  79        6PZ        -0.00030   0.00054  -0.00001  -0.00010   0.00024
  80        7PX        -0.00046   0.00183   0.00045   0.00115  -0.00086
  81        7PY         0.00119  -0.00054  -0.00026  -0.00067   0.00050
  82        7PZ        -0.00013   0.00024   0.00046   0.00091  -0.00005
  83        8D 0       -0.00002   0.00003   0.00001   0.00007   0.00014
  84        8D+1       -0.00005   0.00007   0.00002   0.00004  -0.00003
  85        8D-1        0.00001  -0.00005  -0.00001  -0.00002   0.00002
  86        8D+2       -0.00001   0.00003   0.00002   0.00003  -0.00014
  87        8D-2        0.00002  -0.00004  -0.00003  -0.00005   0.00024
  88        9D 0       -0.00018   0.00034   0.00015   0.00025   0.00063
  89        9D+1        0.00006   0.00016  -0.00012  -0.00022   0.00001
  90        9D-1        0.00022   0.00005   0.00007   0.00013   0.00000
  91        9D+2        0.00006   0.00011  -0.00001  -0.00001   0.00005
  92        9D-2        0.00010  -0.00007   0.00001   0.00002  -0.00009
  93 4   H  1S          0.00008   0.00013  -0.00002  -0.00036  -0.00137
  94        2S         -0.00059  -0.00108   0.00247   0.00338  -0.00072
  95        3S         -0.00453  -0.00755   0.00189   0.00543  -0.00444
  96        4S          0.00014   0.00023   0.00012   0.00010  -0.00013
  97        5PX         0.00001   0.00003  -0.00004   0.00002   0.00042
  98        5PY         0.00001   0.00001  -0.00002   0.00001   0.00024
  99        5PZ        -0.00001  -0.00001   0.00001   0.00002  -0.00009
 100        6PX         0.00021   0.00055  -0.00040  -0.00062   0.00073
 101        6PY         0.00031   0.00020  -0.00022  -0.00034   0.00042
 102        6PZ        -0.00033  -0.00054  -0.00001  -0.00010   0.00024
 103        7PX         0.00055   0.00183  -0.00048  -0.00120   0.00092
 104        7PY         0.00122   0.00047  -0.00026  -0.00068   0.00050
 105        7PZ        -0.00015  -0.00023   0.00048   0.00094  -0.00007
 106        8D 0       -0.00002  -0.00003   0.00001   0.00007   0.00014
 107        8D+1        0.00005   0.00007  -0.00002  -0.00004   0.00003
 108        8D-1        0.00001   0.00005  -0.00001  -0.00002   0.00002
 109        8D+2       -0.00001  -0.00003   0.00002   0.00003  -0.00014
 110        8D-2       -0.00003  -0.00003   0.00003   0.00005  -0.00024
 111        9D 0       -0.00020  -0.00034   0.00015   0.00025   0.00064
 112        9D+1       -0.00005   0.00016   0.00012   0.00022  -0.00001
 113        9D-1        0.00022  -0.00006   0.00007   0.00013   0.00000
 114        9D+2        0.00005  -0.00011   0.00000  -0.00001   0.00004
 115        9D-2       -0.00011  -0.00006  -0.00001  -0.00002   0.00008
 116 5   Cl 1S         -0.00001   0.00006  -0.25055   0.14807  -0.02291
 117        2S          0.00002  -0.00020   0.84574  -0.50051   0.07853
 118        3S          0.00000   0.00001  -0.02309   0.00934  -0.00239
 119        4S          0.00000  -0.00002   0.06653  -0.04078   0.00645
 120        5S          0.00002   0.00000  -0.00210   0.00778   0.00351
 121        6S          0.00001  -0.00001  -0.00154  -0.00212   0.00301
 122        7PX         0.02495   0.97855   0.00015  -0.00013   0.00006
 123        7PY         0.97855  -0.02495   0.00018   0.00036  -0.00005
 124        7PZ        -0.00040   0.00005   0.50115   0.83570  -0.04763
 125        8PX        -0.00049  -0.01914   0.00000   0.00000   0.00000
 126        8PY        -0.01914   0.00049   0.00000  -0.00001   0.00000
 127        8PZ         0.00001   0.00000  -0.00879  -0.01404   0.00011
 128        9PX         0.00133   0.05232   0.00001  -0.00001   0.00000
 129        9PY         0.05231  -0.00133   0.00001   0.00002   0.00000
 130        9PZ        -0.00002   0.00000   0.02845   0.04953  -0.00270
 131       10PX        -0.00015  -0.00577   0.00000   0.00000   0.00000
 132       10PY        -0.00578   0.00015   0.00000   0.00000   0.00000
 133       10PZ        -0.00001   0.00000  -0.00435  -0.00276  -0.00347
 134       11PX        -0.00006  -0.00214   0.00000   0.00000   0.00000
 135       11PY        -0.00215   0.00005   0.00000   0.00000   0.00000
 136       11PZ         0.00000   0.00000  -0.00036  -0.00015  -0.00053
 137       12D 0        0.00000   0.00000   0.00001  -0.00051  -0.00017
 138       12D+1       -0.00001  -0.00032   0.00000   0.00000   0.00000
 139       12D-1       -0.00032   0.00001   0.00000   0.00000   0.00000
 140       12D+2        0.00001   0.00000   0.00000   0.00000   0.00000
 141       12D-2        0.00000   0.00001   0.00000   0.00000   0.00000
 142       13D 0        0.00000   0.00000   0.00088   0.00244   0.00041
 143       13D+1        0.00002   0.00081   0.00000   0.00000   0.00000
 144       13D-1        0.00081  -0.00002   0.00000   0.00000   0.00000
 145       13D+2       -0.00002   0.00000   0.00000   0.00000   0.00000
 146       13D-2        0.00000  -0.00002   0.00000   0.00000   0.00000
 147       14D 0        0.00000   0.00000   0.00058  -0.00017   0.00080
 148       14D+1       -0.00002  -0.00071   0.00000   0.00000   0.00000
 149       14D-1       -0.00071   0.00002   0.00000   0.00000   0.00000
 150       14D+2        0.00003   0.00000   0.00000   0.00000   0.00000
 151       14D-2        0.00000   0.00003   0.00000   0.00000   0.00000
 152       15F 0        0.00000   0.00000   0.00001  -0.00007  -0.00003
 153       15F+1        0.00000  -0.00001   0.00000   0.00000   0.00000
 154       15F-1       -0.00001   0.00000   0.00000   0.00000   0.00000
 155       15F+2        0.00003   0.00000   0.00000   0.00000   0.00000
 156       15F-2        0.00000   0.00003   0.00000   0.00000   0.00000
 157       15F+3        0.00000   0.00000   0.00000   0.00000   0.00000
 158       15F-3        0.00000   0.00000   0.00001   0.00003   0.00000
 159       16F 0        0.00000   0.00000  -0.00032  -0.00059  -0.00031
 160       16F+1       -0.00001  -0.00022   0.00000   0.00000   0.00000
 161       16F-1       -0.00022   0.00001   0.00000   0.00000   0.00000
 162       16F+2       -0.00003   0.00000   0.00000   0.00000   0.00000
 163       16F-2        0.00000  -0.00003   0.00000   0.00000   0.00000
 164       16F+3        0.00000   0.00000   0.00000   0.00000   0.00000
 165       16F-3        0.00000   0.00000  -0.00002  -0.00005   0.00002
 166 6   F  1S          0.00000   0.00000  -0.00144  -0.01043  -0.04972
 167        2S          0.00000   0.00000   0.00020   0.00043   0.00080
 168        3S          0.00000   0.00000  -0.00007  -0.00045  -0.00202
 169        4S          0.00001  -0.00001  -0.00055  -0.00105   0.00057
 170        5S          0.00001  -0.00001   0.00010  -0.00168   0.00179
 171        6PX         0.00000  -0.00004   0.00000   0.00000   0.00000
 172        6PY        -0.00004   0.00000   0.00000   0.00000   0.00000
 173        6PZ         0.00000   0.00000   0.00058   0.00111   0.00011
 174        7PX         0.00000  -0.00001   0.00000   0.00000   0.00000
 175        7PY        -0.00001   0.00000   0.00000   0.00000   0.00000
 176        7PZ         0.00000   0.00000   0.00069   0.00132   0.00002
 177        8PX        -0.00001  -0.00024   0.00000   0.00000   0.00000
 178        8PY        -0.00024   0.00001   0.00000   0.00000   0.00000
 179        8PZ         0.00000   0.00000   0.00008   0.00017   0.00048
 180        9PX        -0.00001  -0.00036   0.00000   0.00000   0.00000
 181        9PY        -0.00036   0.00001   0.00000   0.00000   0.00000
 182        9PZ         0.00000   0.00000   0.00017  -0.00009   0.00071
 183       10D 0        0.00000   0.00000   0.00001   0.00001  -0.00002
 184       10D+1        0.00000  -0.00001   0.00000   0.00000   0.00000
 185       10D-1       -0.00001   0.00000   0.00000   0.00000   0.00000
 186       10D+2        0.00001   0.00000   0.00000   0.00000   0.00000
 187       10D-2        0.00000   0.00001   0.00000   0.00000   0.00000
 188       11D 0        0.00000   0.00000  -0.00003  -0.00010   0.00001
 189       11D+1        0.00000   0.00005   0.00000   0.00000   0.00000
 190       11D-1        0.00005   0.00000   0.00000   0.00000   0.00000
 191       11D+2       -0.00003   0.00000   0.00000   0.00000   0.00000
 192       11D-2        0.00000  -0.00003   0.00000   0.00000   0.00000
 193       12D 0        0.00000   0.00000  -0.00019  -0.00012   0.00011
 194       12D+1       -0.00001  -0.00022   0.00000   0.00000   0.00000
 195       12D-1       -0.00022   0.00001   0.00000   0.00000   0.00000
 196       12D+2        0.00011   0.00000   0.00000   0.00000   0.00000
 197       12D-2        0.00000   0.00011   0.00000   0.00000   0.00000
 198       13F 0        0.00000   0.00000   0.00001  -0.00001  -0.00004
 199       13F+1        0.00000   0.00002   0.00000   0.00000   0.00000
 200       13F-1        0.00002   0.00000   0.00000   0.00000   0.00000
 201       13F+2       -0.00002   0.00000   0.00000   0.00000   0.00000
 202       13F-2        0.00000  -0.00002   0.00000   0.00000   0.00000
 203       13F+3        0.00000   0.00000   0.00000   0.00000   0.00000
 204       13F-3        0.00000   0.00000   0.00000   0.00000   0.00000
 205       14F 0        0.00000   0.00000  -0.00004   0.00002   0.00013
 206       14F+1        0.00000  -0.00006   0.00000   0.00000   0.00000
 207       14F-1       -0.00006   0.00000   0.00000   0.00000   0.00000
 208       14F+2        0.00004   0.00000   0.00000   0.00000   0.00000
 209       14F-2        0.00000   0.00004   0.00000   0.00000   0.00000
 210       14F+3        0.00000   0.00000   0.00000   0.00000   0.00000
 211       14F-3        0.00000   0.00000   0.00000   0.00000  -0.00001
                           6         7         8         9        10
     Eigenvalues --     2.00000   2.00000   1.98361   1.97544   1.96953
   1 1   C  1S          0.05035  -0.00046   0.01548  -0.07388  -0.14354
   2        2S         -0.00012  -0.00001  -0.04217   0.20047   0.39673
   3        3S          0.00230  -0.00003  -0.01044   0.04654   0.09604
   4        4S         -0.00700   0.00016   0.00546   0.07966   0.19055
   5        5S         -0.00016   0.00010   0.00786  -0.00703  -0.02888
   6        6PX         0.00000   0.00000  -0.00008   0.00063   0.00237
   7        6PY         0.00000   0.00000  -0.00002   0.00016   0.00051
   8        6PZ         0.00004   0.00000   0.00647   0.01023  -0.02731
   9        7PX         0.00000   0.00000  -0.00013   0.00080   0.00305
  10        7PY         0.00000   0.00000  -0.00001   0.00016   0.00056
  11        7PZ        -0.00075   0.00000   0.00707   0.01776  -0.03257
  12        8PX        -0.00001   0.00000  -0.00001   0.00033   0.00176
  13        8PY         0.00002   0.00000  -0.00007   0.00039   0.00082
  14        8PZ         0.00520   0.00009   0.01664   0.00586  -0.02270
  15        9PX         0.00000   0.00000   0.00001  -0.00001   0.00003
  16        9PY         0.00000   0.00000  -0.00002   0.00004   0.00010
  17        9PZ         0.00011   0.00001  -0.00070   0.00032  -0.00407
  18       10D 0        0.00004   0.00000   0.00051  -0.00218  -0.00957
  19       10D+1        0.00000   0.00000   0.00000  -0.00001  -0.00005
  20       10D-1        0.00000   0.00000   0.00000   0.00000  -0.00001
  21       10D+2        0.00000   0.00000  -0.00001   0.00005   0.00012
  22       10D-2        0.00000   0.00000   0.00000   0.00002   0.00011
  23       11D 0       -0.00023  -0.00002  -0.00528   0.00456  -0.01879
  24       11D+1        0.00000   0.00000   0.00002  -0.00003  -0.00008
  25       11D-1        0.00000   0.00000  -0.00001   0.00000  -0.00001
  26       11D+2        0.00000   0.00000   0.00000   0.00015   0.00036
  27       11D-2        0.00000   0.00000  -0.00004   0.00006   0.00030
  28       12D 0        0.00027   0.00008   0.00206  -0.00847  -0.01666
  29       12D+1        0.00001   0.00000   0.00002   0.00004   0.00001
  30       12D-1       -0.00001   0.00000   0.00000  -0.00004  -0.00004
  31       12D+2        0.00001   0.00000   0.00007   0.00006   0.00014
  32       12D-2        0.00000   0.00000  -0.00007   0.00010   0.00033
  33       13F 0       -0.00007   0.00000   0.00000   0.00242   0.00063
  34       13F+1        0.00000   0.00000   0.00000   0.00000  -0.00001
  35       13F-1        0.00000   0.00000   0.00000   0.00001   0.00001
  36       13F+2        0.00000   0.00000   0.00000  -0.00001  -0.00001
  37       13F-2        0.00000   0.00000   0.00000   0.00000   0.00001
  38       13F+3        0.00000   0.00000   0.00000   0.00002   0.00003
  39       13F-3        0.00001   0.00000  -0.00014   0.00194   0.00393
  40       14F 0        0.00127  -0.00001   0.00471   0.00261  -0.00198
  41       14F+1        0.00000   0.00000  -0.00001  -0.00001  -0.00005
  42       14F-1        0.00000   0.00000   0.00002  -0.00001  -0.00002
  43       14F+2        0.00000   0.00000  -0.00001  -0.00001  -0.00003
  44       14F-2        0.00000   0.00000   0.00001  -0.00001  -0.00002
  45       14F+3        0.00000   0.00000   0.00002  -0.00001   0.00004
  46       14F-3       -0.00044   0.00003   0.00186  -0.00099   0.00405
  47 2   H  1S         -0.00008   0.00000  -0.00858   0.03731   0.08000
  48        2S          0.00098  -0.00006  -0.01529   0.04400   0.08327
  49        3S          0.00184   0.00004  -0.00085  -0.00451  -0.01129
  50        4S          0.00003   0.00000  -0.00049   0.00055   0.00049
  51        5PX         0.00000   0.00000   0.00000   0.00001   0.00005
  52        5PY         0.00001   0.00000  -0.00109   0.00401   0.00859
  53        5PZ        -0.00004   0.00000   0.00028   0.00095   0.00034
  54        6PX         0.00000   0.00000   0.00000   0.00000   0.00009
  55        6PY         0.00008   0.00000  -0.00072   0.00081   0.00122
  56        6PZ         0.00032  -0.00001   0.00007   0.00243  -0.00052
  57        7PX         0.00000   0.00000  -0.00005   0.00006   0.00016
  58        7PY         0.00044   0.00001   0.00136  -0.00490  -0.01016
  59        7PZ        -0.00056   0.00001  -0.00281  -0.00174  -0.00129
  60        8D 0        0.00006   0.00000   0.00014  -0.00035  -0.00090
  61        8D+1        0.00000   0.00000   0.00000   0.00000   0.00000
  62        8D-1       -0.00001   0.00000  -0.00015   0.00050   0.00023
  63        8D+2       -0.00002   0.00000   0.00003  -0.00055  -0.00137
  64        8D-2        0.00000   0.00000   0.00000   0.00000   0.00002
  65        9D 0        0.00009  -0.00001  -0.00006   0.00124   0.00103
  66        9D+1        0.00000   0.00000   0.00000   0.00000  -0.00001
  67        9D-1        0.00014   0.00000  -0.00006   0.00004  -0.00038
  68        9D+2        0.00004   0.00000  -0.00099   0.00228   0.00416
  69        9D-2        0.00000   0.00000   0.00000  -0.00001  -0.00001
  70 3   H  1S         -0.00008   0.00000  -0.00858   0.03722   0.07940
  71        2S          0.00097  -0.00006  -0.01537   0.04384   0.08256
  72        3S          0.00178   0.00004  -0.00099  -0.00498  -0.01157
  73        4S          0.00003   0.00000  -0.00045   0.00048   0.00035
  74        5PX         0.00001   0.00000  -0.00094   0.00346   0.00740
  75        5PY        -0.00001   0.00000   0.00054  -0.00200  -0.00425
  76        5PZ        -0.00004   0.00000   0.00027   0.00096   0.00033
  77        6PX         0.00007   0.00000  -0.00067   0.00076   0.00119
  78        6PY        -0.00003   0.00000   0.00037  -0.00038  -0.00056
  79        6PZ         0.00032  -0.00001   0.00010   0.00242  -0.00054
  80        7PX         0.00037   0.00001   0.00118  -0.00429  -0.00870
  81        7PY        -0.00021   0.00000  -0.00065   0.00253   0.00515
  82        7PZ        -0.00054   0.00001  -0.00279  -0.00171  -0.00128
  83        8D 0        0.00006   0.00000   0.00014  -0.00035  -0.00090
  84        8D+1       -0.00001   0.00000  -0.00013   0.00043   0.00020
  85        8D-1        0.00000   0.00000   0.00007  -0.00025  -0.00011
  86        8D+2        0.00001   0.00000  -0.00002   0.00028   0.00069
  87        8D-2       -0.00001   0.00000   0.00003  -0.00047  -0.00117
  88        9D 0        0.00009  -0.00001  -0.00006   0.00122   0.00099
  89        9D+1        0.00012   0.00000  -0.00005   0.00003  -0.00033
  90        9D-1       -0.00007   0.00000   0.00002  -0.00002   0.00019
  91        9D+2       -0.00002   0.00000   0.00048  -0.00111  -0.00202
  92        9D-2        0.00003   0.00000  -0.00085   0.00196   0.00358
  93 4   H  1S         -0.00008   0.00000  -0.00871   0.03803   0.08232
  94        2S          0.00098  -0.00006  -0.01531   0.04425   0.08468
  95        3S          0.00182   0.00004  -0.00083  -0.00540  -0.01342
  96        4S          0.00003   0.00000  -0.00047   0.00051   0.00035
  97        5PX        -0.00001   0.00000   0.00096  -0.00355  -0.00767
  98        5PY        -0.00001   0.00000   0.00054  -0.00202  -0.00437
  99        5PZ        -0.00004   0.00000   0.00027   0.00098   0.00038
 100        6PX        -0.00007   0.00000   0.00058  -0.00059  -0.00080
 101        6PY        -0.00003   0.00000   0.00032  -0.00028  -0.00044
 102        6PZ         0.00033  -0.00001   0.00006   0.00244  -0.00052
 103        7PX        -0.00038  -0.00001  -0.00124   0.00447   0.00938
 104        7PY        -0.00021   0.00000  -0.00062   0.00251   0.00525
 105        7PZ        -0.00056   0.00001  -0.00283  -0.00179  -0.00139
 106        8D 0        0.00006   0.00000   0.00014  -0.00036  -0.00093
 107        8D+1        0.00001   0.00000   0.00013  -0.00044  -0.00021
 108        8D-1        0.00000   0.00000   0.00007  -0.00025  -0.00012
 109        8D+2        0.00001   0.00000  -0.00002   0.00029   0.00072
 110        8D-2        0.00001   0.00000  -0.00003   0.00047   0.00120
 111        9D 0        0.00009  -0.00001  -0.00006   0.00125   0.00104
 112        9D+1       -0.00013   0.00000   0.00006  -0.00002   0.00034
 113        9D-1       -0.00007   0.00000   0.00003  -0.00001   0.00020
 114        9D+2       -0.00002   0.00000   0.00051  -0.00116  -0.00214
 115        9D-2       -0.00003   0.00000   0.00086  -0.00199  -0.00364
 116 5   Cl 1S          0.00007   0.99708  -0.00064   0.06636  -0.03501
 117        2S         -0.00007   0.01040   0.00294  -0.25149   0.13161
 118        3S          0.00006   0.00017  -0.00394   0.52378  -0.27997
 119        4S          0.00008   0.00026  -0.00025   0.06416  -0.03769
 120        5S         -0.00181  -0.00020  -0.01233   0.35038  -0.17173
 121        6S         -0.00050  -0.00011  -0.00462   0.02456   0.01121
 122        7PX         0.00000   0.00000   0.00000  -0.00002  -0.00013
 123        7PY         0.00000   0.00000   0.00000   0.00000   0.00000
 124        7PZ         0.00731   0.00016   0.00152   0.00466   0.02869
 125        8PX         0.00000   0.00000   0.00000   0.00006   0.00032
 126        8PY         0.00000   0.00000  -0.00001   0.00001   0.00001
 127        8PZ         0.00051  -0.00003  -0.00225  -0.00620  -0.07186
 128        9PX         0.00000   0.00000   0.00000   0.00002   0.00014
 129        9PY         0.00000   0.00000   0.00000   0.00001   0.00000
 130        9PZ         0.00031   0.00003  -0.00263   0.00060  -0.03133
 131       10PX         0.00000   0.00000   0.00000   0.00001   0.00010
 132       10PY         0.00000   0.00000   0.00001   0.00001  -0.00003
 133       10PZ         0.00096   0.00015   0.00272   0.00289  -0.05224
 134       11PX         0.00000   0.00000   0.00000   0.00000  -0.00001
 135       11PY         0.00000   0.00000   0.00000   0.00000  -0.00002
 136       11PZ         0.00002   0.00002  -0.00040   0.00260  -0.00874
 137       12D 0       -0.00003   0.00001  -0.00035   0.00450   0.00451
 138       12D+1        0.00000   0.00000   0.00000  -0.00001  -0.00004
 139       12D-1        0.00000   0.00000   0.00000   0.00000  -0.00001
 140       12D+2        0.00000   0.00000   0.00000   0.00000   0.00000
 141       12D-2        0.00000   0.00000   0.00000   0.00000   0.00000
 142       13D 0       -0.00022   0.00000  -0.00163   0.00822   0.00965
 143       13D+1        0.00000   0.00000   0.00000  -0.00002  -0.00007
 144       13D-1        0.00000   0.00000   0.00000   0.00000  -0.00001
 145       13D+2        0.00000   0.00000   0.00000   0.00000   0.00000
 146       13D-2        0.00000   0.00000   0.00000   0.00000   0.00001
 147       14D 0       -0.00014  -0.00004  -0.00184  -0.00017   0.00537
 148       14D+1        0.00000   0.00000   0.00000   0.00000   0.00001
 149       14D-1        0.00000   0.00000  -0.00001   0.00000   0.00001
 150       14D+2        0.00000   0.00000   0.00000   0.00000   0.00000
 151       14D-2        0.00000   0.00000   0.00000  -0.00001  -0.00001
 152       15F 0        0.00005   0.00000   0.00023  -0.00181  -0.00191
 153       15F+1        0.00000   0.00000   0.00000   0.00000   0.00002
 154       15F-1        0.00000   0.00000   0.00000   0.00000   0.00000
 155       15F+2        0.00000   0.00000   0.00000   0.00000   0.00000
 156       15F-2        0.00000   0.00000   0.00000   0.00000   0.00000
 157       15F+3        0.00000   0.00000   0.00000   0.00000   0.00000
 158       15F-3       -0.00001   0.00000  -0.00001   0.00002   0.00009
 159       16F 0       -0.00005   0.00001   0.00005  -0.00093  -0.00170
 160       16F+1        0.00000   0.00000   0.00000   0.00000   0.00001
 161       16F-1        0.00000   0.00000   0.00000   0.00000   0.00000
 162       16F+2        0.00000   0.00000   0.00000   0.00000   0.00000
 163       16F-2        0.00000   0.00000   0.00000   0.00000   0.00000
 164       16F+3        0.00000   0.00000   0.00000   0.00000   0.00000
 165       16F-3        0.00003   0.00000   0.00002  -0.00001  -0.00021
 166 6   F  1S          0.97743  -0.00002   0.21188   0.01327   0.02164
 167        2S         -0.01503   0.00000  -0.53158  -0.03435  -0.05737
 168        3S          0.04206   0.00000  -0.16470  -0.01091  -0.01855
 169        4S          0.00193  -0.00001  -0.36873  -0.02385  -0.04393
 170        5S         -0.00083  -0.00006  -0.04529   0.00423   0.00778
 171        6PX         0.00000   0.00000   0.00002   0.00010   0.00084
 172        6PY         0.00000   0.00000   0.00000   0.00002   0.00017
 173        6PZ         0.00048   0.00000   0.01351   0.01290   0.08721
 174        7PX         0.00000   0.00000   0.00003   0.00012   0.00101
 175        7PY         0.00000   0.00000  -0.00001   0.00003   0.00021
 176        7PZ        -0.00012   0.00000   0.01473   0.01576   0.10494
 177        8PX         0.00000   0.00000   0.00002   0.00009   0.00078
 178        8PY         0.00000   0.00000   0.00000   0.00002   0.00015
 179        8PZ         0.00240  -0.00001   0.01247   0.01245   0.08344
 180        9PX         0.00000   0.00000   0.00001   0.00002   0.00021
 181        9PY         0.00000   0.00000   0.00000   0.00000   0.00003
 182        9PZ        -0.00008  -0.00002   0.00219   0.00321   0.02415
 183       10D 0       -0.00002   0.00000  -0.00013   0.00017   0.00060
 184       10D+1        0.00000   0.00000   0.00000   0.00000   0.00000
 185       10D-1        0.00000   0.00000   0.00000   0.00000   0.00000
 186       10D+2        0.00000   0.00000   0.00000   0.00000   0.00000
 187       10D-2        0.00000   0.00000   0.00000   0.00000   0.00000
 188       11D 0       -0.00003   0.00000  -0.00104   0.00091   0.00275
 189       11D+1        0.00000   0.00000   0.00000   0.00000   0.00002
 190       11D-1        0.00000   0.00000   0.00000   0.00000   0.00001
 191       11D+2        0.00000   0.00000   0.00000   0.00000   0.00000
 192       11D-2        0.00000   0.00000   0.00000   0.00000   0.00000
 193       12D 0        0.00080   0.00000  -0.00055   0.00036   0.00385
 194       12D+1        0.00000   0.00000   0.00000   0.00000   0.00001
 195       12D-1        0.00000   0.00000   0.00000   0.00000   0.00000
 196       12D+2        0.00000   0.00000  -0.00001   0.00000   0.00000
 197       12D-2        0.00000   0.00000   0.00000   0.00000  -0.00001
 198       13F 0       -0.00006   0.00000  -0.00002   0.00013   0.00027
 199       13F+1        0.00000   0.00000   0.00000   0.00000   0.00000
 200       13F-1        0.00000   0.00000   0.00000   0.00000   0.00000
 201       13F+2        0.00000   0.00000   0.00000   0.00000   0.00000
 202       13F-2        0.00000   0.00000   0.00000   0.00000   0.00000
 203       13F+3        0.00000   0.00000   0.00000   0.00000   0.00000
 204       13F-3        0.00001   0.00000   0.00001   0.00002   0.00003
 205       14F 0        0.00020   0.00000  -0.00040  -0.00006   0.00062
 206       14F+1        0.00000   0.00000   0.00000   0.00000   0.00000
 207       14F-1        0.00000   0.00000   0.00000   0.00000   0.00000
 208       14F+2        0.00000   0.00000   0.00000   0.00000   0.00000
 209       14F-2        0.00000   0.00000   0.00000   0.00000   0.00000
 210       14F+3        0.00000   0.00000   0.00000   0.00000   0.00000
 211       14F-3       -0.00001   0.00000  -0.00007  -0.00006  -0.00009
                          11        12        13        14        15
     Eigenvalues --     1.96439   1.96437   1.95937   1.95923   1.94912
   1 1   C  1S          0.00086   0.00016   0.00088   0.00014  -0.00120
   2        2S         -0.00237  -0.00047  -0.00240  -0.00045   0.00343
   3        3S         -0.00052  -0.00012  -0.00047  -0.00013   0.00085
   4        4S         -0.00060  -0.00061   0.00050  -0.00095   0.00701
   5        5S          0.00033  -0.00011   0.00050  -0.00039   0.00137
   6        6PX         0.09518   0.03229   0.22178   0.06276   0.06299
   7        6PY         0.03283  -0.09227   0.06292  -0.22240   0.02307
   8        6PZ         0.00008   0.00007   0.00002   0.00012   0.00104
   9        7PX         0.12741   0.04326   0.29392   0.08315   0.08758
  10        7PY         0.04394  -0.12358   0.08341  -0.29473   0.03205
  11        7PZ         0.00005   0.00010   0.00004   0.00015   0.00146
  12        8PX         0.09331   0.03150   0.22693   0.06403   0.06731
  13        8PY         0.03245  -0.09074   0.06464  -0.22788   0.02473
  14        8PZ         0.00010   0.00004   0.00009   0.00016   0.00154
  15        9PX        -0.00191  -0.00078   0.01825   0.00508   0.01142
  16        9PY        -0.00056   0.00197   0.00527  -0.01836   0.00420
  17        9PZ         0.00003  -0.00001   0.00002   0.00001   0.00002
  18       10D 0        0.00004   0.00000   0.00001  -0.00001  -0.00023
  19       10D+1       -0.00259  -0.00089  -0.00123  -0.00035  -0.00351
  20       10D-1       -0.00089   0.00255  -0.00034   0.00121  -0.00128
  21       10D+2        0.00217  -0.00588   0.00424  -0.01428   0.00178
  22       10D-2        0.00603   0.00208   0.01415   0.00407   0.00463
  23       11D 0        0.00006   0.00001  -0.00007   0.00002  -0.00119
  24       11D+1       -0.01203  -0.00420   0.00740   0.00208  -0.01460
  25       11D-1       -0.00415   0.01198   0.00211  -0.00739  -0.00531
  26       11D+2        0.00715  -0.01947   0.01291  -0.04371   0.00601
  27       11D-2        0.01989   0.00691   0.04325   0.01252   0.01572
  28       12D 0        0.00017   0.00011   0.00011   0.00003  -0.00068
  29       12D+1       -0.00570  -0.00200   0.00548   0.00156   0.00110
  30       12D-1       -0.00197   0.00574   0.00154  -0.00550   0.00039
  31       12D+2        0.00705  -0.01904   0.01033  -0.03483   0.00363
  32       12D-2        0.01924   0.00662   0.03421   0.00985   0.00928
  33       13F 0        0.00000   0.00000  -0.00001   0.00000   0.00005
  34       13F+1        0.00022   0.00008  -0.00194  -0.00055  -0.00209
  35       13F-1        0.00008  -0.00024  -0.00054   0.00192  -0.00076
  36       13F+2       -0.00022   0.00060  -0.00003   0.00012  -0.00012
  37       13F-2       -0.00060  -0.00021  -0.00010  -0.00004  -0.00031
  38       13F+3        0.00001  -0.00001   0.00003  -0.00002   0.00001
  39       13F-3       -0.00004  -0.00001  -0.00006  -0.00002   0.00006
  40       14F 0        0.00001  -0.00001   0.00004  -0.00002   0.00015
  41       14F+1        0.00031   0.00012  -0.00566  -0.00161  -0.00680
  42       14F-1        0.00011  -0.00036  -0.00158   0.00559  -0.00247
  43       14F+2       -0.00129   0.00364  -0.00001   0.00011  -0.00115
  44       14F-2       -0.00364  -0.00131  -0.00010  -0.00005  -0.00304
  45       14F+3        0.00007  -0.00001   0.00020  -0.00006   0.00001
  46       14F-3        0.00001   0.00002   0.00003   0.00000   0.00034
  47 2   H  1S         -0.02315   0.06340  -0.04203   0.14586  -0.01522
  48        2S         -0.02106   0.05724  -0.04300   0.14875  -0.01567
  49        3S          0.01997  -0.05477   0.03327  -0.11509   0.00134
  50        4S         -0.00180   0.00538   0.00489  -0.01680   0.00037
  51        5PX         0.00202   0.00069   0.00418   0.00119   0.00098
  52        5PY        -0.00182   0.00497  -0.00343   0.01192  -0.00117
  53        5PZ         0.00000  -0.00003  -0.00077   0.00269   0.00013
  54        6PX         0.00771   0.00268   0.01302   0.00373   0.00340
  55        6PY         0.00237  -0.00676   0.00307  -0.01078   0.00180
  56        6PZ        -0.00092   0.00261   0.00015  -0.00040  -0.00039
  57        7PX         0.00880   0.00307   0.01266   0.00363   0.00254
  58        7PY         0.00484  -0.01326   0.01262  -0.04395   0.00305
  59        7PZ         0.00027  -0.00061   0.00212  -0.00733   0.00081
  60        8D 0        0.00015  -0.00039   0.00038  -0.00131   0.00014
  61        8D+1        0.00002   0.00001   0.00030   0.00008  -0.00003
  62        8D-1       -0.00025   0.00070  -0.00006   0.00023  -0.00010
  63        8D+2        0.00021  -0.00057   0.00052  -0.00185   0.00016
  64        8D-2        0.00101   0.00035   0.00214   0.00061   0.00055
  65        9D 0       -0.00017   0.00049   0.00042  -0.00143  -0.00006
  66        9D+1       -0.00144  -0.00052   0.00097   0.00026  -0.00110
  67        9D-1       -0.00108   0.00314   0.00095  -0.00329  -0.00021
  68        9D+2       -0.00056   0.00152  -0.00077   0.00258  -0.00040
  69        9D-2        0.00156   0.00056   0.00272   0.00080   0.00102
  70 3   H  1S         -0.04569  -0.05111  -0.10548  -0.10881  -0.02873
  71        2S         -0.04154  -0.04609  -0.10766  -0.11079  -0.02897
  72        3S          0.03860   0.04403   0.08262   0.08584   0.00259
  73        4S         -0.00373  -0.00437   0.01209   0.01250   0.00067
  74        5PX        -0.00232  -0.00416  -0.00593  -0.00922  -0.00153
  75        5PY         0.00320   0.00083   0.00703   0.00180   0.00180
  76        5PZ        -0.00001   0.00002  -0.00195  -0.00201   0.00019
  77        6PX         0.00722   0.00212   0.01150   0.00225   0.00438
  78        6PY         0.00297  -0.00725   0.00450  -0.01224   0.00075
  79        6PZ        -0.00184  -0.00212   0.00029   0.00028  -0.00071
  80        7PX         0.01195   0.00620   0.03227   0.02364   0.00612
  81        7PY         0.00146  -0.01059  -0.00753  -0.02447  -0.00103
  82        7PZ         0.00048   0.00051   0.00531   0.00547   0.00170
  83        8D 0        0.00029   0.00031   0.00095   0.00098   0.00025
  84        8D+1       -0.00042  -0.00050  -0.00003  -0.00026  -0.00017
  85        8D-1        0.00026   0.00027   0.00028  -0.00010   0.00007
  86        8D+2        0.00050  -0.00082   0.00072  -0.00204   0.00024
  87        8D-2        0.00077   0.00005   0.00197   0.00041   0.00050
  88        9D 0       -0.00037  -0.00042   0.00099   0.00106  -0.00013
  89        9D+1       -0.00245  -0.00169   0.00246   0.00177  -0.00076
  90        9D-1        0.00008   0.00213  -0.00057  -0.00183  -0.00062
  91        9D+2        0.00166  -0.00032   0.00273  -0.00080   0.00110
  92        9D-2       -0.00032  -0.00158  -0.00059  -0.00264  -0.00019
  93 4   H  1S          0.06759  -0.01226   0.14647  -0.03671   0.04632
  94        2S          0.06029  -0.01083   0.14732  -0.03687   0.04432
  95        3S         -0.05895   0.01127  -0.11770   0.03008  -0.00591
  96        4S          0.00552  -0.00098  -0.01709   0.00437  -0.00108
  97        5PX        -0.00443   0.00186  -0.00994   0.00472  -0.00302
  98        5PY        -0.00296  -0.00134  -0.00682  -0.00228  -0.00191
  99        5PZ         0.00002   0.00000   0.00275  -0.00067  -0.00011
 100        6PX         0.00713   0.00274   0.01130   0.00409   0.00524
 101        6PY         0.00226  -0.00755   0.00269  -0.01299   0.00222
 102        6PZ         0.00276  -0.00051  -0.00054   0.00016   0.00120
 103        7PX         0.01329   0.00229   0.04009  -0.00322   0.00858
 104        7PY         0.00543  -0.00915   0.01901  -0.01675   0.00434
 105        7PZ        -0.00078   0.00016  -0.00750   0.00188  -0.00313
 106        8D 0       -0.00041   0.00007  -0.00130   0.00032  -0.00039
 107        8D+1       -0.00064   0.00013  -0.00015   0.00020  -0.00026
 108        8D-1       -0.00037   0.00005  -0.00018  -0.00025  -0.00014
 109        8D+2        0.00013  -0.00095   0.00048  -0.00211   0.00018
 110        8D-2        0.00062   0.00045   0.00185   0.00075   0.00050
 111        9D 0        0.00050  -0.00008  -0.00143   0.00040   0.00014
 112        9D+1       -0.00296  -0.00022   0.00306  -0.00024  -0.00046
 113        9D-1       -0.00134   0.00162   0.00146  -0.00125  -0.00001
 114        9D+2       -0.00110  -0.00122  -0.00191  -0.00205  -0.00069
 115        9D-2       -0.00118   0.00105  -0.00180   0.00196  -0.00076
 116 5   Cl 1S          0.00012   0.00002   0.00010   0.00001  -0.00023
 117        2S         -0.00045  -0.00007  -0.00038  -0.00004   0.00089
 118        3S          0.00100   0.00016   0.00086   0.00008  -0.00181
 119        4S          0.00014   0.00002   0.00013   0.00001  -0.00028
 120        5S          0.00053   0.00008   0.00044   0.00009  -0.00159
 121        6S         -0.00016   0.00001  -0.00019   0.00011  -0.00051
 122        7PX        -0.00855  -0.00291  -0.04101  -0.01187   0.21018
 123        7PY        -0.00294   0.00830  -0.01162   0.04199   0.07657
 124        7PZ        -0.00025  -0.00004  -0.00042  -0.00005  -0.00083
 125        8PX         0.02026   0.00689   0.09698   0.02805  -0.48084
 126        8PY         0.00697  -0.01965   0.02747  -0.09922  -0.17517
 127        8PZ         0.00061   0.00009   0.00098   0.00011   0.00192
 128        9PX         0.00939   0.00320   0.04482   0.01297  -0.23227
 129        9PY         0.00323  -0.00912   0.01270  -0.04589  -0.08461
 130        9PZ         0.00026   0.00004   0.00043   0.00005   0.00094
 131       10PX         0.01006   0.00345   0.05224   0.01521  -0.34555
 132       10PY         0.00345  -0.00979   0.01476  -0.05369  -0.12588
 133       10PZ         0.00046   0.00004   0.00074   0.00000   0.00204
 134       11PX         0.00199   0.00071   0.00306   0.00094  -0.05836
 135       11PY         0.00068  -0.00199   0.00084  -0.00324  -0.02127
 136       11PZ         0.00008   0.00001   0.00012  -0.00003   0.00061
 137       12D 0       -0.00003  -0.00001  -0.00004  -0.00001   0.00010
 138       12D+1       -0.00185  -0.00062  -0.00591  -0.00168   0.00024
 139       12D-1       -0.00064   0.00178  -0.00168   0.00596   0.00008
 140       12D+2        0.00004  -0.00011   0.00015  -0.00053   0.00008
 141       12D-2        0.00011   0.00004   0.00051   0.00015   0.00023
 142       13D 0       -0.00008  -0.00001  -0.00010  -0.00001   0.00015
 143       13D+1       -0.00285  -0.00096  -0.01048  -0.00298   0.00070
 144       13D-1       -0.00098   0.00274  -0.00297   0.01055   0.00025
 145       13D+2        0.00011  -0.00030   0.00018  -0.00063   0.00020
 146       13D-2        0.00031   0.00011   0.00061   0.00018   0.00051
 147       14D 0       -0.00005   0.00001  -0.00008   0.00001  -0.00006
 148       14D+1        0.00006   0.00002   0.00006   0.00000   0.00317
 149       14D-1        0.00002  -0.00006   0.00003  -0.00006   0.00114
 150       14D+2       -0.00022   0.00062  -0.00002   0.00007   0.00002
 151       14D-2       -0.00061  -0.00022  -0.00007  -0.00002   0.00007
 152       15F 0        0.00001   0.00000   0.00002   0.00001  -0.00002
 153       15F+1        0.00086   0.00029   0.00251   0.00071  -0.00133
 154       15F-1        0.00030  -0.00083   0.00071  -0.00253  -0.00049
 155       15F+2       -0.00004   0.00011  -0.00010   0.00033  -0.00004
 156       15F-2       -0.00011  -0.00004  -0.00032  -0.00009  -0.00009
 157       15F+3        0.00000   0.00000   0.00000   0.00000   0.00000
 158       15F-3        0.00000   0.00000   0.00000   0.00000   0.00000
 159       16F 0        0.00001   0.00000   0.00002   0.00000  -0.00003
 160       16F+1        0.00058   0.00020   0.00191   0.00055  -0.00170
 161       16F-1        0.00020  -0.00056   0.00053  -0.00193  -0.00062
 162       16F+2        0.00000  -0.00001   0.00005  -0.00018  -0.00007
 163       16F-2        0.00001   0.00000   0.00018   0.00005  -0.00019
 164       16F+3        0.00000   0.00000   0.00000   0.00000  -0.00001
 165       16F-3        0.00000   0.00000   0.00000   0.00000   0.00000
 166 6   F  1S         -0.00012  -0.00002  -0.00009  -0.00001   0.00028
 167        2S          0.00032   0.00006   0.00027   0.00002  -0.00060
 168        3S          0.00010   0.00002   0.00009   0.00001  -0.00018
 169        4S          0.00023   0.00003   0.00022   0.00005  -0.00037
 170        5S         -0.00012  -0.00002  -0.00009   0.00006  -0.00011
 171        6PX         0.31197   0.10885  -0.15960  -0.04421  -0.02099
 172        6PY         0.10859  -0.31394  -0.04499   0.15565  -0.00766
 173        6PZ        -0.00094  -0.00007  -0.00143  -0.00017  -0.00865
 174        7PX         0.37215   0.12984  -0.18927  -0.05242  -0.02485
 175        7PY         0.12954  -0.37449  -0.05335   0.18456  -0.00906
 176        7PZ        -0.00112  -0.00009  -0.00170  -0.00020  -0.01032
 177        8PX         0.30081   0.10498  -0.15906  -0.04409  -0.02128
 178        8PY         0.10471  -0.30276  -0.04484   0.15526  -0.00777
 179        8PZ        -0.00092  -0.00007  -0.00140  -0.00014  -0.00850
 180        9PX         0.09450   0.03301  -0.05594  -0.01553  -0.01036
 181        9PY         0.03288  -0.09516  -0.01579   0.05477  -0.00378
 182        9PZ        -0.00029  -0.00002  -0.00041  -0.00004  -0.00265
 183       10D 0        0.00000   0.00000  -0.00001   0.00000  -0.00002
 184       10D+1        0.00057   0.00020   0.00008   0.00002   0.00011
 185       10D-1        0.00020  -0.00057   0.00002  -0.00009   0.00004
 186       10D+2        0.00001  -0.00002   0.00001  -0.00003   0.00000
 187       10D-2        0.00002   0.00001   0.00003   0.00001   0.00001
 188       11D 0       -0.00002   0.00000  -0.00003   0.00000  -0.00005
 189       11D+1        0.00230   0.00080   0.00114   0.00033   0.00055
 190       11D-1        0.00080  -0.00229   0.00032  -0.00117   0.00020
 191       11D+2        0.00002  -0.00005   0.00007  -0.00024   0.00006
 192       11D-2        0.00005   0.00002   0.00024   0.00007   0.00016
 193       12D 0       -0.00004   0.00000  -0.00006   0.00000  -0.00024
 194       12D+1        0.00557   0.00195  -0.00349  -0.00097   0.00030
 195       12D-1        0.00193  -0.00561  -0.00098   0.00342   0.00011
 196       12D+2        0.00002  -0.00003  -0.00008   0.00027  -0.00013
 197       12D-2        0.00003   0.00000  -0.00027  -0.00008  -0.00034
 198       13F 0        0.00000   0.00000   0.00000   0.00000   0.00000
 199       13F+1        0.00021   0.00007   0.00024   0.00007   0.00006
 200       13F-1        0.00007  -0.00021   0.00007  -0.00024   0.00002
 201       13F+2        0.00002  -0.00005   0.00003  -0.00011   0.00002
 202       13F-2        0.00005   0.00002   0.00011   0.00003   0.00006
 203       13F+3        0.00000   0.00000   0.00000   0.00000   0.00000
 204       13F-3        0.00000   0.00000   0.00000   0.00000   0.00000
 205       14F 0       -0.00001   0.00000  -0.00001   0.00000  -0.00005
 206       14F+1        0.00136   0.00048  -0.00086  -0.00024   0.00001
 207       14F-1        0.00048  -0.00138  -0.00024   0.00084   0.00000
 208       14F+2       -0.00004   0.00012  -0.00007   0.00023  -0.00006
 209       14F-2       -0.00012  -0.00005  -0.00023  -0.00007  -0.00015
 210       14F+3        0.00000   0.00000   0.00000   0.00000   0.00000
 211       14F-3        0.00000   0.00000   0.00000   0.00000   0.00000
                          16        17        18        19        20
     Eigenvalues --     1.94911   1.94881   1.93537   0.06017   0.02494
   1 1   C  1S         -0.00024   0.05324  -0.01577  -0.02406   0.00026
   2        2S          0.00069  -0.15158   0.05090   0.06687  -0.00094
   3        3S          0.00016  -0.03579   0.01675   0.02430  -0.00046
   4        4S          0.00109  -0.29211   0.08714  -0.22244   0.00131
   5        5S          0.00009  -0.05765   0.03920  -0.02928   0.00031
   6        6PX         0.02318   0.00219  -0.00017   0.00007   0.10416
   7        6PY        -0.06395   0.00028  -0.00009   0.00011  -0.11346
   8        6PZ         0.00027  -0.04567  -0.12869   0.27929   0.00000
   9        7PX         0.03222   0.00309  -0.00034   0.00027   0.19308
  10        7PY        -0.08885   0.00040  -0.00014   0.00021  -0.21060
  11        7PZ         0.00039  -0.06474  -0.18053   0.44321   0.00007
  12        8PX         0.02473   0.00228  -0.00036  -0.00010   0.08907
  13        8PY        -0.06850   0.00052  -0.00013   0.00025  -0.09650
  14        8PZ         0.00038  -0.06425  -0.07666   0.20196  -0.00020
  15        9PX         0.00417   0.00031  -0.00002  -0.00001   0.02030
  16        9PY        -0.01156   0.00012  -0.00005  -0.00004  -0.02146
  17        9PZ         0.00000  -0.00123  -0.00167  -0.00005   0.00002
  18       10D 0       -0.00005   0.00934  -0.01105  -0.00884  -0.00001
  19       10D+1       -0.00128  -0.00010  -0.00001   0.00005   0.01743
  20       10D-1        0.00350  -0.00001  -0.00001   0.00001  -0.01866
  21       10D+2       -0.00473  -0.00002   0.00004   0.00000  -0.00274
  22       10D-2        0.00173   0.00018  -0.00003   0.00002   0.00276
  23       11D 0       -0.00024   0.04978  -0.04570   0.06673  -0.00023
  24       11D+1       -0.00530  -0.00043   0.00000   0.00004   0.04099
  25       11D-1        0.01452   0.00001  -0.00002   0.00000  -0.04376
  26       11D+2       -0.01608  -0.00015   0.00013  -0.00028  -0.05118
  27       11D-2        0.00589   0.00076  -0.00017   0.00026   0.04743
  28       12D 0       -0.00021   0.02815  -0.00377  -0.01705  -0.00017
  29       12D+1        0.00042   0.00008  -0.00013   0.00012   0.01269
  30       12D-1       -0.00111  -0.00004   0.00011  -0.00013  -0.01391
  31       12D+2       -0.00958  -0.00024   0.00014  -0.00044  -0.01079
  32       12D-2        0.00344   0.00062  -0.00017   0.00031   0.00933
  33       13F 0        0.00001  -0.00207  -0.00329  -0.00585  -0.00004
  34       13F+1       -0.00077  -0.00006   0.00000  -0.00001  -0.00648
  35       13F-1        0.00210  -0.00001   0.00000   0.00000   0.00703
  36       13F+2        0.00031  -0.00001   0.00000   0.00005  -0.00228
  37       13F-2       -0.00011  -0.00001   0.00001  -0.00005   0.00214
  38       13F+3        0.00000  -0.00003   0.00001   0.00000   0.00001
  39       13F-3        0.00001  -0.00306   0.00114  -0.00051  -0.00002
  40       14F 0        0.00003  -0.00548  -0.00087   0.01160  -0.00011
  41       14F+1       -0.00249  -0.00015   0.00001  -0.00005  -0.00169
  42       14F-1        0.00682  -0.00008   0.00001   0.00000   0.00188
  43       14F+2        0.00305   0.00004  -0.00001  -0.00008   0.00164
  44       14F-2       -0.00113  -0.00014   0.00002   0.00006  -0.00140
  45       14F+3        0.00000  -0.00013   0.00008  -0.00033   0.00005
  46       14F-3        0.00005  -0.01503   0.00918  -0.03777   0.00016
  47 2   H  1S          0.04417  -0.03388   0.02878  -0.00682  -0.02954
  48        2S          0.04343  -0.00331   0.02272   0.07999  -0.18923
  49        3S         -0.00525   0.02186   0.02023   0.06841  -0.12081
  50        4S         -0.00104   0.00021   0.00186   0.00715  -0.05245
  51        5PX         0.00036   0.00003   0.00000   0.00001   0.00183
  52        5PY         0.00340  -0.00216   0.00248  -0.00200   0.00643
  53        5PZ        -0.00015  -0.00268  -0.00321   0.01430   0.00892
  54        6PX         0.00130   0.00014  -0.00001  -0.00011   0.00497
  55        6PY        -0.00528   0.00549  -0.00153   0.00981  -0.04328
  56        6PZ         0.00112  -0.00098  -0.01028   0.02810   0.00413
  57        7PX         0.00095   0.00029  -0.00012   0.00018  -0.00161
  58        7PY        -0.00922   0.01110  -0.00166   0.01278  -0.03704
  59        7PZ        -0.00281   0.00803   0.00325  -0.01411  -0.00395
  60        8D 0       -0.00038   0.00014  -0.00084   0.00060  -0.00188
  61        8D+1       -0.00001   0.00000   0.00000  -0.00001   0.00122
  62        8D-1        0.00028  -0.00020  -0.00171   0.00672   0.00291
  63        8D+2       -0.00050   0.00053  -0.00061   0.00186  -0.00190
  64        8D-2        0.00021   0.00002   0.00000   0.00000   0.00139
  65        9D 0        0.00015   0.00081  -0.00282   0.00597   0.00242
  66        9D+1       -0.00041  -0.00005   0.00001   0.00004   0.00307
  67        9D-1        0.00042   0.00203  -0.00055  -0.00588  -0.01129
  68        9D+2        0.00101   0.00110   0.00035  -0.00110   0.00695
  69        9D-2        0.00039   0.00006  -0.00002   0.00001   0.00077
  70 3   H  1S         -0.03570  -0.03503   0.02899  -0.00686   0.03863
  71        2S         -0.03521  -0.00427   0.02285   0.08042   0.24524
  72        3S          0.00406   0.02242   0.02009   0.06913   0.15581
  73        4S          0.00085   0.00006   0.00197   0.00728   0.06902
  74        5PX        -0.00272  -0.00192   0.00216  -0.00174  -0.00766
  75        5PY         0.00078   0.00114  -0.00125   0.00101   0.00342
  76        5PZ         0.00015  -0.00267  -0.00321   0.01429  -0.01167
  77        6PX         0.00251   0.00503  -0.00142   0.00868   0.04739
  78        6PY        -0.00424  -0.00275   0.00075  -0.00480  -0.03003
  79        6PZ        -0.00089  -0.00110  -0.01028   0.02832  -0.00552
  80        7PX         0.00548   0.00984  -0.00148   0.01086   0.04179
  81        7PY        -0.00531  -0.00568   0.00088  -0.00644  -0.02391
  82        7PZ         0.00222   0.00819   0.00307  -0.01393   0.00497
  83        8D 0        0.00031   0.00016  -0.00085   0.00060   0.00244
  84        8D+1       -0.00018  -0.00019  -0.00148   0.00583  -0.00358
  85        8D-1        0.00013   0.00011   0.00085  -0.00336   0.00145
  86        8D+2       -0.00053  -0.00025   0.00030  -0.00092  -0.00180
  87        8D-2        0.00015   0.00047  -0.00053   0.00162   0.00181
  88        9D 0       -0.00011   0.00083  -0.00283   0.00600  -0.00314
  89        9D+1        0.00006   0.00173  -0.00047  -0.00509   0.01217
  90        9D-1        0.00084  -0.00099   0.00026   0.00293  -0.00848
  91        9D+2       -0.00022  -0.00049  -0.00019   0.00059   0.00417
  92        9D-2       -0.00108   0.00091   0.00032  -0.00101  -0.00793
  93 4   H  1S         -0.00785  -0.03235   0.02876  -0.00683  -0.00807
  94        2S         -0.00770  -0.00151   0.02252   0.08015  -0.05533
  95        3S          0.00108   0.02204   0.02031   0.06939  -0.03602
  96        4S          0.00022   0.00013   0.00191   0.00722  -0.01674
  97        5PX         0.00104   0.00179  -0.00217   0.00181  -0.00041
  98        5PY        -0.00063   0.00100  -0.00124   0.00102  -0.00340
  99        5PZ         0.00004  -0.00269  -0.00325   0.01446   0.00287
 100        6PX         0.00098  -0.00452   0.00126  -0.00829   0.01460
 101        6PY        -0.00371  -0.00257   0.00066  -0.00435  -0.00023
 102        6PZ        -0.00021  -0.00091  -0.01035   0.02813   0.00138
 103        7PX        -0.00003  -0.00921   0.00126  -0.01099   0.00897
 104        7PY        -0.00323  -0.00555   0.00089  -0.00660   0.00714
 105        7PZ         0.00045   0.00805   0.00327  -0.01432  -0.00095
 106        8D 0        0.00007   0.00013  -0.00085   0.00064  -0.00059
 107        8D+1        0.00003   0.00017   0.00150  -0.00589   0.00007
 108        8D-1        0.00005   0.00010   0.00085  -0.00331  -0.00200
 109        8D+2       -0.00055  -0.00027   0.00031  -0.00098  -0.00145
 110        8D-2        0.00024  -0.00045   0.00052  -0.00166   0.00161
 111        9D 0        0.00000   0.00082  -0.00285   0.00605   0.00068
 112        9D+1       -0.00050  -0.00180   0.00047   0.00530   0.00522
 113        9D-1        0.00106  -0.00095   0.00025   0.00294  -0.00199
 114        9D+2       -0.00085  -0.00062  -0.00015   0.00056  -0.00198
 115        9D-2        0.00072  -0.00096  -0.00030   0.00095  -0.00109
 116 5   Cl 1S         -0.00005   0.01020   0.00051  -0.01679   0.00001
 117        2S          0.00020  -0.03893  -0.00170   0.05629  -0.00002
 118        3S         -0.00041   0.08045   0.01131  -0.15673   0.00004
 119        4S         -0.00006   0.01241   0.00453  -0.03986   0.00001
 120        5S         -0.00029   0.06898   0.01225  -0.04592   0.00018
 121        6S         -0.00004   0.02043  -0.01255   0.01596   0.00005
 122        7PX         0.07653   0.00547  -0.00008  -0.00001   0.01433
 123        7PY        -0.21007   0.00078  -0.00013  -0.00008  -0.01539
 124        7PZ        -0.00005   0.02661  -0.21014  -0.16342   0.00012
 125        8PX        -0.17507  -0.01252   0.00018   0.00003  -0.02234
 126        8PY         0.48059  -0.00179   0.00029   0.00017   0.02398
 127        8PZ         0.00010  -0.06215   0.46466   0.36066  -0.00030
 128        9PX        -0.08457  -0.00605   0.00009   0.00001  -0.02382
 129        9PY         0.23216  -0.00087   0.00014   0.00011   0.02558
 130        9PZ         0.00006  -0.03099   0.21830   0.20650  -0.00018
 131       10PX        -0.12584  -0.00907   0.00018  -0.00002   0.01148
 132       10PY         0.34545  -0.00130   0.00017   0.00006  -0.01224
 133       10PZ         0.00018  -0.07216   0.31777   0.02921   0.00005
 134       11PX        -0.02126  -0.00156   0.00004   0.00000   0.00401
 135       11PY         0.05839  -0.00023   0.00004   0.00000  -0.00433
 136       11PZ         0.00008  -0.02398   0.04618   0.00724   0.00006
 137       12D 0        0.00002  -0.00472  -0.01241   0.06750  -0.00028
 138       12D+1        0.00008  -0.00002   0.00001   0.00001  -0.03950
 139       12D-1       -0.00020  -0.00001  -0.00001   0.00005   0.04236
 140       12D+2       -0.00023   0.00000   0.00000   0.00001  -0.00070
 141       12D-2        0.00009   0.00001   0.00000   0.00000   0.00073
 142       13D 0        0.00004  -0.00753  -0.01944   0.09793  -0.00039
 143       13D+1        0.00024  -0.00001   0.00002   0.00000  -0.05899
 144       13D-1       -0.00064  -0.00002  -0.00001   0.00007   0.06323
 145       13D+2       -0.00053   0.00000   0.00000   0.00001  -0.00110
 146       13D-2        0.00019   0.00002   0.00000  -0.00001   0.00115
 147       14D 0        0.00000   0.00154  -0.01323   0.03015  -0.00005
[...]
  80        7PX         0.90515  -2.50283  -9.64756  -1.67908  -3.94229
  81        7PY        -0.35247   9.81117  -3.37030   1.01215  -1.43575
  82        7PZ        -1.70096  -2.36838  -2.26291  -0.00329  -0.28484
  83        8D 0       -0.03603   0.00682   0.00772   0.02382   0.00686
  84        8D+1        0.01016  -0.00091  -0.03055   0.00836   0.00756
  85        8D-1       -0.00505   0.03425  -0.01775  -0.00453   0.00193
  86        8D+2        0.06180  -0.07371   0.07261   0.02577   0.01705
  87        8D-2       -0.11008  -0.03634   0.04887  -0.04406   0.02571
  88        9D 0       -0.49598   0.36453   0.34235  -0.15109   0.09100
  89        9D+1       -0.23547  -0.25038   0.02981  -0.04032  -0.12720
  90        9D-1        0.12942  -0.16270   0.30906   0.02269  -0.02614
  91        9D+2       -0.11116   0.60869  -1.64222  -0.35031  -0.51147
  92        9D-2        0.25240   1.49017   0.13871   0.62644  -0.17409
  93 4   H  1S         -0.03545   0.00347  -0.01115  -0.00771   0.01721
  94        2S          0.28063  -0.94022   3.54327  -0.55553  -1.45030
  95        3S          7.66703  -6.84981  27.47389  -3.19842 -16.58277
  96        4S          1.58758   0.35730  -1.90256  -1.98143  -7.04468
  97        5PX        -0.02665   0.02988   0.10196  -0.07987  -0.08379
  98        5PY        -0.02201  -0.10097   0.03218  -0.04717  -0.00089
  99        5PZ         0.05957  -0.00507   0.00963   0.03090   0.00675
 100        6PX        -0.61751  -0.19319  -2.26038   0.60564   0.94023
 101        6PY        -0.27009   1.53411  -0.91011   0.36301   0.06488
 102        6PZ        -0.33018   0.00420   0.04041  -0.16407  -0.10683
 103        7PX        -1.34830  -3.20035  -9.36917   1.68585   5.49624
 104        7PY        -0.13449  10.02138  -2.59341   1.04995  -0.01233
 105        7PZ        -1.45739  -0.70580   3.30387   0.03918  -0.52211
 106        8D 0       -0.03793   0.00247  -0.01348   0.02554   0.01255
 107        8D+1       -0.00984  -0.01540  -0.02715  -0.00822  -0.01013
 108        8D-1       -0.00387   0.03885  -0.00456  -0.00388  -0.00073
 109        8D+2        0.06260  -0.10297  -0.01659   0.02462   0.00540
 110        8D-2        0.11149   0.05537   0.02462   0.04018  -0.03419
 111        9D 0       -0.49192   0.10941  -0.47209  -0.15166   0.16413
 112        9D+1        0.22253   0.22162  -0.12751   0.03504   0.18403
 113        9D-1        0.10827  -0.31484  -0.17701   0.01509   0.02144
 114        9D+2       -0.04637   1.37642   1.03302  -0.34764  -0.47627
 115        9D-2       -0.25200  -1.17196   0.94311  -0.62226   0.07207
 116 5   Cl 1S          0.02028  -0.00065  -0.00029   0.01181   0.00014
 117        2S          0.28043  -0.00877  -0.00393   0.16420   0.00224
 118        3S          0.78214  -0.02508  -0.01134   0.46133   0.00579
 119        4S         -0.04180   0.00042   0.00000  -0.01481  -0.00090
 120        5S         -4.35170   0.14908   0.06477  -3.02752  -0.03460
 121        6S         -9.83447   0.35790   0.18941 -13.27626  -0.07767
 122        7PX         0.00000   0.00023   0.00084  -0.00003  -0.00050
 123        7PY         0.00008  -0.00075   0.00025   0.00012  -0.00298
 124        7PZ        -0.00462   0.00041   0.00032  -0.02279  -0.00013
 125        8PX         0.00000   0.00566   0.01866  -0.00056  -0.00974
 126        8PY         0.00104  -0.01751   0.00508   0.00208  -0.05905
 127        8PZ        -0.06549   0.00550   0.00406  -0.31862  -0.00158
 128        9PX        -0.00006  -0.00109  -0.00413   0.00011   0.00172
 129        9PY        -0.00028   0.00373  -0.00125  -0.00043   0.01001
 130        9PZ         0.00202  -0.00097  -0.00093   0.07976   0.00046
 131       10PX         0.01356  -0.02642  -0.06658   0.00419   0.06755
 132       10PY        -0.00629   0.06749  -0.01347  -0.01062   0.41845
 133       10PZ         5.92143  -0.21613  -0.10788   5.09380   0.03754
 134       11PX        -0.02331  -0.33895  -1.10866  -0.00446  -0.03481
 135       11PY         0.02591   1.09930  -0.32013   0.00108  -0.24116
 136       11PZ         0.79883  -0.02897  -0.01813   3.36837   0.01997
 137       12D 0        0.06815  -0.00239  -0.00110   0.00178  -0.00001
 138       12D+1        0.00104   0.00898   0.02983   0.00015  -0.00076
 139       12D-1       -0.00062  -0.02930   0.00866   0.00011  -0.00376
 140       12D+2        0.00079   0.00683  -0.00233   0.00015   0.01217
 141       12D-2       -0.00113  -0.00195  -0.00705  -0.00011   0.00180
 142       13D 0       -0.38845   0.01308   0.00608  -0.07061  -0.00038
 143       13D+1       -0.00417  -0.03282  -0.11001  -0.00032   0.00481
 144       13D-1        0.00199   0.10746  -0.03205  -0.00094   0.02591
 145       13D+2       -0.00215  -0.01522   0.00531  -0.00040  -0.04381
 146       13D-2        0.00323   0.00426   0.01584   0.00038  -0.00647
 147       14D 0       -1.39778   0.05369   0.02798  -1.24742  -0.00790
 148       14D+1        0.00157   0.09422   0.29559  -0.00109  -0.05242
 149       14D-1       -0.00241  -0.29279   0.08125   0.00840  -0.32259
 150       14D+2        0.00196   0.06202  -0.01674  -0.00051   0.19943
 151       14D-2       -0.00186  -0.02088  -0.06026  -0.00212   0.02943
 152       15F 0       -0.04311   0.00175   0.00108   0.00118   0.00006
 153       15F+1       -0.00004   0.00134   0.00420  -0.00024  -0.00285
 154       15F-1       -0.00002  -0.00402   0.00112   0.00063  -0.01834
 155       15F+2        0.00021   0.00965  -0.00268  -0.00011   0.01009
 156       15F-2        0.00002  -0.00314  -0.00925  -0.00040   0.00152
 157       15F+3       -0.00007  -0.00003   0.00021   0.00020  -0.00014
 158       15F-3       -0.00932   0.00076   0.00006   0.02297   0.00015
 159       16F 0        0.23375  -0.00925  -0.00488   0.08963   0.00010
 160       16F+1        0.00060  -0.00515  -0.01365   0.00061   0.00965
 161       16F-1       -0.00010   0.01378  -0.00302  -0.00206   0.06237
 162       16F+2       -0.00098  -0.04486   0.01266   0.00041  -0.04161
 163       16F-2        0.00025   0.01458   0.04365   0.00116  -0.00619
 164       16F+3        0.00014   0.00004  -0.00041  -0.00037   0.00031
 165       16F-3        0.01930  -0.00172  -0.00018  -0.04294  -0.00031
 166 6   F  1S          0.04008  -0.00116  -0.00031  -0.02254   0.00026
 167        2S          0.14094  -0.00379  -0.00082  -0.08557   0.00115
 168        3S         -0.07192   0.00231   0.00074   0.03653  -0.00022
 169        4S         -0.37972   0.00930   0.00200  -0.02173  -0.00682
 170        5S         -0.04517  -0.02669  -0.00054  -5.93200  -0.03845
 171        6PX        -0.00020  -0.00212  -0.00702   0.00000   0.00029
 172        6PY         0.00022   0.00687  -0.00202  -0.00002   0.00172
 173        6PZ         0.00542  -0.00036  -0.00021   0.00223   0.00002
 174        7PX         0.00083   0.01112   0.03617   0.00000  -0.00106
 175        7PY        -0.00109  -0.03552   0.01029   0.00007  -0.00624
 176        7PZ        -0.06400   0.00313   0.00157   0.00258  -0.00005
 177        8PX        -0.00397  -0.07845  -0.25202  -0.00062   0.00047
 178        8PY         0.00731   0.24956  -0.07136   0.00052   0.00205
 179        8PZ         0.63118  -0.02975  -0.01278  -0.24642  -0.00340
 180        9PX        -0.00619  -0.24975  -0.81058  -0.00188  -0.03397
 181        9PY         0.01481   0.80615  -0.23300  -0.00144  -0.22483
 182        9PZ        -0.85713   0.02961   0.01802  -2.49069  -0.01545
 183       10D 0        0.01142  -0.00023  -0.00011  -0.00796  -0.00001
 184       10D+1       -0.00006  -0.00441  -0.01427   0.00009   0.00038
 185       10D-1        0.00016   0.01408  -0.00406  -0.00021   0.00225
 186       10D+2       -0.00017  -0.00458   0.00146  -0.00003   0.00283
 187       10D-2        0.00027   0.00140   0.00472   0.00002   0.00046
 188       11D 0       -0.04221   0.00092   0.00052   0.01568  -0.00008
 189       11D+1        0.00014   0.01418   0.04585  -0.00027  -0.00072
 190       11D-1       -0.00053  -0.04525   0.01301   0.00060  -0.00403
 191       11D+2        0.00072   0.01546  -0.00503   0.00018  -0.00997
 192       11D-2       -0.00111  -0.00463  -0.01592  -0.00011  -0.00159
 193       12D 0        0.41786  -0.01454  -0.00692  -0.01092   0.00024
 194       12D+1        0.00055  -0.04233  -0.13187   0.00037  -0.00494
 195       12D-1        0.00238   0.13059  -0.03608  -0.00073  -0.03053
 196       12D+2       -0.00290  -0.05810   0.01939  -0.00051   0.01867
 197       12D-2        0.00442   0.01685   0.05957   0.00036   0.00294
 198       13F 0       -0.02741   0.00096   0.00056  -0.00761  -0.00008
 199       13F+1       -0.00023  -0.00545  -0.01808  -0.00011   0.00128
 200       13F-1        0.00030   0.01815  -0.00536  -0.00005   0.00797
 201       13F+2        0.00019   0.00855  -0.00276  -0.00016   0.00271
 202       13F-2       -0.00027  -0.00255  -0.00869   0.00012   0.00040
 203       13F+3        0.00010   0.00006  -0.00038  -0.00001  -0.00003
 204       13F-3        0.01258  -0.00011  -0.00003  -0.00143  -0.00016
 205       14F 0        0.06842  -0.00230  -0.00135   0.01189   0.00016
 206       14F+1        0.00083   0.01153   0.03919   0.00019  -0.00291
 207       14F-1       -0.00077  -0.03918   0.01185   0.00010  -0.01767
 208       14F+2       -0.00052  -0.02396   0.00769   0.00026  -0.00650
 209       14F-2        0.00072   0.00713   0.02416  -0.00015  -0.00099
 210       14F+3       -0.00014  -0.00010   0.00062   0.00003   0.00007
 211       14F-3       -0.01691   0.00008   0.00000   0.00270   0.00030
                         211
     Eigenvalues --     0.00000
   1 1   C  1S         -0.00120
   2        2S         -0.00744
   3        3S         -0.00045
   4        4S         -0.00351
   5        5S          0.03456
   6        6PX         0.00784
   7        6PY        -0.00115
   8        6PZ         0.00005
   9        7PX        -1.55005
  10        7PY         0.22567
  11        7PZ         0.00145
  12        8PX       -17.22051
  13        8PY         2.66721
  14        8PZ         0.02104
  15        9PX        -7.82367
  16        9PY         1.24330
  17        9PZ         0.01112
  18       10D 0        0.00055
  19       10D+1        0.00201
  20       10D-1       -0.00027
  21       10D+2        0.00289
  22       10D-2       -0.02200
  23       11D 0        0.00264
  24       11D+1        0.20814
  25       11D-1       -0.02954
  26       11D+2        0.04630
  27       11D-2       -0.42469
  28       12D 0        0.05441
  29       12D+1        1.27197
  30       12D-1       -0.20155
  31       12D+2       -0.11900
  32       12D-2        0.58409
  33       13F 0       -0.00014
  34       13F+1       -0.03740
  35       13F-1        0.00624
  36       13F+2        0.00144
  37       13F-2       -0.00934
  38       13F+3        0.00048
  39       13F-3       -0.00136
  40       14F 0       -0.00210
  41       14F+1        0.40262
  42       14F-1       -0.06343
  43       14F+2       -0.00955
  44       14F-2        0.07903
  45       14F+3       -0.00194
  46       14F-3        0.01079
  47 2   H  1S         -0.00459
  48        2S          0.32327
  49        3S          3.80714
  50        4S          1.69211
  51        5PX        -0.05045
  52        5PY        -0.01700
  53        5PZ        -0.00143
  54        6PX         0.50553
  55        6PY         0.19082
  56        6PZ         0.02350
  57        7PX         3.44548
  58        7PY         1.06316
  59        7PZ         0.11617
  60        8D 0       -0.00287
  61        8D+1       -0.00552
  62        8D-1       -0.00239
  63        8D+2       -0.00660
  64        8D-2       -0.02791
  65        9D 0       -0.04235
  66        9D+1        0.09102
  67        9D-1        0.04081
  68        9D+2       -0.03114
  69        9D-2        0.55681
  70 3   H  1S          0.02475
  71        2S         -2.09819
  72        3S        -24.17544
  73        4S        -10.44312
  74        5PX         0.08588
  75        5PY        -0.07092
  76        5PZ         0.01039
  77        6PX        -0.98570
  78        6PY         0.77823
  79        6PZ        -0.16114
  80        7PX        -5.39965
  81        7PY         4.56168
  82        7PZ        -0.75568
  83        8D 0        0.01761
  84        8D+1        0.01095
  85        8D-1       -0.00883
  86        8D+2       -0.02791
  87        8D-2        0.02745
  88        9D 0        0.24584
  89        9D+1       -0.20438
  90        9D-1        0.15744
  91        9D+2        0.04281
  92        9D-2        0.32839
  93 4   H  1S         -0.02279
  94        2S          1.80907
  95        3S         20.43926
  96        4S          8.74112
  97        5PX         0.06213
  98        5PY         0.07269
  99        5PZ        -0.00837
 100        6PX        -0.75531
 101        6PY        -0.80199
 102        6PZ         0.13367
 103        7PX        -3.95204
 104        7PY        -4.80537
 105        7PZ         0.64307
 106        8D 0       -0.01552
 107        8D+1        0.00783
 108        8D-1        0.00872
 109        8D+2        0.03333
 110        8D-2        0.02038
 111        9D 0       -0.21180
 112        9D+1       -0.15631
 113        9D-1       -0.15720
 114        9D+2       -0.20014
 115        9D-2        0.36115
 116 5   Cl 1S          0.00012
 117        2S          0.00182
 118        3S          0.00461
 119        4S         -0.00093
 120        5S         -0.03048
 121        6S         -0.04512
 122        7PX         0.00290
 123        7PY        -0.00043
 124        7PZ        -0.00002
 125        8PX         0.05771
 126        8PY        -0.00874
 127        8PZ        -0.00017
 128        9PX        -0.00975
 129        9PY         0.00141
 130        9PZ         0.00009
 131       10PX        -0.41315
 132       10PY         0.06404
 133       10PZ         0.02372
 134       11PX         0.25152
 135       11PY        -0.04303
 136       11PZ         0.00902
 137       12D 0       -0.00002
 138       12D+1        0.00342
 139       12D-1       -0.00037
 140       12D+2        0.00180
 141       12D-2       -0.01193
 142       13D 0       -0.00003
 143       13D+1       -0.02441
 144       13D-1        0.00315
 145       13D+2       -0.00649
 146       13D-2        0.04310
 147       14D 0       -0.00378
 148       14D+1        0.31551
 149       14D-1       -0.04851
 150       14D+2        0.02989
 151       14D-2       -0.19796
 152       15F 0        0.00009
 153       15F+1        0.01796
 154       15F-1       -0.00289
 155       15F+2        0.00151
 156       15F-2       -0.01017
 157       15F+3        0.00022
 158       15F-3        0.00000
 159       16F 0       -0.00032
 160       16F+1       -0.06089
 161       16F-1        0.00984
 162       16F+2       -0.00622
 163       16F-2        0.04149
 164       16F+3       -0.00048
 165       16F-3        0.00005
 166 6   F  1S          0.00016
 167        2S          0.00071
 168        3S         -0.00015
 169        4S         -0.00473
 170        5S         -0.03049
 171        6PX        -0.00168
 172        6PY         0.00024
 173        6PZ        -0.00003
 174        7PX         0.00602
 175        7PY        -0.00088
 176        7PZ         0.00011
 177        8PX        -0.00067
 178        8PY        -0.00004
 179        8PZ        -0.00206
 180        9PX         0.23001
 181        9PY        -0.03788
 182        9PZ        -0.01143
 183       10D 0       -0.00003
 184       10D+1       -0.00206
 185       10D-1        0.00030
 186       10D+2        0.00038
 187       10D-2       -0.00277
 188       11D 0        0.00001
 189       11D+1        0.00346
 190       11D-1       -0.00046
 191       11D+2       -0.00137
 192       11D-2        0.00984
 193       12D 0        0.00049
 194       12D+1        0.03243
 195       12D-1       -0.00502
 196       12D+2        0.00264
 197       12D-2       -0.01859
 198       13F 0       -0.00006
 199       13F+1       -0.00796
 200       13F-1        0.00124
 201       13F+2        0.00038
 202       13F-2       -0.00252
 203       13F+3        0.00004
 204       13F-3       -0.00007
 205       14F 0        0.00013
 206       14F+1        0.01771
 207       14F-1       -0.00269
 208       14F+2       -0.00090
 209       14F-2        0.00618
 210       14F+3       -0.00006
 211       14F-3        0.00013
          Condensed to atoms (all electrons):
              1          2          3          4          5          6
     1  C    7.018763  -0.009414  -0.009480  -0.013051  -0.050850  -0.099865
     2  H   -0.009414   0.547408   0.019527   0.021167  -0.018543   0.004241
     3  H   -0.009480   0.019527   0.547228   0.019670  -0.018699   0.004459
     4  H   -0.013051   0.021167   0.019670   0.547386  -0.018690   0.004532
     5  Cl  -0.050850  -0.018543  -0.018699  -0.018690  17.708971   0.026384
     6  F   -0.099865   0.004241   0.004459   0.004532   0.026384   9.907471
 Mulliken atomic charges:
              1
     1  C   -0.836102
     2  H    0.435614
     3  H    0.437296
     4  H    0.438986
     5  Cl  -0.628573
     6  F   -0.847220
 Sum of Mulliken atomic charges =  -1.00000
 Mulliken charges with hydrogens summed into heavy atoms:
              1
     1  C    0.475793
     5  Cl  -0.628573
     6  F   -0.847220
 Sum of Mulliken charges with hydrogens summed into heavy atoms =  -1.00000
 Electronic spatial extent (au):  <R**2>=            490.2701
 Charge=             -1.0000 electrons
 Dipole moment (field-independent basis, Debye):
    X=              0.0003    Y=             -0.0020    Z=              4.0672  Tot=              4.0672
 Quadrupole moment (field-independent basis, Debye-Ang):
   XX=            -28.1686   YY=            -28.1912   ZZ=            -62.8135
   XY=             -0.0107   XZ=             -0.0065   YZ=             -0.0120
 Traceless Quadrupole moment (field-independent basis, Debye-Ang):
   XX=             11.5559   YY=             11.5332   ZZ=            -23.0891
   XY=             -0.0107   XZ=             -0.0065   YZ=             -0.0120
 Octapole moment (field-independent basis, Debye-Ang**2):
  XXX=             -0.0141  YYY=             -0.9500  ZZZ=             49.6855  XYY=             -0.0155
  XXY=              0.9418  XXZ=             -4.2426  XZZ=             -0.0078  YZZ=              0.0184
  YYZ=             -4.2281  XYZ=              0.0070
 Hexadecapole moment (field-independent basis, Debye-Ang**3):
 XXXX=            -41.2203 YYYY=            -41.2341 ZZZZ=           -761.5933 XXXY=              0.0102
 XXXZ=             -0.0600 YYYX=              0.0094 YYYZ=              0.4994 ZZZX=             -0.0726
 ZZZY=             -0.2066 XXYY=            -13.7548 XXZZ=           -103.3715 YYZZ=           -103.3779
 XXYZ=             -0.6778 YYXZ=             -0.0128 ZZXY=              0.0032
 N-N= 8.500489149939D+01 E-N=-1.604225846502D+03  KE= 5.992028543948D+02
 1\1\GINC-TRAPISTA\SP\RQCISD-FC\Aug-CC-pVTZ\C1H3Cl1F1(1-)\BRUNS\24-Aug-
 2020\0\\# QCISD aug-cc-pvtz nosymm density=current output=wfn\\clch3f_
 ts-wavefunction\\-1,1\C,0,0.000175,0.000029,-0.497709\H,0,0.000019,-1.
 05257,-0.620726\H,0,-0.911312,0.526365,-0.621245\H,0,0.91175,0.516132,
 -0.62157\Cl,0,0.000555,0.000962,1.644718\F,0,-0.000186,-0.000921,-2.59
 3468\\Version=EM64L-G09RevB.01\HF=-598.6170982\MP2=-599.2911675\MP3=-5
 99.3098746\MP4D=-599.3247552\MP4DQ=-599.3103232\MP4SDQ=-599.3196835\QC
 ISD=-599.3190649\RMSD=9.438e-09\Dipole=0.0006108,-0.000888,1.587712\Qu
 adrupole=8.5915043,8.5746529,-17.1661572,-0.0079421,-0.004849,-0.00895
 39\PG=C01 [X(C1H3Cl1F1)]\\@

 Writing a WFN file to GAUSSIAN.wfn.


 I CLAIM NOT TO HAVE CONTROLLED EVENTS,
 BUT CONFESS PLAINLY THAT EVENTS HAVE CONTROLLED ME.

                                         A. LINCOLN
 Job cpu time:  0 days  3 hours 16 minutes  8.9 seconds.
 File lengths (MBytes):  RWF=  29002 Int=      0 D2E=      0 Chk=      4 Scr=      1
 Normal termination of Gaussian 09 at Mon Aug 24 06:23:44 2020.
