 clch3f_ts-wavefunction
GAUSSIAN            211 MOL ORBITALS    339 PRIMITIVES        6 NUCLEI
  C    1    (CENTRE  1)   0.00033070  0.00005480 -0.94053370  CHARGE =  6.0
  H    2    (CENTRE  2)   0.00003590 -1.97017177 -1.17300214  CHARGE =  1.0
  H    3    (CENTRE  3)  -1.72213010  0.99468570 -1.17398291  CHARGE =  1.0
  H    4    (CENTRE  4)   1.72295780  0.99424539 -1.17459707  CHARGE =  1.0
  Cl   5    (CENTRE  5)   0.00104880  0.00181792  3.10806659  CHARGE = 17.0
  F    6    (CENTRE  6)  -0.00035149 -0.00174044 -4.90094425  CHARGE =  9.0
CENTRE ASSIGNMENTS    1  1  1  1  1  1  1  1  1  1  1  1  1  1  1  1  1  1  1  1
CENTRE ASSIGNMENTS    1  1  1  1  1  1  1  1  1  1  1  1  1  1  1  1  1  1  1  1
CENTRE ASSIGNMENTS    1  1  1  1  1  1  1  1  1  1  1  1  1  1  1  1  1  1  1  1
CENTRE ASSIGNMENTS    1  1  1  1  1  1  1  1  1  1  1  1  2  2  2  2  2  2  2  2
CENTRE ASSIGNMENTS    2  2  2  2  2  2  2  2  2  2  2  2  2  2  2  2  2  2  2  3
CENTRE ASSIGNMENTS    3  3  3  3  3  3  3  3  3  3  3  3  3  3  3  3  3  3  3  3
CENTRE ASSIGNMENTS    3  3  3  3  3  3  4  4  4  4  4  4  4  4  4  4  4  4  4  4
CENTRE ASSIGNMENTS    4  4  4  4  4  4  4  4  4  4  4  4  4  5  5  5  5  5  5  5
CENTRE ASSIGNMENTS    5  5  5  5  5  5  5  5  5  5  5  5  5  5  5  5  5  5  5  5
CENTRE ASSIGNMENTS    5  5  5  5  5  5  5  5  5  5  5  5  5  5  5  5  5  5  5  5
CENTRE ASSIGNMENTS    5  5  5  5  5  5  5  5  5  5  5  5  5  5  5  5  5  5  5  5
CENTRE ASSIGNMENTS    5  5  5  5  5  5  5  5  5  5  5  5  5  5  5  5  5  5  5  5
CENTRE ASSIGNMENTS    5  5  5  5  5  5  5  5  5  5  5  5  5  5  5  5  5  5  5  5
CENTRE ASSIGNMENTS    5  5  5  5  5  5  5  6  6  6  6  6  6  6  6  6  6  6  6  6
CENTRE ASSIGNMENTS    6  6  6  6  6  6  6  6  6  6  6  6  6  6  6  6  6  6  6  6
CENTRE ASSIGNMENTS    6  6  6  6  6  6  6  6  6  6  6  6  6  6  6  6  6  6  6  6
CENTRE ASSIGNMENTS    6  6  6  6  6  6  6  6  6  6  6  6  6  6  6  6  6  6  6
TYPE ASSIGNMENTS      1  1  1  1  1  1  1  1  1  1  1  1  1  1  1  1  2  2  2  3
TYPE ASSIGNMENTS      3  3  4  4  4  2  3  4  2  3  4  2  3  4  5  6  7  8  9 10
TYPE ASSIGNMENTS      5  6  7  8  9 10  5  6  7  8  9 10 11 12 13 17 14 15 18 19
TYPE ASSIGNMENTS     16 20 11 12 13 17 14 15 18 19 16 20  1  1  1  1  1  1  2  3
TYPE ASSIGNMENTS      4  2  3  4  2  3  4  5  6  7  8  9 10  5  6  7  8  9 10  1
TYPE ASSIGNMENTS      1  1  1  1  1  2  3  4  2  3  4  2  3  4  5  6  7  8  9 10
TYPE ASSIGNMENTS      5  6  7  8  9 10  1  1  1  1  1  1  2  3  4  2  3  4  2  3
TYPE ASSIGNMENTS      4  5  6  7  8  9 10  5  6  7  8  9 10  1  1  1  1  1  1  1
TYPE ASSIGNMENTS      1  1  1  1  1  1  1  1  1  1  1  1  1  1  1  1  1  1  1  1
TYPE ASSIGNMENTS      1  1  1  1  2  2  2  2  2  2  3  3  3  3  3  3  4  4  4  4
TYPE ASSIGNMENTS      4  4  2  2  2  2  2  2  3  3  3  3  3  3  4  4  4  4  4  4
TYPE ASSIGNMENTS      2  3  4  2  3  4  2  3  4  5  6  7  8  9 10  5  6  7  8  9
TYPE ASSIGNMENTS     10  5  6  7  8  9 10 11 12 13 17 14 15 18 19 16 20 11 12 13
TYPE ASSIGNMENTS     17 14 15 18 19 16 20  1  1  1  1  1  1  1  1  1  1  1  1  1
TYPE ASSIGNMENTS      1  1  1  2  2  2  3  3  3  4  4  4  2  3  4  2  3  4  2  3
TYPE ASSIGNMENTS      4  5  6  7  8  9 10  5  6  7  8  9 10  5  6  7  8  9 10 11
TYPE ASSIGNMENTS     12 13 17 14 15 18 19 16 20 11 12 13 17 14 15 18 19 16 20
EXPONENTS  0.8236000D+04 0.1235000D+04 0.2808000D+03 0.7927000D+02 0.2559000D+02
EXPONENTS  0.8997000D+01 0.3319000D+01 0.2808000D+03 0.7927000D+02 0.2559000D+02
EXPONENTS  0.8997000D+01 0.3319000D+01 0.3643000D+00 0.9059000D+00 0.1285000D+00
EXPONENTS  0.4402000D-01 0.1871000D+02 0.4133000D+01 0.1200000D+01 0.1871000D+02
EXPONENTS  0.4133000D+01 0.1200000D+01 0.1871000D+02 0.4133000D+01 0.1200000D+01
EXPONENTS  0.3827000D+00 0.3827000D+00 0.3827000D+00 0.1209000D+00 0.1209000D+00
EXPONENTS  0.1209000D+00 0.3569000D-01 0.3569000D-01 0.3569000D-01 0.1097000D+01
EXPONENTS  0.1097000D+01 0.1097000D+01 0.1097000D+01 0.1097000D+01 0.1097000D+01
EXPONENTS  0.3180000D+00 0.3180000D+00 0.3180000D+00 0.3180000D+00 0.3180000D+00
EXPONENTS  0.3180000D+00 0.1000000D+00 0.1000000D+00 0.1000000D+00 0.1000000D+00
EXPONENTS  0.1000000D+00 0.1000000D+00 0.7610000D+00 0.7610000D+00 0.7610000D+00
EXPONENTS  0.7610000D+00 0.7610000D+00 0.7610000D+00 0.7610000D+00 0.7610000D+00
EXPONENTS  0.7610000D+00 0.7610000D+00 0.2680000D+00 0.2680000D+00 0.2680000D+00
EXPONENTS  0.2680000D+00 0.2680000D+00 0.2680000D+00 0.2680000D+00 0.2680000D+00
EXPONENTS  0.2680000D+00 0.2680000D+00 0.3387000D+02 0.5095000D+01 0.1159000D+01
EXPONENTS  0.3258000D+00 0.1027000D+00 0.2526000D-01 0.1407000D+01 0.1407000D+01
EXPONENTS  0.1407000D+01 0.3880000D+00 0.3880000D+00 0.3880000D+00 0.1020000D+00
EXPONENTS  0.1020000D+00 0.1020000D+00 0.1057000D+01 0.1057000D+01 0.1057000D+01
EXPONENTS  0.1057000D+01 0.1057000D+01 0.1057000D+01 0.2470000D+00 0.2470000D+00
EXPONENTS  0.2470000D+00 0.2470000D+00 0.2470000D+00 0.2470000D+00 0.3387000D+02
EXPONENTS  0.5095000D+01 0.1159000D+01 0.3258000D+00 0.1027000D+00 0.2526000D-01
EXPONENTS  0.1407000D+01 0.1407000D+01 0.1407000D+01 0.3880000D+00 0.3880000D+00
EXPONENTS  0.3880000D+00 0.1020000D+00 0.1020000D+00 0.1020000D+00 0.1057000D+01
EXPONENTS  0.1057000D+01 0.1057000D+01 0.1057000D+01 0.1057000D+01 0.1057000D+01
EXPONENTS  0.2470000D+00 0.2470000D+00 0.2470000D+00 0.2470000D+00 0.2470000D+00
EXPONENTS  0.2470000D+00 0.3387000D+02 0.5095000D+01 0.1159000D+01 0.3258000D+00
EXPONENTS  0.1027000D+00 0.2526000D-01 0.1407000D+01 0.1407000D+01 0.1407000D+01
EXPONENTS  0.3880000D+00 0.3880000D+00 0.3880000D+00 0.1020000D+00 0.1020000D+00
EXPONENTS  0.1020000D+00 0.1057000D+01 0.1057000D+01 0.1057000D+01 0.1057000D+01
EXPONENTS  0.1057000D+01 0.1057000D+01 0.2470000D+00 0.2470000D+00 0.2470000D+00
EXPONENTS  0.2470000D+00 0.2470000D+00 0.2470000D+00 0.4561000D+06 0.6833000D+05
EXPONENTS  0.1555000D+05 0.4405000D+04 0.1439000D+04 0.5204000D+03 0.2031000D+03
EXPONENTS  0.8396000D+02 0.3620000D+02 0.1583000D+02 0.6334000D+01 0.4405000D+04
EXPONENTS  0.1439000D+04 0.5204000D+03 0.2031000D+03 0.8396000D+02 0.3620000D+02
EXPONENTS  0.1583000D+02 0.6334000D+01 0.2694000D+01 0.1439000D+04 0.2031000D+03
EXPONENTS  0.8396000D+02 0.3620000D+02 0.1583000D+02 0.6334000D+01 0.2694000D+01
EXPONENTS  0.4313000D+00 0.9768000D+00 0.1625000D+00 0.5910000D-01 0.6633000D+03
EXPONENTS  0.1568000D+03 0.4998000D+02 0.1842000D+02 0.7240000D+01 0.2922000D+01
EXPONENTS  0.6633000D+03 0.1568000D+03 0.4998000D+02 0.1842000D+02 0.7240000D+01
EXPONENTS  0.2922000D+01 0.6633000D+03 0.1568000D+03 0.4998000D+02 0.1842000D+02
EXPONENTS  0.7240000D+01 0.2922000D+01 0.1568000D+03 0.4998000D+02 0.1842000D+02
EXPONENTS  0.7240000D+01 0.2922000D+01 0.3818000D+00 0.1568000D+03 0.4998000D+02
EXPONENTS  0.1842000D+02 0.7240000D+01 0.2922000D+01 0.3818000D+00 0.1568000D+03
EXPONENTS  0.4998000D+02 0.1842000D+02 0.7240000D+01 0.2922000D+01 0.3818000D+00
EXPONENTS  0.1022000D+01 0.1022000D+01 0.1022000D+01 0.1301000D+00 0.1301000D+00
EXPONENTS  0.1301000D+00 0.4190000D-01 0.4190000D-01 0.4190000D-01 0.1046000D+01
EXPONENTS  0.1046000D+01 0.1046000D+01 0.1046000D+01 0.1046000D+01 0.1046000D+01
EXPONENTS  0.3440000D+00 0.3440000D+00 0.3440000D+00 0.3440000D+00 0.3440000D+00
EXPONENTS  0.3440000D+00 0.1350000D+00 0.1350000D+00 0.1350000D+00 0.1350000D+00
EXPONENTS  0.1350000D+00 0.1350000D+00 0.7060000D+00 0.7060000D+00 0.7060000D+00
EXPONENTS  0.7060000D+00 0.7060000D+00 0.7060000D+00 0.7060000D+00 0.7060000D+00
EXPONENTS  0.7060000D+00 0.7060000D+00 0.3120000D+00 0.3120000D+00 0.3120000D+00
EXPONENTS  0.3120000D+00 0.3120000D+00 0.3120000D+00 0.3120000D+00 0.3120000D+00
EXPONENTS  0.3120000D+00 0.3120000D+00 0.1950000D+05 0.2923000D+04 0.6645000D+03
EXPONENTS  0.1875000D+03 0.6062000D+02 0.2142000D+02 0.7950000D+01 0.6645000D+03
EXPONENTS  0.1875000D+03 0.6062000D+02 0.2142000D+02 0.7950000D+01 0.8815000D+00
EXPONENTS  0.2257000D+01 0.3041000D+00 0.9158000D-01 0.4388000D+02 0.9926000D+01
EXPONENTS  0.2930000D+01 0.4388000D+02 0.9926000D+01 0.2930000D+01 0.4388000D+02
EXPONENTS  0.9926000D+01 0.2930000D+01 0.9132000D+00 0.9132000D+00 0.9132000D+00
EXPONENTS  0.2672000D+00 0.2672000D+00 0.2672000D+00 0.7361000D-01 0.7361000D-01
EXPONENTS  0.7361000D-01 0.3107000D+01 0.3107000D+01 0.3107000D+01 0.3107000D+01
EXPONENTS  0.3107000D+01 0.3107000D+01 0.8550000D+00 0.8550000D+00 0.8550000D+00
EXPONENTS  0.8550000D+00 0.8550000D+00 0.8550000D+00 0.2920000D+00 0.2920000D+00
EXPONENTS  0.2920000D+00 0.2920000D+00 0.2920000D+00 0.2920000D+00 0.1917000D+01
EXPONENTS  0.1917000D+01 0.1917000D+01 0.1917000D+01 0.1917000D+01 0.1917000D+01
EXPONENTS  0.1917000D+01 0.1917000D+01 0.1917000D+01 0.1917000D+01 0.7240000D+00
EXPONENTS  0.7240000D+00 0.7240000D+00 0.7240000D+00 0.7240000D+00 0.7240000D+00
EXPONENTS  0.7240000D+00 0.7240000D+00 0.7240000D+00 0.7240000D+00
MO    1     MO 0.0        OCC NO =    2.0000300  ORB. ENERGY =    0.000000
  0.19821841D-08  0.36951905D-08  0.62453755D-08  0.93879642D-08  0.11531432D-07
  0.97321222D-08  0.36595321D-08 -0.50964698D-11 -0.38092954D-10 -0.14236207D-09
 -0.39716800D-09 -0.53209562D-09  0.62830571D-09  0.10543379D-08  0.47597448D-08
  0.21650611D-08  0.11108230D-03  0.10414672D-03  0.74158670D-04 -0.33555436D-07
 -0.31460354D-07 -0.22401646D-07 -0.21884952D-07 -0.20518534D-07 -0.14610419D-07
  0.36313587D-03 -0.10986295D-06 -0.60935509D-07  0.46388589D-03 -0.13967388D-06
 -0.85740515D-07  0.93372441D-05 -0.28770687D-08 -0.16881875D-08 -0.84681898D-07
 -0.41417190D-08  0.88823617D-07  0.12907311D-03 -0.50909693D-03  0.12870936D-06
  0.33621978D-07 -0.16258857D-07 -0.17363121D-07  0.39169816D-03  0.97375565D-04
 -0.98571940D-07 -0.83601980D-08 -0.36971360D-08  0.12057334D-07  0.82768110D-04
 -0.66401760D-04  0.54098346D-08  0.93472669D-04 -0.27978396D-07  0.66318215D-07
  0.91114897D-04 -0.19890434D-07 -0.18034237D-06 -0.37153290D-03  0.10382562D-06
 -0.18612276D-07  0.46790954D-04 -0.26593917D-04  0.83203618D-08 -0.19656057D-07
 -0.27585730D-04  0.25995250D-07  0.57390978D-07  0.10736748D-03 -0.50956336D-07
  0.15771933D-08  0.10273778D-03  0.69310914D-08  0.12500509D-07  0.18431993D-07
 -0.67077000D-07 -0.19590882D-06  0.18072641D-08  0.33975811D-05 -0.13925457D-07
 -0.51344699D-08  0.88048896D-04 -0.62068334D-07 -0.63442772D-07  0.77199968D-04
 -0.39189578D-07 -0.17342034D-07  0.15310204D-07 -0.11360314D-07 -0.39498904D-08
  0.31282584D-04 -0.47322844D-04 -0.50060942D-07  0.22430753D-07 -0.14474020D-08
 -0.20983351D-07  0.29624131D-04  0.63153775D-04 -0.19187802D-07 -0.34724094D-04
 -0.62626333D-04 -0.92342491D-04  0.32047502D-03  0.97825810D-03 -0.10477733D-04
  0.55222253D-04 -0.29132910D-04  0.20251014D-04  0.23779007D-03 -0.90196688D-04
  0.23617834D-03  0.14866182D-03 -0.42199024D-04  0.19251721D-04  0.10193781D-04
 -0.69017805D-04  0.58824025D-04 -0.10799131D-03  0.21164329D-03 -0.14919843D-03
 -0.11004045D-04 -0.37163881D-04  0.48167927D-04 -0.16414494D-04  0.39021384D-04
  0.13249432D-04  0.34717350D-04  0.62614171D-04  0.92324558D-04 -0.32041410D-03
 -0.97806550D-03  0.10475639D-04  0.55213051D-04  0.29111618D-04 -0.20265894D-04
  0.23769807D-03  0.90090045D-04 -0.23621866D-03  0.14865059D-03  0.42126951D-04
 -0.19301256D-04 -0.10148425D-04  0.69036482D-04 -0.58888057D-04 -0.10787065D-03
  0.21159688D-03  0.14916896D-03  0.11006803D-04  0.37165700D-04 -0.48172503D-04
 -0.16396473D-04  0.38981399D-04 -0.13271997D-04 -0.30534458D-07 -0.57126712D-07
 -0.98702288D-07 -0.16000801D-06 -0.24298751D-06 -0.33772978D-06 -0.40153483D-06
 -0.35770118D-06 -0.17764197D-06 -0.28598854D-07 -0.30173480D-09 -0.14273823D-09
 -0.47615084D-08 -0.16592904D-07 -0.59753732D-07 -0.13171967D-06 -0.18541878D-06
  0.88450800D-08  0.24265267D-06  0.14347901D-06 -0.35524740D-11 -0.43029135D-10
 -0.89732725D-10 -0.25733783D-09 -0.13363195D-10  0.11097655D-08  0.28674210D-08
 -0.23362397D-08  0.84599840D-08  0.97076581D-09 -0.27161886D-09  0.11610750D+02
  0.15294073D+02  0.16871757D+02  0.14013315D+02  0.74414592D+01  0.19199354D+01
 -0.34709370D-02 -0.45720359D-02 -0.50436713D-02 -0.41891639D-02 -0.22245623D-02
 -0.57394870D-03 -0.20592158D-02 -0.27124689D-02 -0.29922778D-02 -0.24853210D-02
 -0.13197744D-02 -0.34050869D-03 -0.45957631D-03  0.44428881D-02  0.62649359D-02
  0.89605157D-02 -0.45374790D-04 -0.82176380D-02  0.13740802D-06 -0.13283723D-05
 -0.18731436D-05 -0.26790908D-05  0.13566539D-07  0.24569790D-05  0.81416394D-07
 -0.78708131D-06 -0.11098668D-05 -0.15874031D-05  0.80383860D-08  0.14557984D-05
  0.76651389D-01 -0.22914773D-04 -0.13592978D-04 -0.64357665D-03  0.19229692D-06
  0.11349989D-06 -0.57932095D-04  0.17322009D-07  0.10318656D-07 -0.17339091D-06
 -0.75066890D-09  0.17414158D-06  0.23806988D-04 -0.98216494D-03  0.29000335D-06
  0.62717452D-07  0.56775682D-10 -0.62774228D-07 -0.85383680D-05  0.35673597D-03
 -0.10558009D-06 -0.10761544D-07 -0.17721911D-09  0.10938763D-07  0.24671129D-05
 -0.61121294D-04  0.17876988D-07  0.23177193D-05 -0.77566666D-09  0.15596015D-08
  0.24219229D-05  0.11891338D-07 -0.13736732D-08 -0.93750807D-05 -0.95643381D-08
 -0.33051312D-08  0.69873449D-04  0.14717277D-04 -0.44158213D-08  0.10379583D-07
  0.14691317D-04 -0.70101564D-08 -0.29266406D-07 -0.58843148D-04  0.20257620D-07
 -0.18723442D-08 -0.14167810D-04  0.45037344D-08  0.83949687D-08  0.14231342D-07
  0.21548177D-07  0.26939967D-07  0.23173203D-07  0.88874219D-08 -0.10875346D-10
 -0.14396922D-09 -0.52292240D-09 -0.15512394D-08 -0.17874901D-08  0.21711730D-08
  0.11381703D-09 -0.35062572D-08 -0.36419539D-08 -0.29106830D-03 -0.28465844D-03
 -0.18808586D-03  0.86451624D-07  0.84547800D-07  0.55864306D-07  0.48467124D-07
  0.47399789D-07  0.31319045D-07 -0.87381037D-05  0.11806584D-08  0.35855220D-08
 -0.66783033D-04  0.20925476D-07  0.73010888D-08 -0.19585992D-04  0.58901680D-08
  0.29759768D-08 -0.17532217D-07 -0.69116450D-08  0.24443862D-07  0.14181111D-03
 -0.13181279D-03  0.15366473D-07  0.14750273D-07  0.33775491D-08 -0.18127822D-07
 -0.71125612D-04  0.10155344D-03 -0.18486460D-07 -0.10723945D-07 -0.11919050D-08
  0.11915850D-07  0.36001540D-04 -0.73983494D-04  0.16749174D-07 -0.71101003D-04
  0.22544627D-07 -0.48152329D-07 -0.72353500D-04 -0.43917801D-07  0.11671124D-06
  0.28565651D-03 -0.23716081D-07  0.27745749D-07 -0.37625372D-03  0.25269705D-04
 -0.80193807D-08  0.16882825D-07  0.25656493D-04  0.13120925D-07 -0.41727552D-07
 -0.10146561D-03  0.10937217D-07 -0.89209236D-08  0.11946049D-03
MO    2     MO 0.0        OCC NO =    2.0000300  ORB. ENERGY =    0.000000
  0.14329398D-04  0.26712884D-04  0.45148413D-04  0.67866486D-04  0.83361823D-04
  0.70354437D-04  0.26455106D-04  0.19131532D-07  0.14299635D-06  0.53441001D-06
  0.14909207D-05  0.19974227D-05 -0.23585838D-05 -0.84665190D-06 -0.23837117D-04
 -0.53692825D-06  0.33569363D-07  0.31473411D-07  0.22410944D-07  0.11349488D-03
  0.10640866D-03  0.75769306D-04 -0.11526460D-06 -0.10806789D-06 -0.76950778D-07
  0.11045029D-06  0.37625852D-03 -0.46040151D-05  0.13970425D-06  0.46970039D-03
  0.15746322D-05  0.26976533D-08  0.93014687D-05  0.13549113D-07  0.66184520D-04
 -0.66803966D-04  0.61944644D-06 -0.10212086D-06 -0.17534353D-06 -0.50668484D-03
  0.19625906D-03 -0.19691810D-03  0.65904190D-06 -0.15441140D-07 -0.39097479D-07
  0.10127509D-03  0.41167785D-04 -0.41239302D-04  0.71516531D-07 -0.18538332D-07
 -0.34172537D-07 -0.66334845D-04  0.32106347D-07  0.93063766D-04  0.10845639D-05
  0.22525050D-07  0.93148133D-04  0.25853940D-04 -0.11884409D-06 -0.37233943D-03
 -0.29107632D-04 -0.17006834D-06  0.78781017D-09 -0.26566245D-04  0.21609753D-06
 -0.16083836D-07 -0.27851987D-04  0.50479312D-04  0.13720405D-07  0.10755072D-03
 -0.51127604D-04  0.39307362D-07 -0.39277189D-04 -0.70838028D-04 -0.10445063D-03
  0.38741438D-03  0.11522920D-02 -0.12124910D-04  0.14919065D-07  0.75572947D-04
  0.26702789D-04  0.10173144D-06  0.29292475D-03  0.27866268D-03  0.40071091D-07
  0.17495240D-03  0.22383057D-04 -0.11015017D-03  0.40187535D-04  0.69962631D-04
  0.97713064D-07  0.94379245D-07  0.30216903D-03 -0.43990048D-04 -0.12424011D-04
  0.56414059D-04  0.18851724D-07  0.50247383D-07  0.31644899D-04  0.20063881D-04
  0.36186036D-04  0.53356289D-04 -0.18296855D-03 -0.56732247D-03  0.61174606D-05
 -0.29130950D-04  0.21178161D-04 -0.11845917D-04 -0.90603978D-04  0.13615002D-03
 -0.13625026D-03 -0.42734716D-04  0.10056087D-03 -0.11298565D-04  0.84881832D-05
  0.24725981D-04 -0.33214165D-04  0.80366734D-04 -0.14969518D-03  0.39627727D-04
  0.20703011D-04  0.68502070D-05 -0.27553218D-04  0.26752946D-04  0.12996029D-04
  0.54029603D-04  0.20075610D-04  0.36207189D-04  0.53387479D-04 -0.18307861D-03
 -0.56766020D-03  0.61213552D-05  0.29150671D-04  0.21180779D-04 -0.11862860D-04
  0.90672121D-04  0.13615610D-03 -0.13636475D-03  0.42807735D-04  0.10056476D-03
 -0.11320937D-04  0.85170637D-05  0.24770143D-04 -0.33287207D-04 -0.80379233D-04
  0.14974920D-03  0.39671283D-04  0.20695294D-04  0.68697778D-05 -0.27565072D-04
 -0.26746640D-04 -0.13003246D-04  0.54038060D-04 -0.58215672D-04 -0.10891531D-03
 -0.18818150D-03 -0.30506432D-03 -0.46326944D-03 -0.64390094D-03 -0.76554888D-03
 -0.68197754D-03 -0.33868447D-03 -0.54525334D-04 -0.57527448D-06 -0.27349105D-06
 -0.91232036D-05 -0.31792538D-04 -0.11449008D-03 -0.25237913D-03 -0.35526836D-03
  0.16947458D-04  0.46493034D-03  0.27491040D-03 -0.51559197D-08 -0.62450778D-07
 -0.13023451D-06 -0.37348991D-06 -0.19394811D-07  0.16106696D-05  0.41616610D-05
 -0.33907255D-05  0.17043721D-04 -0.23469408D-05  0.34528195D-07  0.34692080D-02
  0.45697585D-02  0.50411589D-02  0.41870772D-02  0.22234542D-02  0.57366280D-03
  0.11610734D+02  0.15294053D+02  0.16871735D+02  0.14013297D+02  0.74414494D+01
  0.19199328D+01 -0.97276487D-02 -0.12813589D-01 -0.14135394D-01 -0.11740552D-01
 -0.62345588D-02 -0.16085488D-02 -0.13728063D-06  0.13271408D-05  0.18714071D-05
  0.26766072D-05 -0.13553962D-07 -0.24547012D-05 -0.45954279D-03  0.44425640D-02
  0.62644789D-02  0.89598620D-02 -0.45371480D-04 -0.82170386D-02  0.41953347D-06
 -0.40557797D-05 -0.57190727D-05 -0.81797869D-05  0.41421289D-07  0.75016361D-05
  0.22902829D-04  0.76653268D-01 -0.65147503D-04 -0.19227020D-06 -0.64338373D-03
  0.88033387D-06 -0.17302955D-07 -0.57917863D-04  0.41349535D-07  0.12268569D-04
 -0.13437205D-04  0.11686363D-05 -0.17668658D-06 -0.29673080D-06 -0.98150106D-03
 -0.41958548D-05  0.47074707D-05 -0.51161594D-06  0.64151582D-07  0.10753696D-06
  0.35687057D-03  0.12238039D-05 -0.12612207D-05  0.37416886D-07 -0.10991489D-07
 -0.18634368D-07 -0.61064691D-04  0.68366697D-08  0.24289306D-05  0.59931605D-07
 -0.54553079D-08  0.21290039D-05  0.34658245D-04 -0.15054701D-07 -0.94157956D-05
 -0.34838040D-04 -0.97623690D-08  0.31155675D-08  0.14713728D-04  0.53745673D-07
  0.55838049D-08  0.14812226D-04 -0.70699932D-05 -0.14930507D-07 -0.58953410D-04
  0.69087562D-05 -0.25092447D-07  0.23518871D-05  0.43839216D-05  0.74317237D-05
  0.11252635D-04  0.14068272D-04  0.12101237D-04  0.46410847D-05  0.16292101D-08
  0.21567691D-07  0.78337779D-07  0.23238754D-06  0.26777971D-06 -0.32525834D-06
  0.28819609D-06  0.46431933D-06 -0.16281410D-06 -0.87072786D-07 -0.85155283D-07
 -0.56265696D-07 -0.28698379D-03 -0.28066388D-03 -0.18544649D-03 -0.42254438D-05
 -0.41323917D-05 -0.27304459D-05 -0.41905657D-08 -0.84308981D-05 -0.13513396D-05
 -0.18672870D-07 -0.66018670D-04  0.56317965D-06 -0.58054104D-08 -0.19500639D-04
 -0.63761931D-07  0.70807490D-04 -0.70959634D-04  0.15214429D-06 -0.34558251D-07
 -0.63485623D-07 -0.13225883D-03 -0.35528626D-04  0.35692097D-04 -0.16347094D-06
  0.23349327D-07  0.42158797D-07  0.10155353D-03  0.17931717D-04 -0.18263497D-04
  0.33177976D-06 -0.15540290D-07 -0.27230092D-07 -0.73609041D-04 -0.52175825D-07
 -0.70781052D-04 -0.67741078D-06  0.10295057D-07 -0.71168411D-04 -0.18861266D-03
  0.14623242D-06  0.28351157D-03  0.19064490D-03  0.15199345D-06  0.17323986D-07
  0.25145730D-04  0.25433739D-06 -0.25683547D-08  0.25241476D-04  0.59872491D-04
 -0.49403603D-07 -0.10067867D-03 -0.60635503D-04 -0.52769143D-07
MO    3     MO 0.0        OCC NO =    2.0000210  ORB. ENERGY =    0.000000
 -0.14440131D-01 -0.26919314D-01 -0.45497308D-01 -0.68390940D-01 -0.84006020D-01
 -0.70898117D-01 -0.26659544D-01 -0.38054511D-05 -0.28443389D-04 -0.10629944D-03
 -0.29655888D-03 -0.39730714D-03  0.46914566D-03 -0.87317336D-03 -0.19431061D-02
 -0.82787640D-04  0.20816126D-06  0.19516441D-06  0.13896869D-06 -0.40306359D-05
 -0.37789774D-05 -0.26908570D-05  0.11690238D-02  0.10960341D-02  0.78044158D-03
  0.10747505D-06  0.14388015D-04  0.61023598D-03 -0.65786392D-07  0.47079221D-05
 -0.38040965D-03  0.81444613D-09  0.20063295D-07  0.46592359D-05 -0.10400132D-03
 -0.10884921D-03  0.21285053D-03 -0.25525021D-08  0.11327292D-06 -0.30331125D-06
 -0.20303413D-04 -0.26460149D-04  0.46763562D-04 -0.27987450D-08  0.22891661D-07
 -0.30131160D-05  0.11568080D-04  0.11155930D-04 -0.22724010D-04  0.18432955D-09
 -0.12001789D-07  0.28427524D-06 -0.16029423D-07  0.36470303D-04  0.79450557D-05
  0.39734647D-07 -0.10858623D-03 -0.12490300D-04  0.83536232D-08 -0.82467601D-06
 -0.11344867D-04  0.38676347D-07  0.28824076D-08  0.51549848D-04 -0.85886417D-04
  0.82085825D-07 -0.15480489D-03  0.12837765D-03 -0.90733048D-07  0.15534407D-06
  0.12928160D-03  0.55142771D-07 -0.37586358D-05 -0.67788545D-05 -0.99954170D-05
  0.76861364D-03  0.25235267D-03  0.53294001D-05  0.18355002D-07  0.99556392D-04
  0.31522869D-04  0.25415681D-07  0.20088833D-03 -0.69897693D-05  0.13363194D-07
  0.46448566D-04  0.39827337D-04 -0.74445475D-04  0.53373697D-04  0.21071777D-04
  0.46910847D-07  0.44385091D-07  0.76978581D-04 -0.99071485D-05 -0.11572409D-04
  0.21479558D-04 -0.65589527D-08  0.65199403D-08 -0.35286293D-04 -0.49561723D-05
 -0.89386609D-05 -0.13180050D-04  0.74611482D-03  0.23160817D-03  0.50105801D-05
  0.82240345D-04 -0.48322248D-04  0.28031909D-04  0.16966495D-03 -0.96408121D-04
 -0.40430037D-05  0.37560487D-04 -0.21072894D-04  0.38635754D-04  0.21435893D-04
 -0.41808914D-04  0.20373022D-04 -0.10949034D-03  0.65976175D-04 -0.37564282D-04
 -0.11361547D-04 -0.10316324D-04  0.21677871D-04  0.29112746D-05 -0.30022264D-04
  0.17073055D-04 -0.49559676D-05 -0.89382917D-05 -0.13179506D-04  0.74611789D-03
  0.23160526D-03  0.50106008D-05 -0.82242906D-04 -0.48301400D-04  0.28061623D-04
 -0.16969099D-03 -0.96365909D-04 -0.39813145D-05 -0.37551630D-04 -0.21063413D-04
  0.38649033D-04  0.21440317D-04 -0.41836317D-04  0.20396000D-04  0.10944473D-03
 -0.65987419D-04 -0.37587547D-04 -0.11351619D-04 -0.10315557D-04  0.21667176D-04
 -0.29044527D-05  0.30049767D-04  0.17066375D-04 -0.15454912D+00 -0.28914490D+00
 -0.49957826D+00 -0.80987506D+00 -0.12298730D+01 -0.17094077D+01 -0.20323548D+01
 -0.18104923D+01 -0.89912876D+00 -0.14475212D+00 -0.15272204D-02 -0.72259256D-03
 -0.24104478D-01 -0.83999280D-01 -0.30249501D+00 -0.66681260D+00 -0.93865693D+00
  0.44776995D-01  0.12283956D+01  0.72634263D+00 -0.15528746D-04 -0.18809104D-03
 -0.39224403D-03 -0.11248876D-02 -0.58413846D-04  0.48510608D-02  0.12534209D-01
 -0.10212284D-01  0.46582647D-01 -0.38344608D-03 -0.13180917D-03  0.10536213D-02
  0.13878658D-02  0.15310332D-02  0.12716430D-02  0.67527770D-03  0.17422518D-03
  0.17970874D-02  0.23671845D-02  0.26113751D-02  0.21689514D-02  0.11517734D-02
  0.29716356D-03  0.59471969D+01  0.78338496D+01  0.86419624D+01  0.71778264D+01
  0.38116250D+01  0.98341917D+00 -0.37397591D-07  0.36153584D-06  0.50980328D-06
  0.72915355D-06 -0.36923309D-08 -0.66870258D-06 -0.50018209D-07  0.48354386D-06
  0.68184732D-06  0.97522204D-06 -0.49383871D-08 -0.89437059D-06 -0.21107320D-03
  0.20405199D-02  0.28773461D-02  0.41153661D-02 -0.20839634D-04 -0.37741788D-02
  0.73875620D-05  0.12964954D-04  0.41695153D-01 -0.86058134D-07 -0.28938737D-06
 -0.48464790D-03 -0.17264471D-08  0.73163371D-08 -0.98542160D-05 -0.68311600D-05
 -0.63406694D-05  0.13171829D-04  0.31237839D-09  0.67984474D-08  0.62266502D-06
 -0.11178095D-03 -0.11190453D-03  0.22368548D-03 -0.21336580D-10  0.11935796D-06
  0.22856883D-06 -0.14345121D-04 -0.14385845D-04  0.28730966D-04  0.21956771D-10
  0.15375655D-07  0.14990539D-06  0.12924010D-08 -0.72232437D-05  0.54170407D-05
 -0.97825518D-08  0.21484254D-04 -0.79054324D-05  0.59053488D-08  0.18547739D-06
 -0.83456896D-05 -0.75876408D-08  0.82670060D-08  0.20828691D-05 -0.33900523D-04
  0.11447380D-07 -0.60948243D-05  0.50716406D-04 -0.36248398D-07 -0.15378300D-06
  0.50985162D-04  0.21492320D-08 -0.88012220D-03 -0.16405493D-02 -0.27810965D-02
 -0.42109563D-02 -0.52646228D-02 -0.45285197D-02 -0.17367848D-02 -0.68757626D-06
 -0.91022222D-05 -0.33060927D-04 -0.98074618D-04 -0.11301119D-03  0.13726892D-03
 -0.96112390D-04 -0.16054057D-03  0.12184316D-04  0.66854289D-06  0.65382034D-06
  0.43200675D-06  0.30358196D-05  0.29689653D-05  0.19617209D-05  0.39046754D-02
  0.38186872D-02  0.25231681D-02  0.14977201D-06  0.74286067D-06  0.87979411D-03
  0.40982914D-08  0.69945564D-07  0.20988570D-04  0.15588499D-08  0.65668126D-07
  0.93310407D-05 -0.35981771D-04 -0.35310487D-04  0.71292259D-04  0.89344156D-09
  0.36891436D-07 -0.11171843D-06  0.21301764D-04  0.21000886D-04 -0.42302650D-04
 -0.38594284D-09 -0.22086302D-07  0.41071275D-08  0.18059574D-04  0.18173645D-04
 -0.36233219D-04  0.26713043D-10 -0.18037517D-07 -0.20324561D-06 -0.98642493D-08
 -0.29288830D-05  0.45972870D-04 -0.14035902D-07  0.80399785D-05 -0.69016333D-04
  0.43628650D-07  0.74667038D-06 -0.68902278D-04 -0.20385434D-09  0.58231593D-08
  0.96147811D-06 -0.25248950D-04  0.71551321D-08 -0.25236698D-05  0.37873198D-04
 -0.24624610D-07 -0.36076455D-06  0.37873653D-04  0.23735310D-10
MO    4     MO 0.0        OCC NO =    2.0000123  ORB. ENERGY =    0.000000
  0.27208545D-01  0.50722209D-01  0.85727443D-01  0.12886434D+00  0.15828676D+00
  0.13358844D+00  0.50232741D-01 -0.13864223D-05 -0.10362648D-04 -0.38727581D-04
 -0.10804392D-03 -0.14474907D-03  0.17092166D-03  0.26763519D-02 -0.36320708D-02
 -0.44023249D-04  0.64898199D-06  0.60846186D-06  0.43326109D-06  0.85844540D-05
  0.80484713D-05  0.57309910D-05  0.36709016D-02  0.34417036D-02  0.24506980D-02
  0.23206182D-06  0.23497998D-04  0.13093700D-02 -0.72559901D-07  0.10823631D-04
 -0.41924249D-03  0.67303279D-09  0.52133260D-07  0.36507509D-05 -0.31685477D-03
 -0.32087975D-03  0.63773452D-03 -0.21991184D-08  0.33854084D-06  0.94474626D-06
  0.15683318D-04  0.46756490D-05 -0.20358967D-04 -0.52303634D-08 -0.12803366D-07
 -0.62366813D-05 -0.17277880D-04 -0.18450055D-04  0.35727935D-04 -0.27108930D-09
  0.18531957D-07  0.62498781D-06  0.10325481D-07 -0.42994465D-04  0.23103259D-04
 -0.55171641D-07  0.12899717D-03 -0.35734617D-04  0.24195199D-07 -0.13770367D-07
 -0.33575159D-04 -0.44248069D-07  0.11980894D-07  0.81876127D-04 -0.16402786D-03
  0.13788900D-06 -0.24599045D-03  0.24513999D-03 -0.17383169D-06  0.36206267D-06
  0.24694360D-03  0.88311310D-07 -0.91293712D-04 -0.16465197D-03 -0.24277923D-03
  0.10525439D-02  0.71952874D-03  0.46449948D-05  0.24734288D-09 -0.51088852D-04
  0.39298078D-04  0.31822014D-07  0.30826764D-03 -0.48737452D-04  0.28599378D-07
  0.11535132D-03  0.77808892D-04 -0.14617047D-03  0.28289747D-04  0.11788072D-03
  0.70848742D-07  0.11272941D-06  0.14626456D-03 -0.15222121D-04 -0.20812235D-04
  0.36034356D-04 -0.12838590D-07  0.10086374D-07 -0.64408343D-04 -0.90596569D-04
 -0.16339464D-03 -0.24092531D-03  0.10157242D-02  0.67389909D-03  0.42097504D-05
 -0.51799928D-04  0.28973299D-04  0.32351405D-04  0.25985321D-03 -0.14725754D-03
 -0.41959487D-04  0.95064375D-04 -0.53407239D-04  0.75463519D-04 -0.18822621D-04
 -0.10044661D-03  0.11926923D-03 -0.14081515D-03  0.12386845D-03 -0.70123778D-04
 -0.19313819D-04 -0.16643797D-04  0.35957616D-04  0.67505029D-05 -0.54410437D-04
  0.30903420D-04 -0.90596834D-04 -0.16339512D-03 -0.24092601D-03  0.10157277D-02
  0.67390285D-03  0.42095371D-05  0.51818438D-04  0.28960086D-04  0.32333008D-04
 -0.25990590D-03 -0.14719252D-03 -0.41867677D-04 -0.95051550D-04 -0.53383217D-04
  0.75497276D-04 -0.18829072D-04 -0.10048143D-03  0.11931050D-03  0.14074991D-03
 -0.12378854D-03 -0.70142630D-04 -0.19296244D-04 -0.16642282D-04  0.35938525D-04
 -0.67378188D-05  0.54458253D-04  0.30892185D-04  0.91387323D-01  0.17097593D+00
  0.29540848D+00  0.47889186D+00  0.72724325D+00  0.10107997D+01  0.12017634D+01
  0.10705726D+01  0.53166898D+00  0.85594208D-01  0.90306945D-03  0.42787401D-03
  0.14273161D-01  0.49739107D-01  0.17911858D+00  0.39484462D+00  0.55581379D+00
 -0.26514129D-01 -0.72737886D+00 -0.43009457D+00  0.62828274D-05  0.76100383D-04
  0.15869933D-03  0.45512204D-03  0.23633854D-04 -0.19627069D-02 -0.50712578D-02
  0.41318221D-02 -0.28568028D-01  0.14208274D-02 -0.18046298D-03  0.17617011D-02
  0.23205725D-02  0.25599547D-02  0.21262428D-02  0.11290939D-02  0.29131214D-03
  0.10167393D-01  0.13392835D-01  0.14774393D-01  0.12271290D-01  0.65163957D-02
  0.16812642D-02  0.99105403D+01  0.13054500D+02  0.14401157D+02  0.11961288D+02
  0.63517761D+01  0.16387914D+01 -0.59899166D-07  0.57906659D-06  0.81654434D-06
  0.11678744D-05 -0.59139517D-08 -0.10710510D-05 -0.32352791D-06  0.31276597D-05
  0.44103267D-05  0.63079338D-05 -0.31942489D-07 -0.57849702D-05 -0.33689011D-03
  0.32568368D-02  0.45924798D-02  0.65684610D-02 -0.33261762D-04 -0.60238983D-02
  0.12892971D-04  0.73593451D-04  0.72528855D-01 -0.54408751D-07 -0.52121554D-06
 -0.30810718D-03 -0.67519272D-09 -0.15463685D-07 -0.40046458D-05  0.45497429D-03
  0.45541990D-03 -0.91039419D-03 -0.18562347D-09 -0.48604684D-06 -0.21726358D-05
 -0.31012255D-03 -0.31027264D-03  0.62039520D-03  0.11736973D-09  0.33103855D-06
  0.13442765D-05  0.42437823D-05  0.41507158D-05 -0.83944981D-05  0.31599505D-11
 -0.46613952D-08  0.14056879D-06  0.18143352D-07 -0.14535705D-04 -0.46908220D-04
 -0.42553056D-08  0.43381033D-04  0.70959407D-04 -0.50174749D-07  0.22608237D-06
  0.69765253D-04 -0.15858816D-07  0.15114005D-07  0.42505328D-05 -0.62849296D-04
  0.21606407D-07 -0.12402083D-04  0.93955776D-04 -0.66948422D-07 -0.34951576D-06
  0.94592113D-04  0.45892146D-08 -0.63706510D-02 -0.11874904D-01 -0.20130609D-01