 Entering Gaussian System, Link 0=/home/bruns/programas/chemistry/gaussian/g09/g09
 Input=GAUSSIAN.com
 Output=GAUSSIAN.log
 Initial command:
 /home/bruns/programas/chemistry/gaussian/g09/l1.exe /home/bruns/programas/chemistry/gaussian/work/Gau-80838.inp -scrdir=/home/bruns/programas/chemistry/gaussian/work/
 Entering Link 1 = /home/bruns/programas/chemistry/gaussian/g09/l1.exe PID=     80840.
  
 Copyright (c) 1988,1990,1992,1993,1995,1998,2003,2009,2010,
            Gaussian, Inc.  All Rights Reserved.
  
 This is part of the Gaussian(R) 09 program.  It is based on
 the Gaussian(R) 03 system (copyright 2003, Gaussian, Inc.),
 the Gaussian(R) 98 system (copyright 1998, Gaussian, Inc.),
 the Gaussian(R) 94 system (copyright 1995, Gaussian, Inc.),
 the Gaussian 92(TM) system (copyright 1992, Gaussian, Inc.),
 the Gaussian 90(TM) system (copyright 1990, Gaussian, Inc.),
 the Gaussian 88(TM) system (copyright 1988, Gaussian, Inc.),
 the Gaussian 86(TM) system (copyright 1986, Carnegie Mellon
 University), and the Gaussian 82(TM) system (copyright 1983,
 Carnegie Mellon University). Gaussian is a federally registered
 trademark of Gaussian, Inc.
  
 This software contains proprietary and confidential information,
 including trade secrets, belonging to Gaussian, Inc.
  
 This software is provided under written license and may be
 used, copied, transmitted, or stored only in accord with that
 written license.
  
 The following legend is applicable only to US Government
 contracts under FAR:
  
                    RESTRICTED RIGHTS LEGEND
  
 Use, reproduction and disclosure by the US Government is
 subject to restrictions as set forth in subparagraphs (a)
 and (c) of the Commercial Computer Software - Restricted
 Rights clause in FAR 52.227-19.
  
 Gaussian, Inc.
 340 Quinnipiac St., Bldg. 40, Wallingford CT 06492
  
  
 ---------------------------------------------------------------
 Warning -- This program may not be used in any manner that
 competes with the business of Gaussian, Inc. or will provide
 assistance to any competitor of Gaussian, Inc.  The licensee
 of this program is prohibited from giving any competitor of
 Gaussian, Inc. access to this program.  By using this program,
 the user acknowledges that Gaussian, Inc. is engaged in the
 business of creating and licensing software in the field of
 computational chemistry and represents and warrants to the
 licensee that it is not a competitor of Gaussian, Inc. and that
 it will not use this program in any manner prohibited above.
 ---------------------------------------------------------------
  

 Cite this work as:
 Gaussian 09, Revision B.01,
 M. J. Frisch, G. W. Trucks, H. B. Schlegel, G. E. Scuseria, 
 M. A. Robb, J. R. Cheeseman, G. Scalmani, V. Barone, B. Mennucci, 
 G. A. Petersson, H. Nakatsuji, M. Caricato, X. Li, H. P. Hratchian, 
 A. F. Izmaylov, J. Bloino, G. Zheng, J. L. Sonnenberg, M. Hada, 
 M. Ehara, K. Toyota, R. Fukuda, J. Hasegawa, M. Ishida, T. Nakajima, 
 Y. Honda, O. Kitao, H. Nakai, T. Vreven, J. A. Montgomery, Jr., 
 J. E. Peralta, F. Ogliaro, M. Bearpark, J. J. Heyd, E. Brothers, 
 K. N. Kudin, V. N. Staroverov, T. Keith, R. Kobayashi, J. Normand, 
 K. Raghavachari, A. Rendell, J. C. Burant, S. S. Iyengar, J. Tomasi, 
 M. Cossi, N. Rega, J. M. Millam, M. Klene, J. E. Knox, J. B. Cross, 
 V. Bakken, C. Adamo, J. Jaramillo, R. Gomperts, R. E. Stratmann, 
 O. Yazyev, A. J. Austin, R. Cammi, C. Pomelli, J. W. Ochterski, 
 R. L. Martin, K. Morokuma, V. G. Zakrzewski, G. A. Voth, 
 P. Salvador, J. J. Dannenberg, S. Dapprich, A. D. Daniels, 
 O. Farkas, J. B. Foresman, J. V. Ortiz, J. Cioslowski, 
 and D. J. Fox, Gaussian, Inc., Wallingford CT, 2010.
 
 ******************************************
 Gaussian 09:  EM64L-G09RevB.01 12-Aug-2010
                24-Aug-2020 
 ******************************************
 %nproc=8
 Will use up to    8 processors via shared memory.
 %mem=8GB
 -----------------------------------------------------
 # QCISD aug-cc-pvtz nosymm density=current output=wfn
 -----------------------------------------------------
 1/30=1,38=1/1;
 2/12=2,15=1,17=6,18=5,40=1/2;
 3/5=16,6=1,7=10,11=9,16=1,25=1,30=1,71=1/1,2,3;
 4//1;
 5/5=2,38=5/2;
 8/6=4,9=120000,10=1/1,4;
 9/5=8,15=1/13;
 11/28=-7,31=1,32=3,42=3/11;
 10/5=6,13=10,31=1/2;
 6/7=2,8=2,9=2,10=2,22=-1,31=1/1;
 99/5=1,6=1100,9=1/99;
 ----------------------
 clch3f_ts-wavefunction
 ----------------------
 Symbolic Z-matrix:
 Charge = -1 Multiplicity = 1
 C                     0.00018   0.00003  -0.49771 
 H                     0.00002  -1.05257  -0.62073 
 H                    -0.91131   0.52637  -0.62125 
 H                     0.90175   0.52613  -0.62157 
 Cl                    0.00056   0.00096   1.64472 
 F                    -0.00019  -0.00092  -2.59347 
 
                          Input orientation:                          
 ---------------------------------------------------------------------
 Center     Atomic      Atomic             Coordinates (Angstroms)
 Number     Number       Type             X           Y           Z
 ---------------------------------------------------------------------
      1          6           0        0.000175    0.000029   -0.497709
      2          1           0        0.000019   -1.052570   -0.620726
      3          1           0       -0.911312    0.526365   -0.621245
      4          1           0        0.901750    0.526132   -0.621570
      5         17           0        0.000555    0.000962    1.644718
      6          9           0       -0.000186   -0.000921   -2.593468
 ---------------------------------------------------------------------
                    Distance matrix (angstroms):
                    1          2          3          4          5
     1  C    0.000000
     2  H    1.059763   0.000000
     3  H    1.059764   1.823063   0.000000
     4  H    1.051172   1.818081   1.813062   0.000000
     5  Cl   2.142427   2.498433   2.498427   2.494798   0.000000
     6  F    2.095759   2.235548   2.235586   2.231514   4.238186
                    6
     6  F    0.000000
 Symmetry turned off by external request.
 Stoichiometry    CH3ClF(1-)
 Framework group  C1[X(CH3ClF)]
 Deg. of freedom    12
 Full point group                 C1      NOp   1
 Rotational constants (GHZ):    151.7067847      2.2149135      2.2147084
 Standard basis: Aug-CC-pVTZ (5D, 7F)
 Integral buffers will be    131072 words long.
 Raffenetti 1 integral format.
 Two-electron integral symmetry is turned off.
   211 basis functions,   339 primitive gaussians,   244 cartesian basis functions
    18 alpha electrons       18 beta electrons
       nuclear repulsion energy        85.0202723362 Hartrees.
 NAtoms=    6 NActive=    6 NUniq=    6 SFac= 1.00D+00 NAtFMM=   50 NAOKFM=F Big=F
 One-electron integrals computed using PRISM.
 NBasis=   211 RedAO= T  NBF=   211
 NBsUse=   211 1.00D-06 NBFU=   211
 Harris functional with IExCor=  205 diagonalized for initial guess.
 ExpMin= 2.53D-02 ExpMax= 4.56D+05 ExpMxC= 1.44D+03 IAcc=3 IRadAn=         0 AccDes= 0.00D+00
 HarFok:  IExCor=  205 AccDes= 0.00D+00 IRadAn=         0 IDoV= 1
 ScaDFX=  1.000000  1.000000  1.000000  1.000000
 FoFCou: FMM=F IPFlag=           0 FMFlag=      100000 FMFlg1=           0
         NFxFlg=           0 DoJE=T BraDBF=F KetDBF=T FulRan=T
         Omega=  0.000000  0.000000  1.000000  0.000000  0.000000 ICntrl=     500 IOpCl=  0
         NMat0=    1 NMatS0=    1 NMatT0=    0 NMatD0=    1 NMtDS0=    0 NMtDT0=    0
         I1Cent=           4 NGrid=           0.
 Symmetry not used in FoFCou.
 Requested convergence on RMS density matrix=1.00D-08 within 128 cycles.
 Requested convergence on MAX density matrix=1.00D-06.
 Requested convergence on             energy=1.00D-06.
 No special actions if energy rises.
 Keep R1 ints in memory in canonical form, NReq=454274131.
 SCF Done:  E(RHF) =  -598.617064307     A.U. after   12 cycles
             Convg  =    0.9460D-08             -V/T =  2.0001
 ExpMin= 2.53D-02 ExpMax= 4.56D+05 ExpMxC= 1.44D+03 IAcc=3 IRadAn=         5 AccDes= 0.00D+00
 HarFok:  IExCor=  205 AccDes= 0.00D+00 IRadAn=         5 IDoV=-2
 ScaDFX=  1.000000  1.000000  1.000000  1.000000
 DSYEVD returned Info=          93 IAlg= 4 N=    46 NDim=    46 NE2=    21472034 trying DSYEV.
 Range of M.O.s used for correlation:     8   211
 NBasis=   211 NAE=    18 NBE=    18 NFC=     7 NFV=     0
 NROrb=    204 NOA=    11 NOB=    11 NVA=   193 NVB=   193

 **** Warning!!: The largest alpha MO coefficient is  0.35092624D+02

 Semi-Direct transformation.
 ModeAB=           2 MOrb=            11 LenV=    1072528222
 LASXX=     44979418 LTotXX=    44979418 LenRXX=    44979418
 LTotAB=    45631872 MaxLAS=    67073160 LenRXY=    67073160
 NonZer=    89958836 LenScr=   135708672 LnRSAI=           0
 LnScr1=           0 LExtra=           0 Total=    247761250
 MaxDsk=          -1 SrtSym=           F ITran=            4
 JobTyp=0 Pass  1:  I=   1 to  11.
 (rs|ai) integrals will be sorted in core.
 Spin components of T(2) and E(2):
     alpha-alpha T2 =       0.2565662180D-01 E2=     -0.8206792437D-01
     alpha-beta  T2 =       0.1451182029D+00 E2=     -0.5098782379D+00
     beta-beta   T2 =       0.2565662180D-01 E2=     -0.8206792437D-01
 ANorm=    0.1093815088D+01
 E2 =    -0.6740140866D+00 EUMP2 =    -0.59929107839317D+03
 R2 and R3 integrals will be kept in memory, NReq=   900794930.
 Iterations=  50 Convergence= 0.100D-07
 Iteration Nr.   1
 **********************
 DD1Dir will call FoFMem   1 times, MxPair=       132
 NAB=    66 NAA=     0 NBB=     0.
 MP4(R+Q)=  0.14426884D-01
 E3=       -0.18711695D-01        EUMP3=      -0.59930979009D+03
 E4(DQ)=   -0.44649924D-03        UMP4(DQ)=   -0.59931023659D+03
 E4(SDQ)=  -0.98025841D-02        UMP4(SDQ)=  -0.59931959267D+03
 DE(Corr)= -0.67829890     E(Corr)=     -599.29536320    
 NORM(A)=   0.10995972D+01
 Iteration Nr.   2
 **********************
 DD1Dir will call FoFMem   1 times, MxPair=       132
 NAB=    66 NAA=     0 NBB=     0.
 DE(Corr)= -0.70047505     E(CORR)=     -599.31753936     Delta=-2.22D-02
 NORM(A)=   0.11069377D+01
 Iteration Nr.   3
 **********************
 DD1Dir will call FoFMem   1 times, MxPair=       132
 NAB=    66 NAA=     0 NBB=     0.
 DE(Corr)= -0.69807864     E(CORR)=     -599.31514295     Delta= 2.40D-03
 NORM(A)=   0.11109166D+01
 Iteration Nr.   4
 **********************
 DD1Dir will call FoFMem   1 times, MxPair=       132
 NAB=    66 NAA=     0 NBB=     0.
 DE(Corr)= -0.70113297     E(CORR)=     -599.31819727     Delta=-3.05D-03
 NORM(A)=   0.11130201D+01
 Iteration Nr.   5
 **********************
 DD1Dir will call FoFMem   1 times, MxPair=       132
 NAB=    66 NAA=     0 NBB=     0.
 DE(Corr)= -0.70172760     E(CORR)=     -599.31879191     Delta=-5.95D-04
 NORM(A)=   0.11140504D+01
 Iteration Nr.   6
 **********************
 DD1Dir will call FoFMem   1 times, MxPair=       132
 NAB=    66 NAA=     0 NBB=     0.
 DE(Corr)= -0.70187425     E(CORR)=     -599.31893856     Delta=-1.47D-04
 NORM(A)=   0.11143754D+01
 Iteration Nr.   7
 **********************
 DD1Dir will call FoFMem   1 times, MxPair=       132
 NAB=    66 NAA=     0 NBB=     0.
 DE(Corr)= -0.70190389     E(CORR)=     -599.31896820     Delta=-2.96D-05
 NORM(A)=   0.11144063D+01
 Iteration Nr.   8
 **********************
 DD1Dir will call FoFMem   1 times, MxPair=       132
 NAB=    66 NAA=     0 NBB=     0.
 DE(Corr)= -0.70191774     E(CORR)=     -599.31898205     Delta=-1.39D-05
 NORM(A)=   0.11144241D+01
 Iteration Nr.   9
 **********************
 DD1Dir will call FoFMem   1 times, MxPair=       132
 NAB=    66 NAA=     0 NBB=     0.
 DE(Corr)= -0.70189457     E(CORR)=     -599.31895888     Delta= 2.32D-05
 NORM(A)=   0.11144273D+01
 Iteration Nr.  10
 **********************
 DD1Dir will call FoFMem   1 times, MxPair=       132
 NAB=    66 NAA=     0 NBB=     0.
 DE(Corr)= -0.70191385     E(CORR)=     -599.31897815     Delta=-1.93D-05
 NORM(A)=   0.11144275D+01
 Iteration Nr.  11
 **********************
 DD1Dir will call FoFMem   1 times, MxPair=       132
 NAB=    66 NAA=     0 NBB=     0.
 DE(Corr)= -0.70190467     E(CORR)=     -599.31896898     Delta= 9.17D-06
 NORM(A)=   0.11144304D+01
 Iteration Nr.  12
 **********************
 DD1Dir will call FoFMem   1 times, MxPair=       132
 NAB=    66 NAA=     0 NBB=     0.
 DE(Corr)= -0.70190842     E(CORR)=     -599.31897272     Delta=-3.74D-06
 NORM(A)=   0.11144308D+01
 Iteration Nr.  13
 **********************
 DD1Dir will call FoFMem   1 times, MxPair=       132
 NAB=    66 NAA=     0 NBB=     0.
 DE(Corr)= -0.70190898     E(CORR)=     -599.31897329     Delta=-5.64D-07
 NORM(A)=   0.11144315D+01
 Iteration Nr.  14
 **********************
 DD1Dir will call FoFMem   1 times, MxPair=       132
 NAB=    66 NAA=     0 NBB=     0.
 DE(Corr)= -0.70190920     E(CORR)=     -599.31897351     Delta=-2.22D-07
 NORM(A)=   0.11144316D+01
 Iteration Nr.  15
 **********************
 DD1Dir will call FoFMem   1 times, MxPair=       132
 NAB=    66 NAA=     0 NBB=     0.
 DE(Corr)= -0.70190911     E(CORR)=     -599.31897342     Delta= 9.02D-08
 NORM(A)=   0.11144316D+01
 Iteration Nr.  16
 **********************
 DD1Dir will call FoFMem   1 times, MxPair=       132
 NAB=    66 NAA=     0 NBB=     0.
 DE(Corr)= -0.70190931     E(CORR)=     -599.31897362     Delta=-2.02D-07
 NORM(A)=   0.11144314D+01
 Iteration Nr.  17
 **********************
 DD1Dir will call FoFMem   1 times, MxPair=       132
 NAB=    66 NAA=     0 NBB=     0.
 DE(Corr)= -0.70190918     E(CORR)=     -599.31897349     Delta= 1.30D-07
 NORM(A)=   0.11144313D+01
 Iteration Nr.  18
 **********************
 DD1Dir will call FoFMem   1 times, MxPair=       132
 NAB=    66 NAA=     0 NBB=     0.
 DE(Corr)= -0.70190922     E(CORR)=     -599.31897353     Delta=-3.66D-08
 NORM(A)=   0.11144311D+01
 Iteration Nr.  19
 **********************
 DD1Dir will call FoFMem   1 times, MxPair=       132
 NAB=    66 NAA=     0 NBB=     0.
 DE(Corr)= -0.70190917     E(CORR)=     -599.31897348     Delta= 5.23D-08
 NORM(A)=   0.11144310D+01
 Iteration Nr.  20
 **********************
 DD1Dir will call FoFMem   1 times, MxPair=       132
 NAB=    66 NAA=     0 NBB=     0.
 DE(Corr)= -0.70190917     E(CORR)=     -599.31897348     Delta=-2.40D-09
 NORM(A)=   0.11144310D+01
 Iteration Nr.  21
 **********************
 DD1Dir will call FoFMem   1 times, MxPair=       132
 NAB=    66 NAA=     0 NBB=     0.
 DE(Corr)= -0.70190915     E(CORR)=     -599.31897346     Delta= 1.85D-08
 NORM(A)=   0.11144309D+01
 Iteration Nr.  22
 **********************
 DD1Dir will call FoFMem   1 times, MxPair=       132
 NAB=    66 NAA=     0 NBB=     0.
 DE(Corr)= -0.70190915     E(CORR)=     -599.31897346     Delta= 3.89D-09
 NORM(A)=   0.11144309D+01
 Iteration Nr.  23
 **********************
 DD1Dir will call FoFMem   1 times, MxPair=       132
 NAB=    66 NAA=     0 NBB=     0.
 DE(Corr)= -0.70190914     E(CORR)=     -599.31897345     Delta= 5.11D-09
 NORM(A)=   0.11144309D+01
 Iteration Nr.  24
 **********************
 DD1Dir will call FoFMem   1 times, MxPair=       132
 NAB=    66 NAA=     0 NBB=     0.
 DE(Corr)= -0.70190914     E(CORR)=     -599.31897345     Delta=-1.42D-09
 NORM(A)=   0.11144309D+01
 Iteration Nr.  25
 **********************
 DD1Dir will call FoFMem   1 times, MxPair=       132
 NAB=    66 NAA=     0 NBB=     0.
 DE(Corr)= -0.70190914     E(CORR)=     -599.31897345     Delta= 5.17D-09
 NORM(A)=   0.11144309D+01
 Iteration Nr.  26
 **********************
 DD1Dir will call FoFMem   1 times, MxPair=       132
 NAB=    66 NAA=     0 NBB=     0.
 DE(Corr)= -0.70190914     E(CORR)=     -599.31897345     Delta=-4.92D-09
 NORM(A)=   0.11144309D+01
 Iteration Nr.  27
 **********************
 DD1Dir will call FoFMem   1 times, MxPair=       132
 NAB=    66 NAA=     0 NBB=     0.
 DE(Corr)= -0.70190914     E(CORR)=     -599.31897345     Delta= 4.79D-09
 NORM(A)=   0.11144309D+01
 Iteration Nr.  28
 **********************
 DD1Dir will call FoFMem   1 times, MxPair=       132
 NAB=    66 NAA=     0 NBB=     0.
 DE(Corr)= -0.70190914     E(CORR)=     -599.31897345     Delta=-5.14D-09
 NORM(A)=   0.11144309D+01
 Iteration Nr.  29
 **********************
 DD1Dir will call FoFMem   1 times, MxPair=       132
 NAB=    66 NAA=     0 NBB=     0.
 DE(Corr)= -0.70190914     E(CORR)=     -599.31897345     Delta= 6.29D-09
 NORM(A)=   0.11144309D+01
 Iteration Nr.  30
 **********************
 DD1Dir will call FoFMem   1 times, MxPair=       132
 NAB=    66 NAA=     0 NBB=     0.
 DE(Corr)= -0.70190915     E(CORR)=     -599.31897345     Delta=-6.75D-09
 NORM(A)=   0.11144309D+01
 Iteration Nr.  31
 **********************
 DD1Dir will call FoFMem   1 times, MxPair=       132
 NAB=    66 NAA=     0 NBB=     0.
 DE(Corr)= -0.70190914     E(CORR)=     -599.31897345     Delta= 5.11D-09
 NORM(A)=   0.11144309D+01
 Iteration Nr.  32
 **********************
 DD1Dir will call FoFMem   1 times, MxPair=       132
 NAB=    66 NAA=     0 NBB=     0.
 DE(Corr)= -0.70190915     E(CORR)=     -599.31897345     Delta=-4.96D-09
 NORM(A)=   0.11144309D+01
 Iteration Nr.  33
 **********************
 DD1Dir will call FoFMem   1 times, MxPair=       132
 NAB=    66 NAA=     0 NBB=     0.
 DE(Corr)= -0.70190914     E(CORR)=     -599.31897345     Delta= 4.03D-09
 NORM(A)=   0.11144309D+01
 Iteration Nr.  34
 **********************
 DD1Dir will call FoFMem   1 times, MxPair=       132
 NAB=    66 NAA=     0 NBB=     0.
 DE(Corr)= -0.70190915     E(CORR)=     -599.31897345     Delta=-3.87D-09
 NORM(A)=   0.11144309D+01
 Iteration Nr.  35
 **********************
 DD1Dir will call FoFMem   1 times, MxPair=       132
 NAB=    66 NAA=     0 NBB=     0.
 DE(Corr)= -0.70190914     E(CORR)=     -599.31897345     Delta= 3.15D-09
 NORM(A)=   0.11144309D+01
 Iteration Nr.  36
 **********************
 DD1Dir will call FoFMem   1 times, MxPair=       132
 NAB=    66 NAA=     0 NBB=     0.
 DE(Corr)= -0.70190914     E(CORR)=     -599.31897345     Delta=-2.77D-09
 NORM(A)=   0.11144309D+01
 Iteration Nr.  37
 **********************
 DD1Dir will call FoFMem   1 times, MxPair=       132
 NAB=    66 NAA=     0 NBB=     0.
 DE(Corr)= -0.70190914     E(CORR)=     -599.31897345     Delta= 2.20D-09
 NORM(A)=   0.11144309D+01
 Iteration Nr.  38
 **********************
 DD1Dir will call FoFMem   1 times, MxPair=       132
 NAB=    66 NAA=     0 NBB=     0.
 DE(Corr)= -0.70190914     E(CORR)=     -599.31897345     Delta=-1.85D-09
 NORM(A)=   0.11144309D+01
 Largest amplitude= 6.61D-02

 Z-AMPLITUDE ITERATIONS

 Iteration Nr.   1
 **********************
 DD1Dir will call FoFMem   1 times, MxPair=       132
 NAB=    66 NAA=     0 NBB=     0.
 DE(Z)  -0.68253624D+00          E(Z)=    -0.59929960054D+03
 NORM(A)=   0.11177567D+01
 Iteration Nr.   2
 **********************
 DD1Dir will call FoFMem   1 times, MxPair=       132
 NAB=    66 NAA=     0 NBB=     0.
 DE(Z)  -0.68289827D+00          E(Z)=    -0.59929996257D+03
 NORM(A)=   0.11125455D+01
 Iteration Nr.   3
 **********************
 DD1Dir will call FoFMem   1 times, MxPair=       132
 NAB=    66 NAA=     0 NBB=     0.
 DE(Z)  -0.68235583D+00          E(Z)=    -0.59929942014D+03
 NORM(A)=   0.11189744D+01
 Iteration Nr.   4
 **********************
 DD1Dir will call FoFMem   1 times, MxPair=       132
 NAB=    66 NAA=     0 NBB=     0.
 DE(Z)  -0.68298438D+00          E(Z)=    -0.59930004869D+03
 NORM(A)=   0.11122157D+01
 Iteration Nr.   5
 **********************
 DD1Dir will call FoFMem   1 times, MxPair=       132
 NAB=    66 NAA=     0 NBB=     0.
 DE(Z)  -0.68231837D+00          E(Z)=    -0.59929938268D+03
 NORM(A)=   0.11077859D+01
 Iteration Nr.   6
 **********************
 DD1Dir will call FoFMem   1 times, MxPair=       132
 NAB=    66 NAA=     0 NBB=     0.
 DE(Z)  -0.68186767D+00          E(Z)=    -0.59929893198D+03
 NORM(A)=   0.11077796D+01
 Iteration Nr.   7
 **********************
 DD1Dir will call FoFMem   1 times, MxPair=       132
 NAB=    66 NAA=     0 NBB=     0.
 DE(Z)  -0.68187082D+00          E(Z)=    -0.59929893512D+03
 NORM(A)=   0.11077758D+01
 Iteration Nr.   8
 **********************
 DD1Dir will call FoFMem   1 times, MxPair=       132
 NAB=    66 NAA=     0 NBB=     0.
 DE(Z)  -0.68186770D+00          E(Z)=    -0.59929893200D+03
 NORM(A)=   0.11077722D+01
 Iteration Nr.   9
 **********************
 DD1Dir will call FoFMem   1 times, MxPair=       132
 NAB=    66 NAA=     0 NBB=     0.
 DE(Z)  -0.68186822D+00          E(Z)=    -0.59929893252D+03
 NORM(A)=   0.11077709D+01
 Iteration Nr.  10
 **********************
 DD1Dir will call FoFMem   1 times, MxPair=       132
 NAB=    66 NAA=     0 NBB=     0.
 DE(Z)  -0.68186788D+00          E(Z)=    -0.59929893219D+03
 NORM(A)=   0.11077705D+01
 Iteration Nr.  11
 **********************
 DD1Dir will call FoFMem   1 times, MxPair=       132
 NAB=    66 NAA=     0 NBB=     0.
 DE(Z)  -0.68186794D+00          E(Z)=    -0.59929893224D+03
 NORM(A)=   0.11077704D+01
 Iteration Nr.  12
 **********************
 DD1Dir will call FoFMem   1 times, MxPair=       132
 NAB=    66 NAA=     0 NBB=     0.
 DE(Z)  -0.68186797D+00          E(Z)=    -0.59929893228D+03
 NORM(A)=   0.11077704D+01
 Iteration Nr.  13
 **********************
 DD1Dir will call FoFMem   1 times, MxPair=       132
 NAB=    66 NAA=     0 NBB=     0.
 DE(Z)  -0.68186799D+00          E(Z)=    -0.59929893230D+03
 NORM(A)=   0.11077705D+01
 Iteration Nr.  14
 **********************
 DD1Dir will call FoFMem   1 times, MxPair=       132
 NAB=    66 NAA=     0 NBB=     0.
 DE(Z)  -0.68186798D+00          E(Z)=    -0.59929893229D+03
 NORM(A)=   0.11077705D+01
 Iteration Nr.  15
 **********************
 DD1Dir will call FoFMem   1 times, MxPair=       132
 NAB=    66 NAA=     0 NBB=     0.
 DE(Z)  -0.68186801D+00          E(Z)=    -0.59929893232D+03
 NORM(A)=   0.11077705D+01
 Iteration Nr.  16
 **********************
 DD1Dir will call FoFMem   1 times, MxPair=       132
 NAB=    66 NAA=     0 NBB=     0.
 DE(Z)  -0.68186800D+00          E(Z)=    -0.59929893231D+03
 NORM(A)=   0.11077705D+01
 Iteration Nr.  17
 **********************
 DD1Dir will call FoFMem   1 times, MxPair=       132
 NAB=    66 NAA=     0 NBB=     0.
 DE(Z)  -0.68186800D+00          E(Z)=    -0.59929893231D+03
 NORM(A)=   0.11077705D+01
 Iteration Nr.  18
 **********************
 DD1Dir will call FoFMem   1 times, MxPair=       132
 NAB=    66 NAA=     0 NBB=     0.
 DE(Z)  -0.68186800D+00          E(Z)=    -0.59929893231D+03
 NORM(A)=   0.11077704D+01
 Iteration Nr.  19
 **********************
 DD1Dir will call FoFMem   1 times, MxPair=       132
 NAB=    66 NAA=     0 NBB=     0.
 DE(Z)  -0.68186800D+00          E(Z)=    -0.59929893231D+03
 NORM(A)=   0.11077704D+01
 Iteration Nr.  20
 **********************
 DD1Dir will call FoFMem   1 times, MxPair=       132
 NAB=    66 NAA=     0 NBB=     0.
 DE(Z)  -0.68186800D+00          E(Z)=    -0.59929893231D+03
 NORM(A)=   0.11077704D+01
 Iteration Nr.  21
 **********************
 DD1Dir will call FoFMem   1 times, MxPair=       132
 NAB=    66 NAA=     0 NBB=     0.
 DE(Z)  -0.68186800D+00          E(Z)=    -0.59929893231D+03
 NORM(A)=   0.11077704D+01
 Discarding MO integrals.
          Differentiating once with respect to electric field.
                with respect to dipole field.
          Electric field/nuclear overlap derivatives assumed to be zero.
          Keep R1 ints in memory in canonical form, NReq=448662239.
          There are     1 degrees of freedom in the 1st order CPHF.  IDoFFX=0.
 LinEq1:  Iter=  0 NonCon=     1 RMS=3.11D-03 Max=1.20D-01
 AX will form     1 AO Fock derivatives at one time.
 LinEq1:  Iter=  1 NonCon=     1 RMS=6.92D-04 Max=9.33D-03
 LinEq1:  Iter=  2 NonCon=     1 RMS=2.29D-04 Max=5.70D-03
 LinEq1:  Iter=  3 NonCon=     1 RMS=9.49D-05 Max=1.23D-03
 LinEq1:  Iter=  4 NonCon=     1 RMS=3.83D-05 Max=4.07D-04
 LinEq1:  Iter=  5 NonCon=     1 RMS=1.06D-05 Max=2.26D-04
 LinEq1:  Iter=  6 NonCon=     1 RMS=2.41D-06 Max=4.23D-05
 LinEq1:  Iter=  7 NonCon=     1 RMS=6.03D-07 Max=9.12D-06
 LinEq1:  Iter=  8 NonCon=     1 RMS=1.49D-07 Max=1.80D-06
 LinEq1:  Iter=  9 NonCon=     1 RMS=3.02D-08 Max=7.43D-07
 LinEq1:  Iter= 10 NonCon=     1 RMS=6.51D-09 Max=8.14D-08
 LinEq1:  Iter= 11 NonCon=     1 RMS=1.05D-09 Max=1.16D-08
 LinEq1:  Iter= 12 NonCon=     1 RMS=1.68D-10 Max=2.85D-09
 LinEq1:  Iter= 13 NonCon=     0 RMS=2.39D-11 Max=3.19D-10
 Linear equations converged to 1.000D-10 1.000D-09 after    13 iterations.
 End of Minotr Frequency-dependent properties file   721 does not exist.
 End of Minotr Frequency-dependent properties file   722 does not exist.

 **********************************************************************

            Population analysis using the QCI/CC density.

 **********************************************************************

     Natural Orbital Coefficients:
                           1         2         3         4         5
     Eigenvalues --     2.00003   2.00003   2.00002   2.00001   2.00001
   1 1   C  1S         -0.00001  -0.00004  -0.04325   0.08132   0.97611
   2        2S          0.00000   0.00000   0.00131   0.00048  -0.01333
   3        3S          0.00000   0.00000  -0.00132   0.00404   0.03987
   4        4S          0.00005   0.00016  -0.01270  -0.02373   0.00302
   5        5S          0.00000   0.00001  -0.00121  -0.00064  -0.00065
   6        6PX        -0.00004   0.00004   0.00000   0.00000  -0.00003
   7        6PY         0.00003   0.00004   0.00000   0.00000  -0.00002
   8        6PZ         0.00000   0.00000   0.00053   0.00168   0.00087
   9        7PX        -0.00061   0.00061  -0.00002  -0.00004   0.00005
  10        7PY         0.00058   0.00063  -0.00002  -0.00002   0.00005
  11        7PZ         0.00000   0.00001   0.00142   0.00305  -0.00092
  12        8PX        -0.00330   0.00319  -0.00003  -0.00007   0.00005
  13        8PY         0.00315   0.00334  -0.00004  -0.00007   0.00006
  14        8PZ         0.00000  -0.00002  -0.00374  -0.00412  -0.00308
  15        9PX        -0.00031   0.00029   0.00000   0.00000   0.00000
  16        9PY         0.00029   0.00030   0.00000   0.00000   0.00000
  17        9PZ         0.00000   0.00000   0.00021   0.00017  -0.00049
  18       10D 0        0.00000   0.00000   0.00011   0.00033  -0.00058
  19       10D+1        0.00011  -0.00010   0.00000   0.00000   0.00000
  20       10D-1       -0.00010  -0.00011   0.00000   0.00000   0.00000
  21       10D+2        0.00003   0.00003   0.00000   0.00000   0.00000
  22       10D-2       -0.00003   0.00003   0.00000   0.00000   0.00001
  23       11D 0       -0.00001  -0.00001   0.00021  -0.00009  -0.00027
  24       11D+1       -0.00019   0.00018   0.00001   0.00001  -0.00002
  25       11D-1        0.00017   0.00019   0.00001   0.00001  -0.00001
  26       11D+2        0.00071   0.00074  -0.00001  -0.00001   0.00003
  27       11D-2       -0.00073   0.00071  -0.00001  -0.00002   0.00003
  28       12D 0        0.00002   0.00000  -0.00078   0.00122  -0.00238
  29       12D+1        0.00094  -0.00090   0.00000  -0.00001   0.00000
  30       12D-1       -0.00090  -0.00095  -0.00001  -0.00001   0.00001
  31       12D+2        0.00113   0.00118  -0.00001  -0.00001   0.00002
  32       12D-2       -0.00117   0.00112   0.00000  -0.00002   0.00001
  33       13F 0        0.00000   0.00000   0.00001   0.00003   0.00019
  34       13F+1        0.00014  -0.00013   0.00000   0.00000   0.00000
  35       13F-1       -0.00013  -0.00014   0.00000   0.00000   0.00000
  36       13F+2        0.00001   0.00001   0.00000   0.00000   0.00000
  37       13F-2       -0.00001   0.00001   0.00000   0.00000   0.00000
  38       13F+3        0.00000   0.00000   0.00000   0.00000   0.00000
  39       13F-3        0.00000   0.00000  -0.00006   0.00007   0.00091
  40       14F 0        0.00000   0.00000  -0.00113  -0.00216  -0.00018
  41       14F+1       -0.00041   0.00040   0.00000   0.00000   0.00000
  42       14F-1        0.00040   0.00042   0.00000  -0.00001  -0.00001
  43       14F+2        0.00024   0.00025   0.00000   0.00000  -0.00001
  44       14F-2       -0.00025   0.00024   0.00000   0.00001  -0.00001
  45       14F+3        0.00001  -0.00001   0.00000   0.00001   0.00001
  46       14F-3        0.00001   0.00001  -0.00086  -0.00136  -0.00193
  47 2   H  1S         -0.00011  -0.00011  -0.00002  -0.00036  -0.00134
  48        2S          0.00081   0.00086   0.00243   0.00331  -0.00054
  49        3S          0.00603   0.00634   0.00177   0.00521  -0.00421
  50        4S         -0.00019  -0.00020   0.00011   0.00009  -0.00013
  51        5PX         0.00000   0.00000   0.00000   0.00000   0.00000
  52        5PY         0.00002   0.00002   0.00004  -0.00003  -0.00048
  53        5PZ         0.00001   0.00001   0.00001   0.00001  -0.00009
  54        6PX        -0.00013   0.00013   0.00000   0.00000   0.00001
  55        6PY         0.00046   0.00048   0.00045   0.00069  -0.00076
  56        6PZ         0.00043   0.00045  -0.00001  -0.00010   0.00025
  57        7PX        -0.00066   0.00064   0.00000  -0.00001   0.00001
  58        7PY         0.00145   0.00153   0.00052   0.00133  -0.00098
  59        7PZ         0.00019   0.00020   0.00047   0.00091  -0.00005
  60        8D 0        0.00003   0.00003   0.00001   0.00007   0.00014
  61        8D+1        0.00001  -0.00001   0.00000   0.00000   0.00000
  62        8D-1        0.00007   0.00007   0.00002   0.00005  -0.00004
  63        8D+2       -0.00003  -0.00004  -0.00004  -0.00005   0.00028
  64        8D-2       -0.00001   0.00001   0.00000   0.00000   0.00000
  65        9D 0        0.00027   0.00028   0.00015   0.00025   0.00063
  66        9D+1       -0.00018   0.00017   0.00000   0.00000   0.00000
  67        9D-1        0.00009   0.00009  -0.00014  -0.00025   0.00001
  68        9D+2       -0.00009  -0.00009   0.00001   0.00003  -0.00010
  69        9D-2       -0.00008   0.00008   0.00000   0.00000   0.00000
  70 3   H  1S          0.00015  -0.00004  -0.00002  -0.00035  -0.00134
  71        2S         -0.00118   0.00027   0.00243   0.00331  -0.00057
  72        3S         -0.00848   0.00207   0.00182   0.00524  -0.00427
  73        4S          0.00026  -0.00006   0.00011   0.00009  -0.00013
  74        5PX        -0.00003   0.00001   0.00004  -0.00002  -0.00042
  75        5PY         0.00002   0.00000  -0.00002   0.00001   0.00024
  76        5PZ        -0.00001   0.00000   0.00001   0.00001  -0.00009
  77        6PX        -0.00054   0.00023   0.00039   0.00059  -0.00067
  78        6PY         0.00036   0.00009  -0.00023  -0.00035   0.00039
  79        6PZ        -0.00061   0.00015  -0.00001  -0.00010   0.00024
  80        7PX        -0.00166   0.00088   0.00046   0.00115  -0.00085
  81        7PY         0.00122   0.00053  -0.00027  -0.00068   0.00052
  82        7PZ        -0.00026   0.00007   0.00047   0.00092  -0.00007
  83        8D 0       -0.00004   0.00001   0.00001   0.00007   0.00014
  84        8D+1       -0.00008   0.00001   0.00002   0.00004  -0.00003
  85        8D-1        0.00004  -0.00002  -0.00001  -0.00002   0.00002
  86        8D+2       -0.00002   0.00001   0.00002   0.00003  -0.00014
  87        8D-2        0.00004  -0.00001  -0.00004  -0.00005   0.00024
  88        9D 0       -0.00038   0.00009   0.00015   0.00025   0.00063
  89        9D+1       -0.00008   0.00015  -0.00012  -0.00022   0.00001
  90        9D-1        0.00011   0.00020   0.00007   0.00013  -0.00001
  91        9D+2       -0.00004   0.00012  -0.00001  -0.00002   0.00006
  92        9D-2        0.00012   0.00003   0.00001   0.00002  -0.00008
  93 4   H  1S         -0.00004   0.00015  -0.00002  -0.00036  -0.00139
  94        2S          0.00032  -0.00121   0.00249   0.00341  -0.00076
  95        3S          0.00246  -0.00854   0.00193   0.00553  -0.00451
  96        4S         -0.00007   0.00026   0.00012   0.00010  -0.00013
  97        5PX        -0.00001   0.00003  -0.00004   0.00002   0.00042
  98        5PY         0.00000   0.00002  -0.00002   0.00001   0.00025
  99        5PZ         0.00000  -0.00001   0.00001   0.00002  -0.00009
 100        6PX        -0.00025   0.00053  -0.00039  -0.00061   0.00075
 101        6PY         0.00007   0.00037  -0.00024  -0.00036   0.00043
 102        6PZ         0.00018  -0.00061  -0.00001  -0.00011   0.00025
 103        7PX        -0.00095   0.00163  -0.00048  -0.00121   0.00092
 104        7PY         0.00048   0.00126  -0.00029  -0.00070   0.00055
 105        7PZ         0.00008  -0.00026   0.00048   0.00094  -0.00007
 106        8D 0        0.00001  -0.00004   0.00001   0.00007   0.00013
 107        8D+1       -0.00002   0.00008  -0.00002  -0.00004   0.00003
 108        8D-1       -0.00003   0.00004  -0.00001  -0.00002   0.00002
 109        8D+2        0.00001  -0.00002   0.00002   0.00003  -0.00013
 110        8D-2        0.00001  -0.00004   0.00004   0.00005  -0.00024
 111        9D 0        0.00011  -0.00038   0.00015   0.00025   0.00065
 112        9D+1       -0.00015   0.00007   0.00012   0.00023   0.00000
 113        9D-1        0.00019   0.00012   0.00007   0.00013  -0.00001
 114        9D+2        0.00012  -0.00003   0.00000  -0.00001   0.00005
 115        9D-2       -0.00003  -0.00012  -0.00001  -0.00002   0.00007
 116 5   Cl 1S          0.00000   0.00008  -0.25051   0.14811  -0.02297
 117        2S          0.00001  -0.00029   0.84564  -0.50066   0.07874
 118        3S          0.00000   0.00001  -0.02309   0.00934  -0.00240
 119        4S          0.00000  -0.00002   0.06652  -0.04079   0.00647
 120        5S         -0.00001   0.00001  -0.00210   0.00779   0.00351
 121        6S         -0.00001   0.00000  -0.00154  -0.00211   0.00302
 122        7PX        -0.70815   0.67580   0.00012  -0.00018   0.00004
 123        7PY         0.67580   0.70814   0.00028   0.00008   0.00005
 124        7PZ        -0.00021  -0.00009   0.50132   0.83557  -0.04799
 125        8PX         0.01385  -0.01322   0.00000   0.00000   0.00000
 126        8PY        -0.01322  -0.01385   0.00000   0.00000   0.00000
 127        8PZ         0.00001   0.00000  -0.00879  -0.01404   0.00012
 128        9PX        -0.03786   0.03613   0.00001  -0.00001   0.00000
 129        9PY         0.03613   0.03786   0.00002   0.00000   0.00000
 130        9PZ        -0.00001   0.00000   0.02846   0.04952  -0.00273
 131       10PX         0.00418  -0.00399   0.00000   0.00000   0.00000
 132       10PY        -0.00399  -0.00418   0.00000   0.00000  -0.00001
 133       10PZ         0.00001   0.00000  -0.00435  -0.00276  -0.00347
 134       11PX         0.00155  -0.00148   0.00000   0.00000   0.00000
 135       11PY        -0.00148  -0.00155   0.00000   0.00000   0.00000
 136       11PZ         0.00000   0.00000  -0.00036  -0.00015  -0.00053
 137       12D 0        0.00000   0.00000   0.00001  -0.00051  -0.00017
 138       12D+1        0.00023  -0.00022   0.00000   0.00000   0.00000
 139       12D-1       -0.00022  -0.00023   0.00000   0.00000   0.00000
 140       12D+2        0.00001   0.00001   0.00000   0.00000   0.00000
 141       12D-2       -0.00001   0.00001   0.00000   0.00000   0.00000
 142       13D 0        0.00000   0.00000   0.00088   0.00244   0.00041
 143       13D+1       -0.00058   0.00056   0.00000   0.00000   0.00000
 144       13D-1        0.00056   0.00059   0.00000   0.00000   0.00000
 145       13D+2       -0.00001  -0.00001   0.00000   0.00000   0.00000
 146       13D-2        0.00001  -0.00001   0.00000   0.00000   0.00000
 147       14D 0        0.00000   0.00000   0.00058  -0.00017   0.00080
 148       14D+1        0.00051  -0.00049   0.00000   0.00000   0.00000
 149       14D-1       -0.00049  -0.00052   0.00000   0.00000   0.00000
 150       14D+2        0.00002   0.00002   0.00000   0.00000   0.00000
 151       14D-2       -0.00002   0.00002   0.00000   0.00000   0.00000
 152       15F 0        0.00000   0.00000   0.00001  -0.00007  -0.00003
 153       15F+1        0.00000   0.00000   0.00000   0.00000   0.00000
 154       15F-1        0.00000   0.00000   0.00000   0.00000   0.00000
 155       15F+2        0.00002   0.00002   0.00000   0.00000   0.00000
 156       15F-2       -0.00002   0.00002   0.00000   0.00000   0.00000
 157       15F+3        0.00000   0.00000   0.00000   0.00000   0.00000
 158       15F-3        0.00000   0.00000   0.00001   0.00003   0.00000
 159       16F 0        0.00000   0.00000  -0.00032  -0.00059  -0.00031
 160       16F+1        0.00016  -0.00016   0.00000   0.00000   0.00000
 161       16F-1       -0.00015  -0.00016   0.00000   0.00000   0.00000
 162       16F+2       -0.00002  -0.00002   0.00000   0.00000   0.00000
 163       16F-2        0.00002  -0.00002   0.00000   0.00000   0.00000
 164       16F+3        0.00000   0.00000   0.00000   0.00000   0.00000
 165       16F-3        0.00000   0.00000  -0.00002  -0.00005   0.00002
 166 6   F  1S          0.00000   0.00000  -0.00144  -0.01043  -0.04968
 167        2S          0.00000   0.00000   0.00020   0.00043   0.00080
 168        3S          0.00000   0.00000  -0.00007  -0.00045  -0.00202
 169        4S         -0.00001   0.00000  -0.00055  -0.00105   0.00057
 170        5S         -0.00001   0.00000   0.00010  -0.00168   0.00179
 171        6PX         0.00003  -0.00003   0.00000   0.00000   0.00000
 172        6PY        -0.00003  -0.00003   0.00000   0.00000   0.00000
 173        6PZ         0.00000   0.00000   0.00058   0.00111   0.00011
 174        7PX         0.00000   0.00000   0.00000   0.00000   0.00000
 175        7PY         0.00000   0.00000   0.00000   0.00000   0.00000
 176        7PZ         0.00000   0.00000   0.00069   0.00132   0.00002
 177        8PX         0.00018  -0.00017   0.00000   0.00000   0.00000
 178        8PY        -0.00017  -0.00018   0.00000   0.00000   0.00000
 179        8PZ         0.00000   0.00000   0.00008   0.00017   0.00048
 180        9PX         0.00026  -0.00025   0.00000   0.00000   0.00000
 181        9PY        -0.00025  -0.00026   0.00000   0.00000   0.00000
 182        9PZ         0.00000   0.00000   0.00017  -0.00009   0.00072
 183       10D 0        0.00000   0.00000   0.00001   0.00001  -0.00002
 184       10D+1        0.00000   0.00000   0.00000   0.00000   0.00000
 185       10D-1        0.00000   0.00000   0.00000   0.00000   0.00000
 186       10D+2        0.00000   0.00000   0.00000   0.00000   0.00000
 187       10D-2        0.00000   0.00000   0.00000   0.00000   0.00000
 188       11D 0        0.00000   0.00000  -0.00003  -0.00010   0.00001
 189       11D+1       -0.00003   0.00003   0.00000   0.00000   0.00000
 190       11D-1        0.00003   0.00003   0.00000   0.00000   0.00000
 191       11D+2       -0.00002  -0.00002   0.00000   0.00000   0.00000
 192       11D-2        0.00002  -0.00002   0.00000   0.00000   0.00000
 193       12D 0        0.00000   0.00000  -0.00019  -0.00012   0.00011
 194       12D+1        0.00016  -0.00015   0.00000   0.00000   0.00000
 195       12D-1       -0.00015  -0.00016   0.00000   0.00000   0.00000
 196       12D+2        0.00008   0.00008   0.00000   0.00000   0.00000
 197       12D-2       -0.00008   0.00008   0.00000   0.00000   0.00000
 198       13F 0        0.00000   0.00000   0.00001  -0.00001  -0.00004
 199       13F+1       -0.00001   0.00001   0.00000   0.00000   0.00000
 200       13F-1        0.00001   0.00001   0.00000   0.00000   0.00000
 201       13F+2       -0.00001  -0.00001   0.00000   0.00000   0.00000
 202       13F-2        0.00001  -0.00001   0.00000   0.00000   0.00000
 203       13F+3        0.00000   0.00000   0.00000   0.00000   0.00000
 204       13F-3        0.00000   0.00000   0.00000   0.00000   0.00000
 205       14F 0        0.00000   0.00000  -0.00004   0.00002   0.00013
 206       14F+1        0.00004  -0.00004   0.00000   0.00000   0.00000
 207       14F-1       -0.00004  -0.00004   0.00000   0.00000   0.00000
 208       14F+2        0.00003   0.00003   0.00000   0.00000   0.00000
 209       14F-2       -0.00003   0.00003   0.00000   0.00000   0.00000
 210       14F+3        0.00000   0.00000   0.00000   0.00000   0.00000
 211       14F-3        0.00000   0.00000   0.00000   0.00000  -0.00001
                           6         7         8         9        10
     Eigenvalues --     2.00000   2.00000   1.98361   1.97544   1.96957
   1 1   C  1S          0.05032  -0.00046   0.01553  -0.07426  -0.14339
   2        2S         -0.00012  -0.00001  -0.04229   0.20150   0.39629
   3        3S          0.00229  -0.00003  -0.01048   0.04680   0.09596
   4        4S         -0.00701   0.00016   0.00538   0.08012   0.19037
   5        5S         -0.00017   0.00010   0.00787  -0.00713  -0.02886
   6        6PX         0.00000   0.00000  -0.00012   0.00090   0.00329
   7        6PY         0.00000   0.00000  -0.00008   0.00064   0.00239
   8        6PZ         0.00004   0.00000   0.00648   0.01015  -0.02737
   9        7PX        -0.00001   0.00000  -0.00016   0.00110   0.00414
  10        7PY         0.00000   0.00000  -0.00012   0.00082   0.00307
  11        7PZ        -0.00075   0.00000   0.00708   0.01765  -0.03266
  12        8PX         0.00001   0.00000  -0.00009   0.00078   0.00289
  13        8PY        -0.00001   0.00000   0.00000   0.00034   0.00177
  14        8PZ         0.00521   0.00009   0.01667   0.00583  -0.02269
  15        9PX         0.00000   0.00000  -0.00001   0.00003   0.00015
  16        9PY         0.00000   0.00000   0.00001  -0.00001   0.00003
  17        9PZ         0.00011   0.00001  -0.00070   0.00031  -0.00406
  18       10D 0        0.00004   0.00000   0.00052  -0.00221  -0.00958
  19       10D+1        0.00000   0.00000   0.00001  -0.00002  -0.00006
  20       10D-1        0.00000   0.00000   0.00000  -0.00002  -0.00005
  21       10D+2        0.00000   0.00000   0.00000   0.00002   0.00011
  22       10D-2        0.00000   0.00000  -0.00001   0.00008   0.00026
  23       11D 0       -0.00023  -0.00002  -0.00528   0.00452  -0.01881
  24       11D+1        0.00000   0.00000   0.00002  -0.00004  -0.00009
  25       11D-1        0.00000   0.00000   0.00002  -0.00003  -0.00009
  26       11D+2        0.00000   0.00000  -0.00004   0.00006   0.00030
  27       11D-2        0.00000   0.00000  -0.00005   0.00022   0.00071
  28       12D 0        0.00027   0.00008   0.00206  -0.00852  -0.01664
  29       12D+1        0.00000   0.00000   0.00002   0.00001  -0.00001
  30       12D-1        0.00001   0.00000   0.00002   0.00003   0.00001
  31       12D+2        0.00000   0.00000  -0.00006   0.00010   0.00033
  32       12D-2        0.00001   0.00000  -0.00001   0.00018   0.00052
  33       13F 0       -0.00007   0.00000   0.00000   0.00243   0.00062
  34       13F+1        0.00000   0.00000   0.00000   0.00001   0.00001
  35       13F-1        0.00000   0.00000   0.00000   0.00000   0.00000
  36       13F+2        0.00000   0.00000   0.00000   0.00000   0.00000
  37       13F-2        0.00000   0.00000   0.00000   0.00000   0.00000
  38       13F+3        0.00000   0.00000   0.00000  -0.00001  -0.00002
  39       13F-3        0.00001   0.00000  -0.00014   0.00194   0.00390
  40       14F 0        0.00127  -0.00001   0.00471   0.00261  -0.00198
  41       14F+1        0.00000   0.00000   0.00000  -0.00002  -0.00007
  42       14F-1        0.00000   0.00000   0.00000  -0.00001  -0.00005
  43       14F+2        0.00000   0.00000   0.00001  -0.00001  -0.00002
  44       14F-2        0.00000   0.00000   0.00001  -0.00002  -0.00005
  45       14F+3        0.00000   0.00000  -0.00001   0.00000  -0.00002
  46       14F-3       -0.00044   0.00003   0.00186  -0.00098   0.00406
  47 2   H  1S         -0.00008   0.00000  -0.00859   0.03730   0.07890
  48        2S          0.00098  -0.00006  -0.01536   0.04398   0.08210
  49        3S          0.00180   0.00004  -0.00097  -0.00476  -0.01106
  50        4S          0.00003   0.00000  -0.00046   0.00050   0.00040
  51        5PX         0.00000   0.00000   0.00000   0.00001   0.00005
  52        5PY         0.00001   0.00000  -0.00109   0.00401   0.00849
  53        5PZ        -0.00004   0.00000   0.00028   0.00095   0.00032
  54        6PX         0.00000   0.00000  -0.00002   0.00006   0.00018
  55        6PY         0.00007   0.00000  -0.00076   0.00086   0.00133
  56        6PZ         0.00032  -0.00001   0.00009   0.00242  -0.00054
  57        7PX         0.00001   0.00000   0.00000   0.00009   0.00022
  58        7PY         0.00043   0.00001   0.00135  -0.00496  -0.00997
  59        7PZ        -0.00054   0.00001  -0.00279  -0.00172  -0.00125
  60        8D 0        0.00006   0.00000   0.00014  -0.00036  -0.00090
  61        8D+1        0.00000   0.00000   0.00000   0.00000   0.00000
  62        8D-1       -0.00001   0.00000  -0.00014   0.00050   0.00023
  63        8D+2       -0.00002   0.00000   0.00004  -0.00055  -0.00136
  64        8D-2        0.00000   0.00000   0.00000   0.00001   0.00003
  65        9D 0        0.00009  -0.00001  -0.00006   0.00123   0.00100
  66        9D+1        0.00000   0.00000   0.00000   0.00000  -0.00001
  67        9D-1        0.00014   0.00000  -0.00006   0.00004  -0.00038
  68        9D+2        0.00004   0.00000  -0.00098   0.00226   0.00411
  69        9D-2        0.00000   0.00000   0.00000   0.00001   0.00004
  70 3   H  1S         -0.00008   0.00000  -0.00859   0.03736   0.07926
  71        2S          0.00098  -0.00006  -0.01532   0.04407   0.08251
  72        3S          0.00183   0.00004  -0.00089  -0.00449  -0.01089
  73        4S          0.00003   0.00000  -0.00048   0.00054   0.00048
  74        5PX         0.00001   0.00000  -0.00095   0.00349   0.00742
  75        5PY        -0.00001   0.00000   0.00054  -0.00200  -0.00421
  76        5PZ        -0.00004   0.00000   0.00028   0.00096   0.00033
  77        6PX         0.00006   0.00000  -0.00064   0.00074   0.00120
  78        6PY        -0.00004   0.00000   0.00036  -0.00039  -0.00049
  79        6PZ         0.00032  -0.00001   0.00008   0.00242  -0.00053
  80        7PX         0.00038   0.00001   0.00116  -0.00420  -0.00854
  81        7PY        -0.00021   0.00000  -0.00072   0.00254   0.00522
  82        7PZ        -0.00055   0.00001  -0.00280  -0.00174  -0.00127
  83        8D 0        0.00006   0.00000   0.00014  -0.00035  -0.00090
  84        8D+1       -0.00001   0.00000  -0.00013   0.00043   0.00020
  85        8D-1        0.00000   0.00000   0.00007  -0.00025  -0.00011
  86        8D+2        0.00001   0.00000  -0.00002   0.00028   0.00070
  87        8D-2       -0.00001   0.00000   0.00003  -0.00047  -0.00117
  88        9D 0        0.00009  -0.00001  -0.00006   0.00124   0.00103
  89        9D+1        0.00012   0.00000  -0.00005   0.00003  -0.00033
  90        9D-1       -0.00007   0.00000   0.00003  -0.00002   0.00018
  91        9D+2       -0.00002   0.00000   0.00049  -0.00114  -0.00206
  92        9D-2        0.00003   0.00000  -0.00086   0.00198   0.00359
  93 4   H  1S         -0.00008   0.00000  -0.00880   0.03868   0.08366
  94        2S          0.00098  -0.00006  -0.01530   0.04461   0.08539
  95        3S          0.00182   0.00004  -0.00077  -0.00578  -0.01447
  96        4S          0.00003   0.00000  -0.00047   0.00051   0.00032
  97        5PX        -0.00001   0.00000   0.00096  -0.00360  -0.00775
  98        5PY        -0.00001   0.00000   0.00056  -0.00210  -0.00451
  99        5PZ        -0.00004   0.00000   0.00027   0.00099   0.00039
 100        6PX        -0.00006   0.00000   0.00052  -0.00045  -0.00059
 101        6PY        -0.00004   0.00000   0.00031  -0.00029  -0.00035
 102        6PZ         0.00033  -0.00001   0.00005   0.00245  -0.00052
 103        7PX        -0.00038  -0.00001  -0.00119   0.00454   0.00955
 104        7PY        -0.00022   0.00000  -0.00075   0.00266   0.00561
 105        7PZ        -0.00057   0.00001  -0.00286  -0.00183  -0.00145
 106        8D 0        0.00006   0.00000   0.00014  -0.00037  -0.00094
 107        8D+1        0.00001   0.00000   0.00013  -0.00044  -0.00022
 108        8D-1        0.00000   0.00000   0.00008  -0.00025  -0.00012
 109        8D+2        0.00001   0.00000  -0.00001   0.00028   0.00070
 110        8D-2        0.00002   0.00000  -0.00003   0.00049   0.00123
 111        9D 0        0.00009  -0.00001  -0.00007   0.00127   0.00106
 112        9D+1       -0.00012   0.00000   0.00005  -0.00002   0.00035
 113        9D-1       -0.00007   0.00000   0.00003  -0.00001   0.00020
 114        9D+2       -0.00002   0.00000   0.00050  -0.00117  -0.00212
 115        9D-2       -0.00003   0.00000   0.00088  -0.00203  -0.00371
 116 5   Cl 1S          0.00007   0.99708  -0.00065   0.06627  -0.03518
 117        2S         -0.00006   0.01040   0.00295  -0.25115   0.13225
 118        3S          0.00006   0.00017  -0.00397   0.52307  -0.28131
 119        4S          0.00008   0.00026  -0.00025   0.06406  -0.03785
 120        5S         -0.00182  -0.00020  -0.01235   0.34994  -0.17262
 121        6S         -0.00051  -0.00011  -0.00462   0.02458   0.01114
 122        7PX         0.00000   0.00000   0.00000  -0.00003  -0.00017
 123        7PY         0.00001   0.00000   0.00000  -0.00002  -0.00012
 124        7PZ         0.00730   0.00016   0.00151   0.00471   0.02861
 125        8PX         0.00000   0.00000  -0.00001   0.00008   0.00041
 126        8PY         0.00000   0.00000  -0.00001   0.00006   0.00031
 127        8PZ         0.00051  -0.00003  -0.00224  -0.00634  -0.07170
 128        9PX         0.00000   0.00000   0.00000   0.00003   0.00018
 129        9PY         0.00000   0.00000   0.00000   0.00002   0.00013
 130        9PZ         0.00031   0.00003  -0.00263   0.00054  -0.03126
 131       10PX         0.00000   0.00000   0.00000   0.00002   0.00011
 132       10PY         0.00000   0.00000   0.00000   0.00001   0.00009
 133       10PZ         0.00096   0.00015   0.00273   0.00279  -0.05214
 134       11PX         0.00000   0.00000   0.00000   0.00000  -0.00002
 135       11PY         0.00000   0.00000   0.00000   0.00000  -0.00001
 136       11PZ         0.00002   0.00002  -0.00040   0.00258  -0.00873
 137       12D 0       -0.00003   0.00001  -0.00036   0.00451   0.00450
 138       12D+1        0.00000   0.00000   0.00000  -0.00002  -0.00006
 139       12D-1        0.00000   0.00000   0.00000  -0.00001  -0.00004
 140       12D+2        0.00000   0.00000   0.00000   0.00000   0.00000
 141       12D-2        0.00000   0.00000   0.00000   0.00000   0.00001
 142       13D 0       -0.00022   0.00000  -0.00163   0.00824   0.00961
 143       13D+1        0.00000   0.00000   0.00000  -0.00003  -0.00010
 144       13D-1        0.00000   0.00000   0.00000  -0.00002  -0.00007
 145       13D+2        0.00000   0.00000   0.00000   0.00000   0.00001
 146       13D-2        0.00000   0.00000   0.00000   0.00000   0.00001
 147       14D 0       -0.00014  -0.00004  -0.00184  -0.00016   0.00536
 148       14D+1        0.00000   0.00000   0.00000   0.00001   0.00001
 149       14D-1        0.00000   0.00000   0.00000   0.00000   0.00001
 150       14D+2        0.00000   0.00000   0.00000  -0.00001  -0.00001
 151       14D-2        0.00000   0.00000   0.00000   0.00000  -0.00001
 152       15F 0        0.00005   0.00000   0.00023  -0.00181  -0.00190
 153       15F+1        0.00000   0.00000   0.00000   0.00001   0.00003
 154       15F-1        0.00000   0.00000   0.00000   0.00000   0.00002
 155       15F+2        0.00000   0.00000   0.00000   0.00000   0.00000
 156       15F-2        0.00000   0.00000   0.00000   0.00000   0.00000
 157       15F+3        0.00000   0.00000   0.00000   0.00000   0.00000
 158       15F-3       -0.00001   0.00000  -0.00001   0.00002   0.00009
 159       16F 0       -0.00005   0.00001   0.00005  -0.00093  -0.00169
 160       16F+1        0.00000   0.00000   0.00000   0.00000   0.00001
 161       16F-1        0.00000   0.00000   0.00000   0.00000   0.00001
 162       16F+2        0.00000   0.00000   0.00000   0.00000   0.00000
 163       16F-2        0.00000   0.00000   0.00000   0.00000   0.00001
 164       16F+3        0.00000   0.00000   0.00000   0.00000   0.00000
 165       16F-3        0.00003   0.00000   0.00002  -0.00001  -0.00021
 166 6   F  1S          0.97743  -0.00002   0.21187   0.01336   0.02166
 167        2S         -0.01503   0.00000  -0.53157  -0.03459  -0.05740
 168        3S          0.04206   0.00000  -0.16469  -0.01098  -0.01856
 169        4S          0.00193  -0.00001  -0.36872  -0.02402  -0.04395
 170        5S         -0.00083  -0.00006  -0.04529   0.00424   0.00775
 171        6PX         0.00000   0.00000   0.00001   0.00014   0.00111
 172        6PY         0.00000   0.00000   0.00003   0.00010   0.00087
 173        6PZ         0.00048   0.00000   0.01350   0.01306   0.08699
 174        7PX         0.00000   0.00000   0.00002   0.00017   0.00133
 175        7PY         0.00000   0.00000   0.00003   0.00013   0.00104
 176        7PZ        -0.00012   0.00000   0.01472   0.01595   0.10467
 177        8PX         0.00000   0.00000   0.00002   0.00011   0.00102
 178        8PY         0.00000   0.00000   0.00003   0.00009   0.00080
 179        8PZ         0.00241  -0.00001   0.01246   0.01259   0.08322
 180        9PX         0.00000   0.00000   0.00001   0.00003   0.00027
 181        9PY         0.00000   0.00000   0.00001   0.00002   0.00022
 182        9PZ        -0.00008  -0.00002   0.00219   0.00325   0.02409
 183       10D 0       -0.00002   0.00000  -0.00013   0.00018   0.00060
 184       10D+1        0.00000   0.00000   0.00000   0.00000   0.00001
 185       10D-1        0.00000   0.00000   0.00000   0.00000   0.00000
 186       10D+2        0.00000   0.00000   0.00000   0.00000   0.00000
 187       10D-2        0.00000   0.00000   0.00000   0.00000   0.00000
 188       11D 0       -0.00003   0.00000  -0.00104   0.00092   0.00274
 189       11D+1        0.00000   0.00000   0.00000   0.00001   0.00003
 190       11D-1        0.00000   0.00000   0.00000   0.00001   0.00002
 191       11D+2        0.00000   0.00000   0.00000   0.00000   0.00000
 192       11D-2        0.00000   0.00000   0.00000   0.00000   0.00000
 193       12D 0        0.00080   0.00000  -0.00055   0.00036   0.00383
 194       12D+1        0.00000   0.00000   0.00000  -0.00001   0.00001
 195       12D-1        0.00000   0.00000   0.00000   0.00000   0.00001
 196       12D+2        0.00000   0.00000   0.00000   0.00000  -0.00001
 197       12D-2        0.00000   0.00000   0.00000  -0.00001  -0.00001
 198       13F 0       -0.00006   0.00000  -0.00002   0.00013   0.00027
 199       13F+1        0.00000   0.00000   0.00000   0.00000   0.00000
 200       13F-1        0.00000   0.00000   0.00000   0.00000   0.00000
 201       13F+2        0.00000   0.00000   0.00000   0.00000   0.00000
 202       13F-2        0.00000   0.00000   0.00000   0.00000   0.00000
 203       13F+3        0.00000   0.00000   0.00000   0.00000   0.00000
 204       13F-3        0.00001   0.00000   0.00001   0.00002   0.00003
 205       14F 0        0.00020   0.00000  -0.00039  -0.00006   0.00062
 206       14F+1        0.00000   0.00000   0.00000   0.00000   0.00000
 207       14F-1        0.00000   0.00000   0.00000   0.00000   0.00000
 208       14F+2        0.00000   0.00000   0.00000   0.00000   0.00000
 209       14F-2        0.00000   0.00000   0.00000   0.00000   0.00000
 210       14F+3        0.00000   0.00000   0.00000   0.00000   0.00000
 211       14F-3       -0.00001   0.00000  -0.00007  -0.00006  -0.00009
                          11        12        13        14        15
     Eigenvalues --     1.96441   1.96437   1.95945   1.95924   1.94913
   1 1   C  1S          0.00145   0.00009   0.00145   0.00008  -0.00199
   2        2S         -0.00397  -0.00025  -0.00392  -0.00025   0.00570
   3        3S         -0.00087  -0.00006  -0.00075  -0.00007   0.00143
   4        4S         -0.00086  -0.00036   0.00118  -0.00057   0.01174
   5        5S          0.00061  -0.00007   0.00099  -0.00024   0.00233
   6        6PX         0.08503  -0.05455   0.18840  -0.13298   0.05546
   7        6PY         0.05731   0.08139   0.13241   0.18883   0.03665
   8        6PZ         0.00014   0.00000   0.00004  -0.00004   0.00173
   9        7PX         0.11374  -0.07303   0.24967  -0.17620   0.07710
  10        7PY         0.07666   0.10898   0.17546   0.25018   0.05097
  11        7PZ         0.00009   0.00000   0.00008  -0.00005   0.00244
  12        8PX         0.08366  -0.05371   0.19312  -0.13635   0.05934
  13        8PY         0.05621   0.07987   0.13554   0.19332   0.03916
  14        8PZ         0.00019  -0.00002   0.00015  -0.00001   0.00257
  15        9PX        -0.00145   0.00113   0.01566  -0.01101   0.01011
  16        9PY        -0.00104  -0.00178   0.01094   0.01553   0.00667
  17        9PZ         0.00006  -0.00001   0.00004   0.00000   0.00004
  18       10D 0        0.00007   0.00000   0.00003  -0.00001  -0.00038
  19       10D+1       -0.00229   0.00151  -0.00105   0.00073  -0.00311
  20       10D-1       -0.00154  -0.00224  -0.00073  -0.00103  -0.00206
  21       10D+2        0.00362   0.00518   0.00842   0.01210   0.00269
  22       10D-2        0.00545  -0.00346   0.01219  -0.00851   0.00414
  23       11D 0        0.00010   0.00001  -0.00012   0.00000  -0.00198
  24       11D+1       -0.01053   0.00707   0.00634  -0.00441  -0.01297
  25       11D-1       -0.00709  -0.01054   0.00447   0.00629  -0.00859
  26       11D+2        0.01190   0.01719   0.02569   0.03712   0.00911
  27       11D-2        0.01792  -0.01147   0.03716  -0.02607   0.01402
  28       12D 0        0.00026   0.00007   0.00018   0.00001  -0.00111
  29       12D+1       -0.00496   0.00340   0.00466  -0.00328   0.00096
  30       12D-1       -0.00333  -0.00505   0.00330   0.00469   0.00065
  31       12D+2        0.01148   0.01672   0.02030   0.02947   0.00536
  32       12D-2        0.01743  -0.01125   0.02949  -0.02080   0.00834
  33       13F 0       -0.00001   0.00000  -0.00002   0.00000   0.00008
  34       13F+1        0.00019  -0.00014  -0.00164   0.00115  -0.00184
  35       13F-1        0.00013   0.00021  -0.00116  -0.00164  -0.00122
  36       13F+2       -0.00035  -0.00053  -0.00005  -0.00010  -0.00018
  37       13F-2       -0.00054   0.00036  -0.00007   0.00007  -0.00028
  38       13F+3        0.00000   0.00001  -0.00002   0.00003  -0.00001
  39       13F-3       -0.00007  -0.00001  -0.00009  -0.00001   0.00010
  40       14F 0        0.00002  -0.00001   0.00007   0.00000   0.00025
  41       14F+1        0.00023  -0.00021  -0.00481   0.00334  -0.00601
  42       14F-1        0.00015   0.00031  -0.00340  -0.00478  -0.00399
  43       14F+2       -0.00215  -0.00322  -0.00004  -0.00011  -0.00177
  44       14F-2       -0.00322   0.00214  -0.00004   0.00007  -0.00273
  45       14F+3       -0.00004   0.00000  -0.00012   0.00003  -0.00001
  46       14F-3        0.00001   0.00001   0.00004   0.00000   0.00057
  47 2   H  1S         -0.04004  -0.05604  -0.08739  -0.12395  -0.02388
  48        2S         -0.03661  -0.05059  -0.08939  -0.12628  -0.02467
  49        3S          0.03371   0.04832   0.06844   0.09781   0.00173
  50        4S         -0.00310  -0.00475   0.01007   0.01427   0.00056
  51        5PX         0.00180  -0.00117   0.00354  -0.00252   0.00085
  52        5PY        -0.00318  -0.00440  -0.00718  -0.01013  -0.00186
  53        5PZ        -0.00002   0.00002  -0.00161  -0.00228   0.00022
  54        6PX         0.00685  -0.00447   0.01095  -0.00783   0.00302
  55        6PY         0.00407   0.00597   0.00631   0.00915   0.00281
  56        6PZ        -0.00157  -0.00232   0.00027   0.00032  -0.00059
  57        7PX         0.00799  -0.00517   0.01087  -0.00770   0.00231
  58        7PY         0.00846   0.01172   0.02627   0.03729   0.00473
  59        7PZ         0.00046   0.00055   0.00440   0.00623   0.00130
  60        8D 0        0.00026   0.00034   0.00079   0.00112   0.00021
  61        8D+1        0.00002  -0.00001   0.00026  -0.00018  -0.00003
  62        8D-1       -0.00042  -0.00062  -0.00013  -0.00020  -0.00015
  63        8D+2        0.00037   0.00050   0.00111   0.00158   0.00026
  64        8D-2        0.00091  -0.00058   0.00182  -0.00129   0.00049
  65        9D 0       -0.00031  -0.00045   0.00082   0.00121  -0.00012
  66        9D+1       -0.00126   0.00086   0.00085  -0.00057  -0.00099
  67        9D-1       -0.00183  -0.00277   0.00201   0.00280  -0.00035
  68        9D+2       -0.00097  -0.00133  -0.00159  -0.00215  -0.00064
  69        9D-2        0.00141  -0.00092   0.00233  -0.00166   0.00092
  70 3   H  1S         -0.03171   0.06045  -0.06446   0.13745  -0.01922
  71        2S         -0.02901   0.05460  -0.06601   0.14016  -0.02008
  72        3S          0.02697  -0.05219   0.05073  -0.10848   0.00136
  73        4S         -0.00239   0.00510   0.00748  -0.01585   0.00046
  74        5PX        -0.00120   0.00457  -0.00261   0.01065  -0.00083
  75        5PY         0.00295  -0.00157   0.00605  -0.00403   0.00154
  76        5PZ        -0.00001  -0.00002  -0.00118   0.00254   0.00019
  77        6PX         0.00648  -0.00378   0.01013  -0.00590   0.00356
  78        6PY         0.00481   0.00630   0.00822   0.01004   0.00164
  79        6PZ        -0.00123   0.00249   0.00023  -0.00037  -0.00049
  80        7PX         0.01004  -0.00891   0.02274  -0.03305   0.00448
  81        7PY         0.00403   0.00986   0.00064   0.02555   0.00019
  82        7PZ         0.00038  -0.00059   0.00326  -0.00694   0.00099
  83        8D 0        0.00020  -0.00037   0.00058  -0.00124   0.00017
  84        8D+1       -0.00028   0.00059   0.00006   0.00026  -0.00012
  85        8D-1        0.00019  -0.00033   0.00030   0.00000   0.00004
  86        8D+2        0.00070   0.00067   0.00133   0.00169   0.00035
  87        8D-2        0.00074  -0.00024   0.00171  -0.00104   0.00043
  88        9D 0       -0.00023   0.00047   0.00062  -0.00135  -0.00009
  89        9D+1       -0.00193   0.00225   0.00175  -0.00248  -0.00078
  90        9D-1       -0.00045  -0.00209   0.00007   0.00191  -0.00077
  91        9D+2        0.00169  -0.00008   0.00281  -0.00015   0.00110
  92        9D-2        0.00008   0.00162   0.00024   0.00270   0.00002
  93 4   H  1S          0.06958  -0.00437   0.14996  -0.01329   0.04702
  94        2S          0.06152  -0.00381   0.14935  -0.01321   0.04408
  95        3S         -0.06148   0.00419  -0.12253   0.01119  -0.00647
  96        4S          0.00546  -0.00033  -0.01775   0.00162  -0.00110
  97        5PX        -0.00480  -0.00079  -0.01082  -0.00132  -0.00316
  98        5PY        -0.00263   0.00202  -0.00588   0.00439  -0.00178
  99        5PZ         0.00005   0.00000   0.00283  -0.00025  -0.00007
 100        6PX         0.00627  -0.00448   0.00949  -0.00783   0.00490
 101        6PY         0.00432   0.00673   0.00688   0.01132   0.00313
 102        6PZ         0.00282  -0.00019  -0.00067   0.00007   0.00125
 103        7PX         0.01238  -0.00543   0.03866  -0.01019   0.00832
 104        7PY         0.00802   0.00755   0.02390   0.00952   0.00503
 105        7PZ        -0.00089   0.00006  -0.00778   0.00068  -0.00330
 106        8D 0       -0.00042   0.00003  -0.00132   0.00012  -0.00039
 107        8D+1       -0.00065   0.00003  -0.00020  -0.00015  -0.00026
 108        8D-1       -0.00038   0.00004  -0.00008   0.00029  -0.00015
 109        8D+2        0.00037   0.00091   0.00108   0.00190   0.00029
 110        8D-2        0.00049  -0.00056   0.00151  -0.00125   0.00044
 111        9D 0        0.00047  -0.00002  -0.00149   0.00015   0.00013
 112        9D+1       -0.00276   0.00096   0.00299  -0.00076  -0.00028
 113        9D-1       -0.00174  -0.00123   0.00184   0.00071  -0.00026
 114        9D+2       -0.00067   0.00144  -0.00103   0.00257  -0.00042
 115        9D-2       -0.00145  -0.00071  -0.00235  -0.00120  -0.00088
 116 5   Cl 1S          0.00021   0.00001   0.00017   0.00000  -0.00039
 117        2S         -0.00077  -0.00004  -0.00063  -0.00002   0.00148
 118        3S          0.00169   0.00009   0.00143   0.00004  -0.00301
 119        4S          0.00024   0.00001   0.00022   0.00001  -0.00046
 120        5S          0.00089   0.00004   0.00073   0.00005  -0.00266
 121        6S         -0.00029   0.00000  -0.00036   0.00007  -0.00087
 122        7PX        -0.00762   0.00490  -0.03437   0.02507   0.18649
 123        7PY        -0.00514  -0.00732  -0.02417  -0.03562   0.12351
 124        7PZ        -0.00043  -0.00002  -0.00070   0.00000  -0.00135
 125        8PX         0.01807  -0.01161   0.08130  -0.05924  -0.42666
 126        8PY         0.01219   0.01735   0.05718   0.08417  -0.28257
 127        8PZ         0.00104   0.00004   0.00164   0.00001   0.00313
 128        9PX         0.00837  -0.00539   0.03756  -0.02740  -0.20609
 129        9PY         0.00565   0.00805   0.02641   0.03893  -0.13649
 130        9PZ         0.00044   0.00002   0.00072   0.00001   0.00153
 131       10PX         0.00893  -0.00578   0.04361  -0.03203  -0.30655
 132       10PY         0.00603   0.00865   0.03070   0.04555  -0.20303
 133       10PZ         0.00079   0.00002   0.00125  -0.00003   0.00336
 134       11PX         0.00172  -0.00117   0.00246  -0.00192  -0.05175
 135       11PY         0.00117   0.00176   0.00175   0.00276  -0.03427
 136       11PZ         0.00013   0.00000   0.00022  -0.00002   0.00102
 137       12D 0       -0.00006   0.00000  -0.00007   0.00000   0.00017
 138       12D+1       -0.00166   0.00105  -0.00501   0.00356   0.00023
 139       12D-1       -0.00111  -0.00157  -0.00352  -0.00505   0.00016
 140       12D+2        0.00007   0.00009   0.00031   0.00045   0.00013
 141       12D-2        0.00010  -0.00006   0.00044  -0.00031   0.00020
 142       13D 0       -0.00014   0.00000  -0.00017   0.00000   0.00025
 143       13D+1       -0.00256   0.00162  -0.00887   0.00631   0.00065
 144       13D-1       -0.00173  -0.00242  -0.00624  -0.00896   0.00044
 145       13D+2        0.00018   0.00027   0.00036   0.00053   0.00030
 146       13D-2        0.00028  -0.00018   0.00052  -0.00037   0.00046
 147       14D 0       -0.00008   0.00000  -0.00013   0.00001  -0.00011
 148       14D+1        0.00006  -0.00004   0.00007  -0.00004   0.00280
 149       14D-1        0.00004   0.00005   0.00004   0.00004   0.00187
 150       14D+2       -0.00036  -0.00055  -0.00004  -0.00006   0.00004
 151       14D-2       -0.00055   0.00037  -0.00006   0.00004   0.00005
 152       15F 0        0.00002   0.00000   0.00003   0.00000  -0.00003
 153       15F+1        0.00077  -0.00049   0.00213  -0.00151  -0.00119
 154       15F-1        0.00052   0.00074   0.00149   0.00215  -0.00079
 155       15F+2       -0.00006  -0.00009  -0.00019  -0.00028  -0.00005
 156       15F-2       -0.00010   0.00006  -0.00027   0.00019  -0.00008
 157       15F+3        0.00000   0.00000   0.00000   0.00000   0.00000
 158       15F-3        0.00000   0.00000   0.00000   0.00000   0.00000
 159       16F 0        0.00003   0.00000   0.00004   0.00000  -0.00004
 160       16F+1        0.00051  -0.00033   0.00160  -0.00115  -0.00151
 161       16F-1        0.00035   0.00049   0.00113   0.00164  -0.00100
 162       16F+2        0.00001   0.00001   0.00011   0.00015  -0.00011
 163       16F-2        0.00001  -0.00001   0.00016  -0.00011  -0.00017
 164       16F+3        0.00000   0.00000   0.00000   0.00000   0.00000
 165       16F-3        0.00000   0.00000   0.00000   0.00000   0.00000
 166 6   F  1S         -0.00019  -0.00001  -0.00015  -0.00001   0.00046
 167        2S          0.00053   0.00004   0.00045   0.00001  -0.00099
 168        3S          0.00017   0.00001   0.00015   0.00000  -0.00030
 169        4S          0.00039   0.00002   0.00036   0.00003  -0.00063
 170        5S         -0.00020  -0.00001  -0.00018   0.00004  -0.00020
 171        6PX         0.27320  -0.18537  -0.13754   0.09323  -0.01845
 172        6PY         0.18349   0.27555  -0.09690  -0.13270  -0.01222
 173        6PZ        -0.00152  -0.00021  -0.00237  -0.00001  -0.01439
 174        7PX         0.32591  -0.22113  -0.16312   0.11054  -0.02184
 175        7PY         0.21890   0.32870  -0.11492  -0.15735  -0.01447
 176        7PZ        -0.00182  -0.00025  -0.00284  -0.00001  -0.01716
 177        8PX         0.26339  -0.17877  -0.13701   0.09299  -0.01871
 178        8PY         0.17691   0.26574  -0.09652  -0.13235  -0.01239
 179        8PZ        -0.00150  -0.00020  -0.00234   0.00001  -0.01414
 180        9PX         0.08269  -0.05618  -0.04812   0.03280  -0.00912
 181        9PY         0.05555   0.08353  -0.03388  -0.04667  -0.00604
 182        9PZ        -0.00046  -0.00006  -0.00069   0.00001  -0.00441
 183       10D 0       -0.00001   0.00000  -0.00001   0.00000  -0.00003
 184       10D+1        0.00050  -0.00034   0.00007  -0.00005   0.00010
 185       10D-1        0.00034   0.00050   0.00005   0.00007   0.00006
 186       10D+2        0.00001   0.00002   0.00002   0.00003   0.00001
 187       10D-2        0.00002  -0.00001   0.00003  -0.00002   0.00001
 188       11D 0       -0.00004   0.00000  -0.00004   0.00000  -0.00009
 189       11D+1        0.00203  -0.00135   0.00095  -0.00070   0.00048
 190       11D-1        0.00136   0.00201   0.00067   0.00100   0.00032
 191       11D+2        0.00003   0.00004   0.00014   0.00021   0.00009
 192       11D-2        0.00005  -0.00003   0.00020  -0.00015   0.00014
 193       12D 0       -0.00007  -0.00001  -0.00010   0.00000  -0.00040
 194       12D+1        0.00487  -0.00331  -0.00299   0.00204   0.00026
 195       12D-1        0.00327   0.00492  -0.00211  -0.00291   0.00018
 196       12D+2        0.00001   0.00002  -0.00016  -0.00023  -0.00020
 197       12D-2        0.00003  -0.00002  -0.00023   0.00016  -0.00031
 198       13F 0        0.00000   0.00000   0.00000   0.00000  -0.00001
 199       13F+1        0.00019  -0.00012   0.00020  -0.00014   0.00005
 200       13F-1        0.00013   0.00018   0.00014   0.00021   0.00003
 201       13F+2        0.00003   0.00005   0.00006   0.00009   0.00003
 202       13F-2        0.00005  -0.00003   0.00009  -0.00006   0.00005
 203       13F+3        0.00000   0.00000   0.00000   0.00000   0.00000
 204       13F-3        0.00000   0.00000   0.00000   0.00000   0.00000
 205       14F 0       -0.00002   0.00000  -0.00002   0.00000  -0.00008
 206       14F+1        0.00120  -0.00081  -0.00073   0.00050   0.00001
 207       14F-1        0.00080   0.00121  -0.00052  -0.00071   0.00001
 208       14F+2       -0.00007  -0.00011  -0.00013  -0.00020  -0.00009
 209       14F-2       -0.00011   0.00007  -0.00019   0.00014  -0.00013
 210       14F+3        0.00000   0.00000   0.00000   0.00000   0.00000
 211       14F-3        0.00000   0.00000   0.00000   0.00000   0.00000
                          16        17        18        19        20
     Eigenvalues --     1.94911   1.94882   1.93538   0.06016   0.02493
   1 1   C  1S         -0.00015   0.05316  -0.01576  -0.02407   0.00017
   2        2S          0.00044  -0.15134   0.05084   0.06693  -0.00062
   3        3S          0.00010  -0.03575   0.01675   0.02429  -0.00031
   4        4S          0.00070  -0.29184   0.08714  -0.22305   0.00083
   5        5S          0.00006  -0.05763   0.03920  -0.02946   0.00020
   6        6PX        -0.03758   0.00281  -0.00022   0.00006  -0.06590
   7        6PY         0.05660   0.00219  -0.00020   0.00014   0.13955
   8        6PZ         0.00014  -0.04565  -0.12868   0.27924  -0.00007
   9        7PX        -0.05220   0.00398  -0.00045   0.00032  -0.12235
  10        7PY         0.07865   0.00310  -0.00038   0.00039   0.25882
  11        7PZ         0.00020  -0.06473  -0.18049   0.44314  -0.00008
  12        8PX        -0.04029   0.00317  -0.00052   0.00004  -0.05596
  13        8PY         0.06059   0.00228  -0.00038  -0.00005   0.11902
  14        8PZ         0.00020  -0.06427  -0.07672   0.20212  -0.00018
  15        9PX        -0.00680   0.00049  -0.00007  -0.00005  -0.01233
  16        9PY         0.01022   0.00032  -0.00002  -0.00001   0.02677
  17        9PZ         0.00000  -0.00124  -0.00168  -0.00004   0.00000
  18       10D 0       -0.00003   0.00934  -0.01105  -0.00886  -0.00003
  19       10D+1        0.00206  -0.00013  -0.00001   0.00007  -0.01077
  20       10D-1       -0.00311  -0.00010  -0.00002   0.00004   0.02315
  21       10D+2        0.00418   0.00018  -0.00003   0.00002   0.00348
  22       10D-2       -0.00277   0.00018   0.00000   0.00003  -0.00154
  23       11D 0       -0.00014   0.04972  -0.04570   0.06675  -0.00020
  24       11D+1        0.00854  -0.00054   0.00002  -0.00001  -0.02521
  25       11D-1       -0.01288  -0.00042  -0.00002   0.00007   0.05436
  26       11D+2        0.01425   0.00076  -0.00018   0.00027   0.06341
  27       11D-2       -0.00943   0.00073  -0.00007   0.00003  -0.02983
  28       12D 0       -0.00013   0.02814  -0.00375  -0.01713  -0.00012
  29       12D+1       -0.00065   0.00003  -0.00003   0.00002  -0.00812
  30       12D-1        0.00100   0.00010  -0.00013   0.00011   0.01713
  31       12D+2        0.00844   0.00062  -0.00017   0.00030   0.01292
  32       12D-2       -0.00564   0.00047  -0.00006  -0.00010  -0.00643
  33       13F 0        0.00001  -0.00207  -0.00329  -0.00584  -0.00001
  34       13F+1        0.00123  -0.00008   0.00000  -0.00001   0.00407
  35       13F-1       -0.00186  -0.00006   0.00000  -0.00001  -0.00866
  36       13F+2       -0.00027  -0.00001   0.00001  -0.00005   0.00285
  37       13F-2        0.00018  -0.00003   0.00001   0.00000  -0.00132
  38       13F+3        0.00001   0.00001   0.00000   0.00000   0.00001
  39       13F-3        0.00001  -0.00304   0.00113  -0.00050  -0.00001
  40       14F 0        0.00002  -0.00549  -0.00087   0.01159  -0.00006
  41       14F+1        0.00401  -0.00024   0.00002  -0.00007   0.00109
  42       14F-1       -0.00606  -0.00016   0.00001  -0.00004  -0.00229
  43       14F+2       -0.00271  -0.00014   0.00002   0.00007  -0.00198
  44       14F-2        0.00179  -0.00013   0.00002  -0.00003   0.00099
  45       14F+3       -0.00001   0.00006  -0.00004   0.00017   0.00003
  46       14F-3        0.00003  -0.01499   0.00919  -0.03782   0.00010
  47 2   H  1S         -0.03886  -0.03527   0.02897  -0.00686   0.03674
  48        2S         -0.03831  -0.00457   0.02280   0.08050   0.23316
  49        3S          0.00449   0.02240   0.02001   0.06898   0.14811
  50        4S          0.00093   0.00011   0.00194   0.00725   0.06533
  51        5PX        -0.00059   0.00005  -0.00001   0.00000  -0.00121
  52        5PY        -0.00299  -0.00226   0.00249  -0.00201  -0.00792
  53        5PZ         0.00016  -0.00267  -0.00321   0.01429  -0.01106
  54        6PX        -0.00208   0.00023  -0.00006   0.00014  -0.00324
  55        6PY         0.00466   0.00575  -0.00162   0.00995   0.05327
  56        6PZ        -0.00097  -0.00110  -0.01028   0.02828  -0.00524
  57        7PX        -0.00159   0.00016  -0.00005  -0.00006   0.00056
  58        7PY         0.00808   0.01140  -0.00175   0.01265   0.04569
  59        7PZ         0.00243   0.00817   0.00311  -0.01398   0.00479
  60        8D 0        0.00034   0.00016  -0.00084   0.00060   0.00232
  61        8D+1        0.00002   0.00000   0.00000   0.00000  -0.00077
  62        8D-1       -0.00024  -0.00022  -0.00171   0.00673  -0.00362
  63        8D+2        0.00043   0.00054  -0.00060   0.00186   0.00234
  64        8D-2       -0.00033   0.00003  -0.00001   0.00001  -0.00091
  65        9D 0       -0.00012   0.00082  -0.00283   0.00601  -0.00300
  66        9D+1        0.00065  -0.00003   0.00000   0.00001  -0.00184
  67        9D-1       -0.00039   0.00199  -0.00055  -0.00586   0.01400
  68        9D+2       -0.00089   0.00104   0.00037  -0.00116  -0.00852
  69        9D-2       -0.00063   0.00006  -0.00002   0.00001  -0.00051
  70 3   H  1S          0.04197  -0.03458   0.02885  -0.00683  -0.03319
  71        2S          0.04128  -0.00399   0.02272   0.08024  -0.21191
  72        3S         -0.00498   0.02208   0.02009   0.06856  -0.13501
  73        4S         -0.00099   0.00020   0.00188   0.00718  -0.05882
  74        5PX         0.00303  -0.00188   0.00215  -0.00174   0.00700
  75        5PY        -0.00121   0.00115  -0.00125   0.00102  -0.00224
  76        5PZ        -0.00015  -0.00267  -0.00321   0.01429   0.01000
  77        6PX        -0.00350   0.00497  -0.00138   0.00853  -0.03984
  78        6PY         0.00397  -0.00260   0.00075  -0.00495   0.02789
  79        6PZ         0.00105  -0.00103  -0.01028   0.02815   0.00464
  80        7PX        -0.00695   0.00990  -0.00155   0.01110  -0.03653
  81        7PY         0.00546  -0.00533   0.00074  -0.00628   0.01964
  82        7PZ        -0.00267   0.00809   0.00321  -0.01408  -0.00446
  83        8D 0       -0.00036   0.00015  -0.00085   0.00060  -0.00211
  84        8D+1        0.00022  -0.00018  -0.00148   0.00582   0.00334
  85        8D-1       -0.00014   0.00010   0.00085  -0.00337  -0.00074
  86        8D+2        0.00047  -0.00024   0.00030  -0.00092   0.00208
  87        8D-2       -0.00027   0.00048  -0.00053   0.00162  -0.00125
  88        9D 0        0.00014   0.00081  -0.00282   0.00598   0.00270
  89        9D+1        0.00008   0.00171  -0.00047  -0.00506  -0.00968
  90        9D-1       -0.00066  -0.00106   0.00028   0.00298   0.00855
  91        9D+2       -0.00004  -0.00047  -0.00020   0.00057  -0.00331
  92        9D-2        0.00108   0.00097   0.00029  -0.00097   0.00706
  93 4   H  1S         -0.00272  -0.03129   0.02869  -0.00683  -0.00288
  94        2S         -0.00266  -0.00038   0.02231   0.08025  -0.02080
  95        3S          0.00042   0.02206   0.02031   0.06986  -0.01373
  96        4S          0.00008   0.00013   0.00190   0.00722  -0.00660
  97        5PX        -0.00037   0.00172  -0.00217   0.00183  -0.00214
  98        5PY         0.00104   0.00101  -0.00127   0.00108   0.00208
  99        5PZ         0.00002  -0.00271  -0.00328   0.01459   0.00114
 100        6PX        -0.00220  -0.00428   0.00115  -0.00771   0.00020
 101        6PY         0.00309  -0.00249   0.00070  -0.00469   0.00902
 102        6PZ        -0.00008  -0.00085  -0.01039   0.02806   0.00055
 103        7PX        -0.00191  -0.00916   0.00130  -0.01123   0.00467
 104        7PY         0.00217  -0.00514   0.00066  -0.00634   0.00066
 105        7PZ         0.00014   0.00803   0.00334  -0.01456  -0.00032
 106        8D 0        0.00002   0.00013  -0.00085   0.00066  -0.00023
 107        8D+1        0.00003   0.00016   0.00149  -0.00584  -0.00124
 108        8D-1       -0.00002   0.00009   0.00087  -0.00343   0.00140
 109        8D+2        0.00052  -0.00026   0.00030  -0.00097   0.00200
 110        8D-2       -0.00032  -0.00046   0.00053  -0.00172  -0.00083
 111        9D 0        0.00001   0.00081  -0.00286   0.00612   0.00025
 112        9D+1        0.00063  -0.00175   0.00044   0.00532  -0.00100
 113        9D-1       -0.00101  -0.00106   0.00026   0.00315   0.00449
 114        9D+2        0.00100  -0.00057  -0.00017   0.00054   0.00066
 115        9D-2       -0.00049  -0.00104  -0.00027   0.00095  -0.00120
 116 5   Cl 1S         -0.00003   0.01019   0.00051  -0.01679   0.00000
 117        2S          0.00012  -0.03889  -0.00172   0.05629  -0.00001
 118        3S         -0.00026   0.08036   0.01135  -0.15673   0.00003
 119        4S         -0.00004   0.01240   0.00454  -0.03986   0.00000
 120        5S         -0.00018   0.06890   0.01229  -0.04586   0.00011
 121        6S         -0.00003   0.02041  -0.01255   0.01605   0.00003
 122        7PX        -0.12347   0.00711  -0.00013  -0.00001  -0.00890
 123        7PY         0.18641   0.00558  -0.00013  -0.00005   0.01907
 124        7PZ        -0.00014   0.02659  -0.21014  -0.16342   0.00007
 125        8PX         0.28248  -0.01625   0.00028   0.00004   0.01386
[...]
  79        6PZ        -0.33311   0.03735  -0.00603  -0.16124   0.16543
  80        7PX         0.90199   5.43965  -8.40257  -1.77682   6.53333
  81        7PY        -1.00811  -8.28321  -6.21327   0.99098  -3.56450
  82        7PZ        -1.48282   3.02763  -1.39683   0.03181   0.82783
  83        8D 0       -0.03613  -0.00945   0.00563   0.02555  -0.01870
  84        8D+1        0.00974   0.01047  -0.02927   0.00823  -0.01340
  85        8D-1       -0.00643  -0.02739  -0.02735  -0.00511   0.00733
  86        8D+2        0.06421   0.04686   0.09108   0.02401   0.01899
  87        8D-2       -0.10669   0.02166   0.06113  -0.04144  -0.03644
  88        9D 0       -0.50056  -0.44935   0.21451  -0.14810  -0.26778
  89        9D+1       -0.21487   0.24643   0.10681  -0.03471   0.23875
  90        9D-1        0.13491   0.05290   0.34168   0.02444  -0.13285
  91        9D+2       -0.16398  -0.04950  -1.74334  -0.36507   0.16206
  92        9D-2        0.16100  -1.46741  -0.32597   0.61536  -0.22153
  93 4   H  1S         -0.03552   0.00147  -0.01233  -0.00658   0.01341
  94        2S          0.35257  -0.36579   3.80454  -0.58069  -1.10665
  95        3S          8.05692  -2.50712  28.41625  -3.19906 -12.37496
  96        4S          1.60869   0.10529  -1.97445  -2.00080  -5.22600
  97        5PX        -0.03242  -0.05948   0.08816  -0.08021  -0.02311
  98        5PY        -0.01480   0.08603   0.05983  -0.04566  -0.06703
  99        5PZ         0.05959  -0.00249   0.01021   0.03096   0.00505
 100        6PX        -0.57995   0.92213  -2.13469   0.61801   0.31741
 101        6PY        -0.38630  -1.15405  -1.37113   0.34882   0.72423
 102        6PZ        -0.32888   0.00491   0.04671  -0.16436  -0.08047
 103        7PX        -0.95258   5.95678  -7.96315   1.73217   1.48701
 104        7PY        -0.93416  -8.73753  -5.57925   0.95540   4.48820
 105        7PZ        -1.39125  -0.22710   3.40242   0.05241  -0.38937
 106        8D 0       -0.03853   0.00091  -0.01560   0.02590   0.00969
 107        8D+1       -0.00772   0.02303  -0.02225  -0.00734  -0.00300
 108        8D-1       -0.00551  -0.03541  -0.01668  -0.00469  -0.00759
 109        8D+2        0.06502   0.10260   0.01667   0.02231  -0.03195
 110        8D-2        0.11054  -0.06131   0.01070   0.04003  -0.00578
 111        9D 0       -0.48953   0.03776  -0.48180  -0.15418   0.12231
 112        9D+1        0.20188  -0.19016  -0.19328   0.02836   0.06715
 113        9D-1        0.12815   0.34684  -0.07522   0.01882   0.13530
 114        9D+2       -0.16208  -1.63143   0.56156  -0.36029   0.37470
 115        9D-2       -0.17810   0.80676   1.26695  -0.61179  -0.36645
 116 5   Cl 1S          0.02026  -0.00040  -0.00036   0.01183   0.00009
 117        2S          0.28014  -0.00534  -0.00486   0.16461   0.00144
 118        3S          0.78151  -0.01528  -0.01392   0.46243   0.00375
 119        4S         -0.04151   0.00027   0.00007  -0.01492  -0.00051
 120        5S         -4.34720   0.09055   0.07717  -3.02963  -0.02157
 121        6S         -9.84290   0.21726   0.23639 -13.29364  -0.05517
 122        7PX         0.00008  -0.00045   0.00077   0.00009  -0.00254
 123        7PY         0.00000   0.00066   0.00054  -0.00004   0.00155
 124        7PZ        -0.00466   0.00024   0.00041  -0.02282  -0.00011
 125        8PX         0.00104  -0.01050   0.01602   0.00157  -0.05036
 126        8PY        -0.00001   0.01564   0.01146  -0.00066   0.03117
 127        8PZ        -0.06611   0.00329   0.00513  -0.31936  -0.00138
 128        9PX        -0.00036   0.00224  -0.00379  -0.00034   0.00857
 129        9PY        -0.00006  -0.00321  -0.00262   0.00014  -0.00518
 130        9PZ         0.00214  -0.00057  -0.00122   0.07985   0.00039
 131       10PX         0.00788   0.04259  -0.05137  -0.00812   0.35696
 132       10PY         0.01522  -0.06827  -0.04037   0.00556  -0.22350
 133       10PZ         5.92470  -0.13120  -0.13242   5.10280   0.02639
 134       11PX        -0.00393   0.65374  -0.94222  -0.00551  -0.20753
 135       11PY        -0.02648  -0.95727  -0.65909  -0.00352   0.13702
 136       11PZ         0.80203  -0.01708  -0.02364   3.37398   0.01488
 137       12D 0        0.06815  -0.00148  -0.00131   0.00176  -0.00001
 138       12D+1        0.00061  -0.01738   0.02548   0.00028  -0.00321
 139       12D-1        0.00116   0.02540   0.01779   0.00015   0.00174
 140       12D+2       -0.00115  -0.00545  -0.00408  -0.00011  -0.00663
 141       12D-2       -0.00059   0.00383  -0.00610   0.00004   0.01035
 142       13D 0       -0.38841   0.00805   0.00737  -0.07064  -0.00029
 143       13D+1       -0.00287   0.06367  -0.09430  -0.00122   0.02217
 144       13D-1       -0.00468  -0.09286  -0.06574  -0.00032  -0.01277
 145       13D+2        0.00328   0.01187   0.00910   0.00037   0.02388
 146       13D-2        0.00179  -0.00838   0.01367   0.00001  -0.03725
 147       14D 0       -1.39989   0.03234   0.03448  -1.25116  -0.00618
 148       14D+1        0.00053  -0.17477   0.24629   0.00804  -0.27473
 149       14D-1        0.00165   0.25998   0.17539  -0.00174   0.17134
 150       14D+2       -0.00201  -0.05590  -0.03491  -0.00210  -0.10853
 151       14D-2       -0.00022   0.03684  -0.04886  -0.00293   0.16905
 152       15F 0       -0.04315   0.00105   0.00140   0.00116   0.00000
 153       15F+1       -0.00002  -0.00227   0.00329   0.00034  -0.01561
 154       15F-1       -0.00006   0.00342   0.00237  -0.00025   0.00996
 155       15F+2        0.00000  -0.00876  -0.00546  -0.00040  -0.00543
 156       15F-2        0.00024   0.00588  -0.00779  -0.00056   0.00852
 157       15F+3        0.00003   0.00000  -0.00012  -0.00010   0.00003
 158       15F-3       -0.00933   0.00045  -0.00013   0.02300   0.00012
 159       16F 0        0.23392  -0.00559  -0.00598   0.09000   0.00027
 160       16F+1        0.00043   0.00807  -0.00988  -0.00143   0.05293
 161       16F-1        0.00076  -0.01272  -0.00759   0.00069  -0.03385
 162       16F+2        0.00037   0.04026   0.02564   0.00117   0.02248
 163       16F-2       -0.00068  -0.02701   0.03661   0.00172  -0.03513
 164       16F+3       -0.00006   0.00003   0.00022   0.00019  -0.00006
 165       16F-3        0.01927  -0.00100   0.00021  -0.04302  -0.00026
 166 6   F  1S          0.04003  -0.00071  -0.00031  -0.02247   0.00019
 167        2S          0.14071  -0.00231  -0.00079  -0.08530   0.00082
 168        3S         -0.07187   0.00141   0.00079   0.03644  -0.00015
 169        4S         -0.38020   0.00574   0.00222  -0.02262  -0.00470
 170        5S         -0.03440  -0.01610   0.00868  -5.93015  -0.02491
 171        6PX        -0.00003   0.00404  -0.00594  -0.00002   0.00148
 172        6PY        -0.00022  -0.00593  -0.00416   0.00000  -0.00090
 173        6PZ         0.00546  -0.00021  -0.00025   0.00223   0.00003
 174        7PX        -0.00001  -0.02093   0.03041   0.00005  -0.00537
 175        7PY         0.00091   0.03084   0.02139  -0.00001   0.00326
 176        7PZ        -0.06429   0.00187   0.00185   0.00254  -0.00008
 177        8PX         0.00186   0.14759  -0.21115   0.00000   0.00171
 178        8PY        -0.00452  -0.21778  -0.14877  -0.00066  -0.00079
 179        8PZ         0.63318  -0.01791  -0.01385  -0.24616  -0.00245
 180        9PX         0.00669   0.48019  -0.68786  -0.00236  -0.19265
 181        9PY        -0.00879  -0.70453  -0.48196  -0.00257   0.12455
 182        9PZ        -0.85084   0.01816   0.02360  -2.48996  -0.01038
 183       10D 0        0.01146  -0.00013  -0.00017  -0.00796   0.00001
 184       10D+1        0.00006   0.00836  -0.01204  -0.00010   0.00191
 185       10D-1       -0.00009  -0.01230  -0.00847   0.00009  -0.00116
 186       10D+2        0.00028   0.00388   0.00280   0.00002  -0.00147
 187       10D-2        0.00017  -0.00266   0.00408   0.00000   0.00240
 188       11D 0       -0.04234   0.00053   0.00078   0.01567  -0.00008
 189       11D+1       -0.00027  -0.02684   0.03867   0.00027  -0.00339
 190       11D-1        0.00024   0.03955   0.02722  -0.00027   0.00200
 191       11D+2       -0.00116  -0.01295  -0.00942  -0.00011   0.00523
 192       11D-2       -0.00065   0.00893  -0.01386   0.00006  -0.00846
 193       12D 0        0.41898  -0.00877  -0.00850  -0.01074   0.00002
 194       12D+1        0.00256   0.07722  -0.10871  -0.00023  -0.02648
 195       12D-1        0.00042  -0.11526  -0.07752   0.00039   0.01657
 196       12D+2        0.00459   0.04813   0.03533   0.00035  -0.00982
 197       12D-2        0.00255  -0.03363   0.05261  -0.00010   0.01577
 198       13F 0       -0.02743   0.00061   0.00072  -0.00762  -0.00004
 199       13F+1        0.00003   0.01087  -0.01558  -0.00016   0.00682
 200       13F-1       -0.00030  -0.01577  -0.01080  -0.00011  -0.00427
 201       13F+2       -0.00029  -0.00721  -0.00512   0.00012  -0.00146
 202       13F-2       -0.00015   0.00501  -0.00758  -0.00003   0.00228
 203       13F+3       -0.00005   0.00004   0.00024   0.00001   0.00001
 204       13F-3        0.01248  -0.00007  -0.00007  -0.00147  -0.00013
 205       14F 0        0.06861  -0.00146  -0.00175   0.01192   0.00008
 206       14F+1        0.00022  -0.02343   0.03412   0.00031  -0.01516
 207       14F-1        0.00101   0.03376   0.02350   0.00020   0.00940
 208       14F+2        0.00080   0.02030   0.01427  -0.00015   0.00348
 209       14F-2        0.00039  -0.01412   0.02116   0.00009  -0.00550
 210       14F+3        0.00007  -0.00005  -0.00039  -0.00002  -0.00004
 211       14F-3       -0.01673   0.00007   0.00002   0.00278   0.00024
                         211
     Eigenvalues --     0.00000
   1 1   C  1S         -0.00375
   2        2S         -0.02251
   3        3S         -0.00262
   4        4S         -0.17029
   5        5S         -0.02106
   6        6PX         0.00439
   7        6PY         0.00672
   8        6PZ         0.00005
   9        7PX        -0.87632
  10        7PY        -1.33308
  11        7PZ         0.00502
  12        8PX        -9.41779
  13        8PY       -14.74447
  14        8PZ         0.03296
  15        9PX        -4.21971
  16        9PY        -6.69211
  17        9PZ         0.00881
  18       10D 0        0.00082
  19       10D+1        0.00116
  20       10D-1        0.00171
  21       10D+2       -0.01890
  22       10D-2       -0.01274
  23       11D 0        0.00520
  24       11D+1        0.11912
  25       11D-1        0.17920
  26       11D+2       -0.36643
  27       11D-2       -0.26393
  28       12D 0        0.01736
  29       12D+1        0.68628
  30       12D-1        1.08766
  31       12D+2        0.48295
  32       12D-2        0.25140
  33       13F 0       -0.00026
  34       13F+1       -0.01959
  35       13F-1       -0.03187
  36       13F+2       -0.00791
  37       13F-2       -0.00498
  38       13F+3       -0.00024
  39       13F-3       -0.00131
  40       14F 0       -0.00271
  41       14F+1        0.21790
  42       14F-1        0.34405
  43       14F+2        0.06765
  44       14F-2        0.04714
  45       14F+3        0.00161
  46       14F-3        0.00646
  47 2   H  1S          0.02254
  48        2S         -1.90962
  49        3S        -22.00279
  50        4S         -9.47463
  51        5PX        -0.02704
  52        5PY         0.09954
  53        5PZ         0.00926
  54        6PX         0.26612
  55        6PY        -1.13124
  56        6PZ        -0.14522
  57        7PX         1.82638
  58        7PY        -6.32160
  59        7PZ        -0.69135
  60        8D 0        0.01587
  61        8D+1       -0.00310
  62        8D-1        0.01253
  63        8D+2        0.03455
  64        8D-2       -0.01511
  65        9D 0        0.22491
  66        9D+1        0.04960
  67        9D-1       -0.23191
  68        9D+2        0.23924
  69        9D-2        0.29514
  70 3   H  1S          0.00086
  71        2S         -0.12439
  72        3S         -1.35377
  73        4S         -0.50016
  74        5PX        -0.02019
  75        5PY        -0.04680
  76        5PZ         0.00063
  77        6PX         0.18875
  78        6PY         0.47465
  79        6PZ        -0.00996
  80        7PX         1.37582
  81        7PY         3.18881
  82        7PZ        -0.05246
  83        8D 0        0.00074
  84        8D+1       -0.00238
  85        8D-1       -0.00516
  86        8D+2       -0.02530
  87        8D-2       -0.01250
  88        9D 0        0.01216
  89        9D+1        0.03413
  90        9D-1        0.08666
  91        9D+2        0.47256
  92        9D-2        0.29805
  93 4   H  1S         -0.02669
  94        2S          2.11969
  95        3S         23.52353
  96        4S          9.98025
  97        5PX         0.10007
  98        5PY         0.03037
  99        5PZ        -0.00960
 100        6PX        -1.17458
 101        6PY        -0.40442
 102        6PZ         0.15404
 103        7PX        -6.60420
 104        7PY        -1.93216
 105        7PZ         0.73656
 106        8D 0       -0.01844
 107        8D+1        0.01177
 108        8D-1        0.00369
 109        8D+2        0.00866
 110        8D-2        0.04210
 111        9D 0       -0.24021
 112        9D+1       -0.23115
 113        9D-1       -0.08366
 114        9D+2        0.34882
 115        9D-2        0.07970
 116 5   Cl 1S          0.00005
 117        2S          0.00087
 118        3S          0.00211
 119        4S         -0.00062
 120        5S         -0.01650
 121        6S         -0.00626
 122        7PX         0.00163
 123        7PY         0.00249
 124        7PZ         0.00006
 125        8PX         0.03192
 126        8PY         0.04946
 127        8PZ         0.00089
 128        9PX        -0.00553
 129        9PY        -0.00838
 130        9PZ        -0.00021
 131       10PX        -0.22560
 132       10PY        -0.35350
 133       10PZ         0.00543
 134       11PX         0.12993
 135       11PY         0.21454
 136       11PZ        -0.00201
 137       12D 0       -0.00002
 138       12D+1        0.00216
 139       12D-1        0.00295
 140       12D+2       -0.01022
 141       12D-2       -0.00650
 142       13D 0        0.00021
 143       13D+1       -0.01454
 144       13D-1       -0.02105
 145       13D+2        0.03687
 146       13D-2        0.02345
 147       14D 0        0.00052
 148       14D+1        0.17303
 149       14D-1        0.27000
 150       14D+2       -0.16860
 151       14D-2       -0.10705
 152       15F 0        0.00008
 153       15F+1        0.00963
 154       15F-1        0.01538
 155       15F+2       -0.00860
 156       15F-2       -0.00550
 157       15F+3       -0.00015
 158       15F-3       -0.00010
 159       16F 0       -0.00051
 160       16F+1       -0.03253
 161       16F-1       -0.05206
 162       16F+2        0.03517
 163       16F-2        0.02240
 164       16F+3        0.00031
 165       16F-3        0.00028
 166 6   F  1S          0.00003
 167        2S          0.00011
 168        3S         -0.00004
 169        4S         -0.00142
 170        5S         -0.01394
 171        6PX        -0.00095
 172        6PY        -0.00145
 173        6PZ        -0.00005
 174        7PX         0.00344
 175        7PY         0.00522
 176        7PZ         0.00019
 177        8PX        -0.00082
 178        8PY        -0.00085
 179        8PZ        -0.00029
 180        9PX         0.12136
 181        9PY         0.19614
 182        9PZ        -0.00444
 183       10D 0       -0.00004
 184       10D+1       -0.00118
 185       10D-1       -0.00179
 186       10D+2       -0.00235
 187       10D-2       -0.00156
 188       11D 0        0.00007
 189       11D+1        0.00206
 190       11D-1        0.00304
 191       11D+2        0.00835
 192       11D-2        0.00549
 193       12D 0        0.00052
 194       12D+1        0.01759
 195       12D-1        0.02755
 196       12D+2       -0.01572
 197       12D-2       -0.01026
 198       13F 0       -0.00002
 199       13F+1       -0.00434
 200       13F-1       -0.00681
 201       13F+2       -0.00216
 202       13F-2       -0.00137
 203       13F+3       -0.00003
 204       13F-3        0.00002
 205       14F 0        0.00006
 206       14F+1        0.00977
 207       14F-1        0.01517
 208       14F+2        0.00528
 209       14F-2        0.00340
 210       14F+3        0.00003
 211       14F-3       -0.00005
          Condensed to atoms (all electrons):
              1          2          3          4          5          6
     1  C    7.023550  -0.009611  -0.009577  -0.015822  -0.050803  -0.099878
     2  H   -0.009611   0.547430   0.019122   0.020250  -0.018576   0.004420
     3  H   -0.009577   0.019122   0.547537   0.021128  -0.018484   0.004300
     4  H   -0.015822   0.020250   0.021128   0.547647  -0.018659   0.004668
     5  Cl  -0.050803  -0.018576  -0.018484  -0.018659  17.708758   0.026371
     6  F   -0.099878   0.004420   0.004300   0.004668   0.026371   9.907379
 Mulliken atomic charges:
              1
     1  C   -0.837860
     2  H    0.436965
     3  H    0.435974
     4  H    0.440788
     5  Cl  -0.628607
     6  F   -0.847259
 Sum of Mulliken atomic charges =  -1.00000
 Mulliken charges with hydrogens summed into heavy atoms:
              1
     1  C    0.475866
     5  Cl  -0.628607
     6  F   -0.847259
 Sum of Mulliken charges with hydrogens summed into heavy atoms =  -1.00000
 Electronic spatial extent (au):  <R**2>=            490.2371
 Charge=             -1.0000 electrons
 Dipole moment (field-independent basis, Debye):
    X=             -0.0023    Y=              0.0016    Z=              4.0680  Tot=              4.0680
 Quadrupole moment (field-independent basis, Debye-Ang):
   XX=            -28.1894   YY=            -28.1682   ZZ=            -62.8085
   XY=             -0.0009   XZ=             -0.0044   YZ=             -0.0160
 Traceless Quadrupole moment (field-independent basis, Debye-Ang):
   XX=             11.5326   YY=             11.5538   ZZ=            -23.0864
   XY=             -0.0009   XZ=             -0.0044   YZ=             -0.0160
 Octapole moment (field-independent basis, Debye-Ang**2):
  XXX=             -0.0063  YYY=             -0.9632  ZZZ=             49.6836  XYY=              0.0033
  XXY=              0.9325  XXZ=             -4.2282  XZZ=             -0.0007  YZZ=              0.0098
  YYZ=             -4.2416  XYZ=              0.0012
 Hexadecapole moment (field-independent basis, Debye-Ang**3):
 XXXX=            -41.1937 YYYY=            -41.2322 ZZZZ=           -761.5574 XXXY=              0.0062
 XXXZ=             -0.0640 YYYX=              0.0234 YYYZ=              0.5045 ZZZX=             -0.0914
 ZZZY=             -0.1959 XXYY=            -13.7375 XXZZ=           -103.3628 YYZZ=           -103.3699
 XXYZ=             -0.6729 YYXZ=             -0.0250 ZZXY=              0.0064
 N-N= 8.502027233624D+01 E-N=-1.604259636342D+03  KE= 5.992084203442D+02
 1\1\GINC-TRAPISTA\SP\RQCISD-FC\Aug-CC-pVTZ\C1H3Cl1F1(1-)\BRUNS\24-Aug-
 2020\0\\# QCISD aug-cc-pvtz nosymm density=current output=wfn\\clch3f_
 ts-wavefunction\\-1,1\C,0,0.000175,0.000029,-0.497709\H,0,0.000019,-1.
 05257,-0.620726\H,0,-0.911312,0.526365,-0.621245\H,0,0.90175,0.526132,
 -0.62157\Cl,0,0.000555,0.000962,1.644718\F,0,-0.000186,-0.000921,-2.59
 3468\\Version=EM64L-G09RevB.01\HF=-598.6170643\MP2=-599.2910784\MP3=-5
 99.3097901\MP4D=-599.3246635\MP4DQ=-599.3102366\MP4SDQ=-599.3195927\QC
 ISD=-599.3189735\RMSD=9.460e-09\Dipole=-0.0009494,0.0010616,1.5880295\
 Quadrupole=8.5742116,8.5899882,-17.1641998,-0.0006576,-0.0032406,-0.01
 19084\PG=C01 [X(C1H3Cl1F1)]\\@

 Writing a WFN file to GAUSSIAN.wfn.


 Just remember, when you're over the hill, you begin to pick up speed.
 -- Charles Schulz
 Job cpu time:  0 days  3 hours 28 minutes  8.1 seconds.
 File lengths (MBytes):  RWF=  29002 Int=      0 D2E=      0 Chk=      4 Scr=      1
 Normal termination of Gaussian 09 at Mon Aug 24 05:18:20 2020.
