 Entering Gaussian System, Link 0=/home/bruns/programas/chemistry/gaussian/g09/g09
 Input=GAUSSIAN.com
 Output=GAUSSIAN.log
 Initial command:
 /home/bruns/programas/chemistry/gaussian/g09/l1.exe /home/bruns/programas/chemistry/gaussian/work/Gau-2461.inp -scrdir=/home/bruns/programas/chemistry/gaussian/work/
 Entering Link 1 = /home/bruns/programas/chemistry/gaussian/g09/l1.exe PID=      2463.
  
 Copyright (c) 1988,1990,1992,1993,1995,1998,2003,2009,2010,
            Gaussian, Inc.  All Rights Reserved.
  
 This is part of the Gaussian(R) 09 program.  It is based on
 the Gaussian(R) 03 system (copyright 2003, Gaussian, Inc.),
 the Gaussian(R) 98 system (copyright 1998, Gaussian, Inc.),
 the Gaussian(R) 94 system (copyright 1995, Gaussian, Inc.),
 the Gaussian 92(TM) system (copyright 1992, Gaussian, Inc.),
 the Gaussian 90(TM) system (copyright 1990, Gaussian, Inc.),
 the Gaussian 88(TM) system (copyright 1988, Gaussian, Inc.),
 the Gaussian 86(TM) system (copyright 1986, Carnegie Mellon
 University), and the Gaussian 82(TM) system (copyright 1983,
 Carnegie Mellon University). Gaussian is a federally registered
 trademark of Gaussian, Inc.
  
 This software contains proprietary and confidential information,
 including trade secrets, belonging to Gaussian, Inc.
  
 This software is provided under written license and may be
 used, copied, transmitted, or stored only in accord with that
 written license.
  
 The following legend is applicable only to US Government
 contracts under FAR:
  
                    RESTRICTED RIGHTS LEGEND
  
 Use, reproduction and disclosure by the US Government is
 subject to restrictions as set forth in subparagraphs (a)
 and (c) of the Commercial Computer Software - Restricted
 Rights clause in FAR 52.227-19.
  
 Gaussian, Inc.
 340 Quinnipiac St., Bldg. 40, Wallingford CT 06492
  
  
 ---------------------------------------------------------------
 Warning -- This program may not be used in any manner that
 competes with the business of Gaussian, Inc. or will provide
 assistance to any competitor of Gaussian, Inc.  The licensee
 of this program is prohibited from giving any competitor of
 Gaussian, Inc. access to this program.  By using this program,
 the user acknowledges that Gaussian, Inc. is engaged in the
 business of creating and licensing software in the field of
 computational chemistry and represents and warrants to the
 licensee that it is not a competitor of Gaussian, Inc. and that
 it will not use this program in any manner prohibited above.
 ---------------------------------------------------------------
  

 Cite this work as:
 Gaussian 09, Revision B.01,
 M. J. Frisch, G. W. Trucks, H. B. Schlegel, G. E. Scuseria, 
 M. A. Robb, J. R. Cheeseman, G. Scalmani, V. Barone, B. Mennucci, 
 G. A. Petersson, H. Nakatsuji, M. Caricato, X. Li, H. P. Hratchian, 
 A. F. Izmaylov, J. Bloino, G. Zheng, J. L. Sonnenberg, M. Hada, 
 M. Ehara, K. Toyota, R. Fukuda, J. Hasegawa, M. Ishida, T. Nakajima, 
 Y. Honda, O. Kitao, H. Nakai, T. Vreven, J. A. Montgomery, Jr., 
 J. E. Peralta, F. Ogliaro, M. Bearpark, J. J. Heyd, E. Brothers, 
 K. N. Kudin, V. N. Staroverov, T. Keith, R. Kobayashi, J. Normand, 
 K. Raghavachari, A. Rendell, J. C. Burant, S. S. Iyengar, J. Tomasi, 
 M. Cossi, N. Rega, J. M. Millam, M. Klene, J. E. Knox, J. B. Cross, 
 V. Bakken, C. Adamo, J. Jaramillo, R. Gomperts, R. E. Stratmann, 
 O. Yazyev, A. J. Austin, R. Cammi, C. Pomelli, J. W. Ochterski, 
 R. L. Martin, K. Morokuma, V. G. Zakrzewski, G. A. Voth, 
 P. Salvador, J. J. Dannenberg, S. Dapprich, A. D. Daniels, 
 O. Farkas, J. B. Foresman, J. V. Ortiz, J. Cioslowski, 
 and D. J. Fox, Gaussian, Inc., Wallingford CT, 2010.
 
 ******************************************
 Gaussian 09:  EM64L-G09RevB.01 12-Aug-2010
                24-Aug-2020 
 ******************************************
 %nproc=8
 Will use up to    8 processors via shared memory.
 %mem=8GB
 -----------------------------------------------------
 # QCISD aug-cc-pvtz nosymm density=current output=wfn
 -----------------------------------------------------
 1/30=1,38=1/1;
 2/12=2,15=1,17=6,18=5,40=1/2;
 3/5=16,6=1,7=10,11=9,16=1,25=1,30=1,71=1/1,2,3;
 4//1;
 5/5=2,38=5/2;
 8/6=4,9=120000,10=1/1,4;
 9/5=8,15=1/13;
 11/28=-7,31=1,32=3,42=3/11;
 10/5=6,13=10,31=1/2;
 6/7=2,8=2,9=2,10=2,22=-1,31=1/1;
 99/5=1,6=1100,9=1/99;
 ----------------------
 clch3f_ts-wavefunction
 ----------------------
 Symbolic Z-matrix:
 Charge = -1 Multiplicity = 1
 C                     0.00018   0.00003  -0.49771 
 H                     0.00002  -1.05257  -0.62073 
 H                    -0.91131   0.52637  -0.62125 
 H                     0.91175   0.52613  -0.62157 
 Cl                   -0.00945   0.00096   1.64472 
 F                    -0.00019  -0.00092  -2.59347 
 
                          Input orientation:                          
 ---------------------------------------------------------------------
 Center     Atomic      Atomic             Coordinates (Angstroms)
 Number     Number       Type             X           Y           Z
 ---------------------------------------------------------------------
      1          6           0        0.000175    0.000029   -0.497709
      2          1           0        0.000019   -1.052570   -0.620726
      3          1           0       -0.911312    0.526365   -0.621245
      4          1           0        0.911750    0.526132   -0.621570
      5         17           0       -0.009445    0.000962    1.644718
      6          9           0       -0.000186   -0.000921   -2.593468
 ---------------------------------------------------------------------
                    Distance matrix (angstroms):
                    1          2          3          4          5
     1  C    0.000000
     2  H    1.059763   0.000000
     3  H    1.059764   1.823063   0.000000
     4  H    1.059762   1.823062   1.823062   0.000000
     5  Cl   2.142449   2.498451   2.494795   2.502092   0.000000
     6  F    2.095759   2.235548   2.235586   2.235575   4.238197
                    6
     6  F    0.000000
 Symmetry turned off by external request.
 This structure is nearly, but not quite of a higher symmetry.
 Consider Symm=Loose if the higher symmetry is desired.
 Stoichiometry    CH3ClF(1-)
 Framework group  C1[X(CH3ClF)]
 Deg. of freedom    12
 Full point group                 C1      NOp   1
 Rotational constants (GHZ):    150.8672317      2.2147100      2.2147075
 Standard basis: Aug-CC-pVTZ (5D, 7F)
 Integral buffers will be    131072 words long.
 Raffenetti 1 integral format.
 Two-electron integral symmetry is turned off.
   211 basis functions,   339 primitive gaussians,   244 cartesian basis functions
    18 alpha electrons       18 beta electrons
       nuclear repulsion energy        84.9839246738 Hartrees.
 NAtoms=    6 NActive=    6 NUniq=    6 SFac= 1.00D+00 NAtFMM=   50 NAOKFM=F Big=F
 One-electron integrals computed using PRISM.
 NBasis=   211 RedAO= T  NBF=   211
 NBsUse=   211 1.00D-06 NBFU=   211
 Harris functional with IExCor=  205 diagonalized for initial guess.
 ExpMin= 2.53D-02 ExpMax= 4.56D+05 ExpMxC= 1.44D+03 IAcc=3 IRadAn=         0 AccDes= 0.00D+00
 HarFok:  IExCor=  205 AccDes= 0.00D+00 IRadAn=         0 IDoV= 1
 ScaDFX=  1.000000  1.000000  1.000000  1.000000
 FoFCou: FMM=F IPFlag=           0 FMFlag=      100000 FMFlg1=           0
         NFxFlg=           0 DoJE=T BraDBF=F KetDBF=T FulRan=T
         Omega=  0.000000  0.000000  1.000000  0.000000  0.000000 ICntrl=     500 IOpCl=  0
         NMat0=    1 NMatS0=    1 NMatT0=    0 NMatD0=    1 NMtDS0=    0 NMtDT0=    0
         I1Cent=           4 NGrid=           0.
 Symmetry not used in FoFCou.
 Requested convergence on RMS density matrix=1.00D-08 within 128 cycles.
 Requested convergence on MAX density matrix=1.00D-06.
 Requested convergence on             energy=1.00D-06.
 No special actions if energy rises.
 Keep R1 ints in memory in canonical form, NReq=454274131.
 SCF Done:  E(RHF) =  -598.617121868     A.U. after   12 cycles
             Convg  =    0.9413D-08             -V/T =  2.0001
 ExpMin= 2.53D-02 ExpMax= 4.56D+05 ExpMxC= 1.44D+03 IAcc=3 IRadAn=         5 AccDes= 0.00D+00
 HarFok:  IExCor=  205 AccDes= 0.00D+00 IRadAn=         5 IDoV=-2
 ScaDFX=  1.000000  1.000000  1.000000  1.000000
 DSYEVD returned Info=          93 IAlg= 4 N=    46 NDim=    46 NE2=    21472034 trying DSYEV.
 Range of M.O.s used for correlation:     8   211
 NBasis=   211 NAE=    18 NBE=    18 NFC=     7 NFV=     0
 NROrb=    204 NOA=    11 NOB=    11 NVA=   193 NVB=   193

 **** Warning!!: The largest alpha MO coefficient is  0.35240382D+02

 Semi-Direct transformation.
 ModeAB=           2 MOrb=            11 LenV=    1072528222
 LASXX=     44979418 LTotXX=    44979418 LenRXX=    44979418
 LTotAB=    45631872 MaxLAS=    67073160 LenRXY=    67073160
 NonZer=    89958836 LenScr=   135708672 LnRSAI=           0
 LnScr1=           0 LExtra=           0 Total=    247761250
 MaxDsk=          -1 SrtSym=           F ITran=            4
 JobTyp=0 Pass  1:  I=   1 to  11.
 (rs|ai) integrals will be sorted in core.
 Spin components of T(2) and E(2):
     alpha-alpha T2 =       0.2567357228D-01 E2=     -0.8208207508D-01
     alpha-beta  T2 =       0.1452559877D+00 E2=     -0.5099783788D+00
     beta-beta   T2 =       0.2567357228D-01 E2=     -0.8208207508D-01
 ANorm=    0.1093893565D+01
 E2 =    -0.6741425290D+00 EUMP2 =    -0.59929126439652D+03
 R2 and R3 integrals will be kept in memory, NReq=   900794930.
 Iterations=  50 Convergence= 0.100D-07
 Iteration Nr.   1
 **********************
 DD1Dir will call FoFMem   1 times, MxPair=       132
 NAB=    66 NAA=     0 NBB=     0.
 MP4(R+Q)=  0.14438902D-01
 E3=       -0.18700991D-01        EUMP3=      -0.59930996539D+03
 E4(DQ)=   -0.45153345D-03        UMP4(DQ)=   -0.59931041692D+03
 E4(SDQ)=  -0.98178552D-02        UMP4(SDQ)=  -0.59931978324D+03
 DE(Corr)= -0.67840462     E(Corr)=     -599.29552649    
 NORM(A)=   0.10996850D+01
 Iteration Nr.   2
 **********************
 DD1Dir will call FoFMem   1 times, MxPair=       132
 NAB=    66 NAA=     0 NBB=     0.
 DE(Corr)= -0.70060460     E(CORR)=     -599.31772647     Delta=-2.22D-02
 NORM(A)=   0.11070394D+01
 Iteration Nr.   3
 **********************
 DD1Dir will call FoFMem   1 times, MxPair=       132
 NAB=    66 NAA=     0 NBB=     0.
 DE(Corr)= -0.69820760     E(CORR)=     -599.31532946     Delta= 2.40D-03
 NORM(A)=   0.11110246D+01
 Iteration Nr.   4
 **********************
 DD1Dir will call FoFMem   1 times, MxPair=       132
 NAB=    66 NAA=     0 NBB=     0.
 DE(Corr)= -0.70126674     E(CORR)=     -599.31838861     Delta=-3.06D-03
 NORM(A)=   0.11131285D+01
 Iteration Nr.   5
 **********************
 DD1Dir will call FoFMem   1 times, MxPair=       132
 NAB=    66 NAA=     0 NBB=     0.
 DE(Corr)= -0.70186173     E(CORR)=     -599.31898360     Delta=-5.95D-04
 NORM(A)=   0.11141596D+01
 Iteration Nr.   6
 **********************
 DD1Dir will call FoFMem   1 times, MxPair=       132
 NAB=    66 NAA=     0 NBB=     0.
 DE(Corr)= -0.70200852     E(CORR)=     -599.31913039     Delta=-1.47D-04
 NORM(A)=   0.11144854D+01
 Iteration Nr.   7
 **********************
 DD1Dir will call FoFMem   1 times, MxPair=       132
 NAB=    66 NAA=     0 NBB=     0.
 DE(Corr)= -0.70203824     E(CORR)=     -599.31916011     Delta=-2.97D-05
 NORM(A)=   0.11145165D+01
 Iteration Nr.   8
 **********************
 DD1Dir will call FoFMem   1 times, MxPair=       132
 NAB=    66 NAA=     0 NBB=     0.
 DE(Corr)= -0.70205212     E(CORR)=     -599.31917399     Delta=-1.39D-05
 NORM(A)=   0.11145343D+01
 Iteration Nr.   9
 **********************
 DD1Dir will call FoFMem   1 times, MxPair=       132
 NAB=    66 NAA=     0 NBB=     0.
 DE(Corr)= -0.70202891     E(CORR)=     -599.31915077     Delta= 2.32D-05
 NORM(A)=   0.11145375D+01
 Iteration Nr.  10
 **********************
 DD1Dir will call FoFMem   1 times, MxPair=       132
 NAB=    66 NAA=     0 NBB=     0.
 DE(Corr)= -0.70204821     E(CORR)=     -599.31917007     Delta=-1.93D-05
 NORM(A)=   0.11145377D+01
 Iteration Nr.  11
 **********************
 DD1Dir will call FoFMem   1 times, MxPair=       132
 NAB=    66 NAA=     0 NBB=     0.
 DE(Corr)= -0.70203901     E(CORR)=     -599.31916088     Delta= 9.19D-06
 NORM(A)=   0.11145406D+01
 Iteration Nr.  12
 **********************
 DD1Dir will call FoFMem   1 times, MxPair=       132
 NAB=    66 NAA=     0 NBB=     0.
 DE(Corr)= -0.70204277     E(CORR)=     -599.31916463     Delta=-3.75D-06
 NORM(A)=   0.11145410D+01
 Iteration Nr.  13
 **********************
 DD1Dir will call FoFMem   1 times, MxPair=       132
 NAB=    66 NAA=     0 NBB=     0.
 DE(Corr)= -0.70204333     E(CORR)=     -599.31916520     Delta=-5.66D-07
 NORM(A)=   0.11145417D+01
 Iteration Nr.  14
 **********************
 DD1Dir will call FoFMem   1 times, MxPair=       132
 NAB=    66 NAA=     0 NBB=     0.
 DE(Corr)= -0.70204356     E(CORR)=     -599.31916543     Delta=-2.24D-07
 NORM(A)=   0.11145418D+01
 Iteration Nr.  15
 **********************
 DD1Dir will call FoFMem   1 times, MxPair=       132
 NAB=    66 NAA=     0 NBB=     0.
 DE(Corr)= -0.70204347     E(CORR)=     -599.31916533     Delta= 9.05D-08
 NORM(A)=   0.11145418D+01
 Iteration Nr.  16
 **********************
 DD1Dir will call FoFMem   1 times, MxPair=       132
 NAB=    66 NAA=     0 NBB=     0.
 DE(Corr)= -0.70204367     E(CORR)=     -599.31916554     Delta=-2.03D-07
 NORM(A)=   0.11145416D+01
 Iteration Nr.  17
 **********************
 DD1Dir will call FoFMem   1 times, MxPair=       132
 NAB=    66 NAA=     0 NBB=     0.
 DE(Corr)= -0.70204354     E(CORR)=     -599.31916541     Delta= 1.30D-07
 NORM(A)=   0.11145415D+01
 Iteration Nr.  18
 **********************
 DD1Dir will call FoFMem   1 times, MxPair=       132
 NAB=    66 NAA=     0 NBB=     0.
 DE(Corr)= -0.70204358     E(CORR)=     -599.31916544     Delta=-3.66D-08
 NORM(A)=   0.11145414D+01
 Iteration Nr.  19
 **********************
 DD1Dir will call FoFMem   1 times, MxPair=       132
 NAB=    66 NAA=     0 NBB=     0.
 DE(Corr)= -0.70204352     E(CORR)=     -599.31916539     Delta= 5.27D-08
 NORM(A)=   0.11145413D+01
 Iteration Nr.  20
 **********************
 DD1Dir will call FoFMem   1 times, MxPair=       132
 NAB=    66 NAA=     0 NBB=     0.
 DE(Corr)= -0.70204353     E(CORR)=     -599.31916539     Delta=-2.62D-09
 NORM(A)=   0.11145412D+01
 Iteration Nr.  21
 **********************
 DD1Dir will call FoFMem   1 times, MxPair=       132
 NAB=    66 NAA=     0 NBB=     0.
 DE(Corr)= -0.70204351     E(CORR)=     -599.31916537     Delta= 1.93D-08
 NORM(A)=   0.11145412D+01
 Iteration Nr.  22
 **********************
 DD1Dir will call FoFMem   1 times, MxPair=       132
 NAB=    66 NAA=     0 NBB=     0.
 DE(Corr)= -0.70204350     E(CORR)=     -599.31916537     Delta= 3.09D-09
 NORM(A)=   0.11145411D+01
 Iteration Nr.  23
 **********************
 DD1Dir will call FoFMem   1 times, MxPair=       132
 NAB=    66 NAA=     0 NBB=     0.
 DE(Corr)= -0.70204350     E(CORR)=     -599.31916537     Delta= 5.11D-09
 NORM(A)=   0.11145411D+01
 Iteration Nr.  24
 **********************
 DD1Dir will call FoFMem   1 times, MxPair=       132
 NAB=    66 NAA=     0 NBB=     0.
 DE(Corr)= -0.70204350     E(CORR)=     -599.31916537     Delta=-1.59D-09
 NORM(A)=   0.11145411D+01
 Iteration Nr.  25
 **********************
 DD1Dir will call FoFMem   1 times, MxPair=       132
 NAB=    66 NAA=     0 NBB=     0.
 DE(Corr)= -0.70204350     E(CORR)=     -599.31916536     Delta= 4.65D-09
 NORM(A)=   0.11145411D+01
 Iteration Nr.  26
 **********************
 DD1Dir will call FoFMem   1 times, MxPair=       132
 NAB=    66 NAA=     0 NBB=     0.
 DE(Corr)= -0.70204350     E(CORR)=     -599.31916537     Delta=-4.58D-09
 NORM(A)=   0.11145412D+01
 Iteration Nr.  27
 **********************
 DD1Dir will call FoFMem   1 times, MxPair=       132
 NAB=    66 NAA=     0 NBB=     0.
 DE(Corr)= -0.70204348     E(CORR)=     -599.31916535     Delta= 2.02D-08
 NORM(A)=   0.11145411D+01
 Iteration Nr.  28
 **********************
 DD1Dir will call FoFMem   1 times, MxPair=       132
 NAB=    66 NAA=     0 NBB=     0.
 DE(Corr)= -0.70204350     E(CORR)=     -599.31916537     Delta=-2.05D-08
 NORM(A)=   0.11145411D+01
 Iteration Nr.  29
 **********************
 DD1Dir will call FoFMem   1 times, MxPair=       132
 NAB=    66 NAA=     0 NBB=     0.
 DE(Corr)= -0.70204350     E(CORR)=     -599.31916537     Delta= 1.57D-09
 NORM(A)=   0.11145411D+01
 Largest amplitude= 6.61D-02

 Z-AMPLITUDE ITERATIONS

 Iteration Nr.   1
 **********************
 DD1Dir will call FoFMem   1 times, MxPair=       132
 NAB=    66 NAA=     0 NBB=     0.
 DE(Z)  -0.68265131D+00          E(Z)=    -0.59929977318D+03
 NORM(A)=   0.11174174D+01
 Iteration Nr.   2
 **********************
 DD1Dir will call FoFMem   1 times, MxPair=       132
 NAB=    66 NAA=     0 NBB=     0.
 DE(Z)  -0.68296456D+00          E(Z)=    -0.59930008643D+03
 NORM(A)=   0.11148630D+01
 Iteration Nr.   3
 **********************
 DD1Dir will call FoFMem   1 times, MxPair=       132
 NAB=    66 NAA=     0 NBB=     0.
 DE(Z)  -0.68268188D+00          E(Z)=    -0.59929980375D+03
 NORM(A)=   0.11155418D+01
 Iteration Nr.   4
 **********************
 DD1Dir will call FoFMem   1 times, MxPair=       132
 NAB=    66 NAA=     0 NBB=     0.
 DE(Z)  -0.68275096D+00          E(Z)=    -0.59929987283D+03
 NORM(A)=   0.11156549D+01
 Iteration Nr.   5
 **********************
 DD1Dir will call FoFMem   1 times, MxPair=       132
 NAB=    66 NAA=     0 NBB=     0.
 DE(Z)  -0.68275963D+00          E(Z)=    -0.59929988150D+03
 NORM(A)=   0.11078856D+01
 Iteration Nr.   6
 **********************
 DD1Dir will call FoFMem   1 times, MxPair=       132
 NAB=    66 NAA=     0 NBB=     0.
 DE(Z)  -0.68198223D+00          E(Z)=    -0.59929910410D+03
 NORM(A)=   0.11078806D+01
 Iteration Nr.   7
 **********************
 DD1Dir will call FoFMem   1 times, MxPair=       132
 NAB=    66 NAA=     0 NBB=     0.
 DE(Z)  -0.68198365D+00          E(Z)=    -0.59929910552D+03
 NORM(A)=   0.11078758D+01
 Iteration Nr.   8
 **********************
 DD1Dir will call FoFMem   1 times, MxPair=       132
 NAB=    66 NAA=     0 NBB=     0.
 DE(Z)  -0.68198245D+00          E(Z)=    -0.59929910431D+03
 NORM(A)=   0.11078713D+01
 Iteration Nr.   9
 **********************
 DD1Dir will call FoFMem   1 times, MxPair=       132
 NAB=    66 NAA=     0 NBB=     0.
 DE(Z)  -0.68198237D+00          E(Z)=    -0.59929910423D+03
 NORM(A)=   0.11078704D+01
 Iteration Nr.  10
 **********************
 DD1Dir will call FoFMem   1 times, MxPair=       132
 NAB=    66 NAA=     0 NBB=     0.
 DE(Z)  -0.68198258D+00          E(Z)=    -0.59929910445D+03
 NORM(A)=   0.11078701D+01
 Iteration Nr.  11
 **********************
 DD1Dir will call FoFMem   1 times, MxPair=       132
 NAB=    66 NAA=     0 NBB=     0.
 DE(Z)  -0.68198246D+00          E(Z)=    -0.59929910433D+03
 NORM(A)=   0.11078700D+01
 Iteration Nr.  12
 **********************
 DD1Dir will call FoFMem   1 times, MxPair=       132
 NAB=    66 NAA=     0 NBB=     0.
 DE(Z)  -0.68198252D+00          E(Z)=    -0.59929910439D+03
 NORM(A)=   0.11078700D+01
 Iteration Nr.  13
 **********************
 DD1Dir will call FoFMem   1 times, MxPair=       132
 NAB=    66 NAA=     0 NBB=     0.
 DE(Z)  -0.68198257D+00          E(Z)=    -0.59929910444D+03
 NORM(A)=   0.11078700D+01
 Iteration Nr.  14
 **********************
 DD1Dir will call FoFMem   1 times, MxPair=       132
 NAB=    66 NAA=     0 NBB=     0.
 DE(Z)  -0.68198254D+00          E(Z)=    -0.59929910441D+03
 NORM(A)=   0.11078700D+01
 Iteration Nr.  15
 **********************
 DD1Dir will call FoFMem   1 times, MxPair=       132
 NAB=    66 NAA=     0 NBB=     0.
 DE(Z)  -0.68198256D+00          E(Z)=    -0.59929910443D+03
 NORM(A)=   0.11078700D+01
 Iteration Nr.  16
 **********************
 DD1Dir will call FoFMem   1 times, MxPair=       132
 NAB=    66 NAA=     0 NBB=     0.
 DE(Z)  -0.68198256D+00          E(Z)=    -0.59929910443D+03
 NORM(A)=   0.11078700D+01
 Iteration Nr.  17
 **********************
 DD1Dir will call FoFMem   1 times, MxPair=       132
 NAB=    66 NAA=     0 NBB=     0.
 DE(Z)  -0.68198256D+00          E(Z)=    -0.59929910442D+03
 NORM(A)=   0.11078700D+01
 Iteration Nr.  18
 **********************
 DD1Dir will call FoFMem   1 times, MxPair=       132
 NAB=    66 NAA=     0 NBB=     0.
 DE(Z)  -0.68198256D+00          E(Z)=    -0.59929910443D+03
 NORM(A)=   0.11078700D+01
 Iteration Nr.  19
 **********************
 DD1Dir will call FoFMem   1 times, MxPair=       132
 NAB=    66 NAA=     0 NBB=     0.
 DE(Z)  -0.68198256D+00          E(Z)=    -0.59929910443D+03
 NORM(A)=   0.11078700D+01
 Discarding MO integrals.
          Differentiating once with respect to electric field.
                with respect to dipole field.
          Electric field/nuclear overlap derivatives assumed to be zero.
          Keep R1 ints in memory in canonical form, NReq=448662239.
          There are     1 degrees of freedom in the 1st order CPHF.  IDoFFX=0.
 LinEq1:  Iter=  0 NonCon=     1 RMS=3.11D-03 Max=1.20D-01
 AX will form     1 AO Fock derivatives at one time.
 LinEq1:  Iter=  1 NonCon=     1 RMS=6.94D-04 Max=9.46D-03
 LinEq1:  Iter=  2 NonCon=     1 RMS=2.30D-04 Max=5.72D-03
 LinEq1:  Iter=  3 NonCon=     1 RMS=9.49D-05 Max=1.45D-03
 LinEq1:  Iter=  4 NonCon=     1 RMS=3.84D-05 Max=4.10D-04
 LinEq1:  Iter=  5 NonCon=     1 RMS=1.06D-05 Max=2.26D-04
 LinEq1:  Iter=  6 NonCon=     1 RMS=2.42D-06 Max=4.24D-05
 LinEq1:  Iter=  7 NonCon=     1 RMS=6.06D-07 Max=9.14D-06
 LinEq1:  Iter=  8 NonCon=     1 RMS=1.49D-07 Max=1.80D-06
 LinEq1:  Iter=  9 NonCon=     1 RMS=3.03D-08 Max=7.47D-07
 LinEq1:  Iter= 10 NonCon=     1 RMS=6.54D-09 Max=8.90D-08
 LinEq1:  Iter= 11 NonCon=     1 RMS=1.05D-09 Max=1.16D-08
 LinEq1:  Iter= 12 NonCon=     1 RMS=1.68D-10 Max=2.85D-09
 LinEq1:  Iter= 13 NonCon=     0 RMS=2.40D-11 Max=3.21D-10
 Linear equations converged to 1.000D-10 1.000D-09 after    13 iterations.
 End of Minotr Frequency-dependent properties file   721 does not exist.
 End of Minotr Frequency-dependent properties file   722 does not exist.

 **********************************************************************

            Population analysis using the QCI/CC density.

 **********************************************************************

     Natural Orbital Coefficients:
                           1         2         3         4         5
     Eigenvalues --     2.00003   2.00003   2.00002   2.00001   2.00001
   1 1   C  1S          0.00010   0.00009  -0.04328   0.08033   0.97619
   2        2S          0.00000   0.00000   0.00131   0.00050  -0.01332
   3        3S          0.00001   0.00001  -0.00132   0.00400   0.03985
   4        4S         -0.00013  -0.00013  -0.01265  -0.02361   0.00311
   5        5S         -0.00003  -0.00003  -0.00120  -0.00062  -0.00061
   6        6PX         0.00004   0.00004   0.00000   0.00000   0.00000
   7        6PY        -0.00004   0.00004   0.00000   0.00000   0.00000
   8        6PZ         0.00000   0.00000   0.00053   0.00168   0.00087
   9        7PX         0.00060   0.00060  -0.00001  -0.00002  -0.00001
  10        7PY        -0.00059   0.00060   0.00000   0.00000   0.00000
  11        7PZ         0.00000   0.00000   0.00142   0.00304  -0.00091
  12        8PX         0.00323   0.00322   0.00003   0.00004   0.00000
  13        8PY        -0.00321   0.00324   0.00000   0.00000   0.00000
  14        8PZ        -0.00001  -0.00001  -0.00373  -0.00410  -0.00309
  15        9PX         0.00030   0.00030   0.00000   0.00000   0.00000
  16        9PY        -0.00030   0.00030   0.00000   0.00000   0.00000
  17        9PZ         0.00000   0.00000   0.00021   0.00017  -0.00049
  18       10D 0        0.00000   0.00000   0.00011   0.00033  -0.00057
  19       10D+1       -0.00011  -0.00011   0.00000   0.00000   0.00000
  20       10D-1        0.00011  -0.00011   0.00000   0.00000   0.00000
  21       10D+2       -0.00003   0.00003   0.00000   0.00000   0.00000
  22       10D-2        0.00003   0.00003   0.00000   0.00000   0.00000
  23       11D 0        0.00001   0.00001   0.00022  -0.00009  -0.00029
  24       11D+1        0.00018   0.00018   0.00001   0.00002   0.00001
  25       11D-1       -0.00018   0.00018   0.00000   0.00000   0.00000
  26       11D+2       -0.00071   0.00072   0.00000   0.00000   0.00000
  27       11D-2        0.00072   0.00071   0.00000  -0.00001  -0.00001
  28       12D 0       -0.00002  -0.00002  -0.00078   0.00122  -0.00236
  29       12D+1       -0.00092  -0.00093   0.00001   0.00001   0.00000
  30       12D-1        0.00091  -0.00093   0.00000   0.00000   0.00000
  31       12D+2       -0.00114   0.00115   0.00000   0.00000   0.00000
  32       12D-2        0.00115   0.00115   0.00001   0.00001   0.00000
  33       13F 0        0.00000   0.00000   0.00001   0.00003   0.00019
  34       13F+1       -0.00013  -0.00013   0.00000   0.00000   0.00000
  35       13F-1        0.00013  -0.00014   0.00000   0.00000   0.00000
  36       13F+2       -0.00001   0.00001   0.00000   0.00000   0.00000
  37       13F-2        0.00001   0.00001   0.00000   0.00000   0.00000
  38       13F+3        0.00000   0.00000   0.00000   0.00000   0.00000
  39       13F-3        0.00000   0.00000  -0.00006   0.00007   0.00090
  40       14F 0        0.00000   0.00000  -0.00113  -0.00215  -0.00019
  41       14F+1        0.00041   0.00041   0.00001   0.00002   0.00001
  42       14F-1       -0.00040   0.00041   0.00000   0.00000   0.00000
  43       14F+2       -0.00025   0.00024   0.00000   0.00000   0.00000
  44       14F-2        0.00025   0.00023   0.00000   0.00000   0.00000
  45       14F+3        0.00000   0.00000   0.00000   0.00000   0.00000
  46       14F-3       -0.00001  -0.00001  -0.00086  -0.00136  -0.00191
  47 2   H  1S          0.00011  -0.00011  -0.00002  -0.00035  -0.00135
  48        2S         -0.00081   0.00088   0.00245   0.00333  -0.00067
  49        3S         -0.00611   0.00620   0.00182   0.00529  -0.00434
  50        4S          0.00019  -0.00019   0.00011   0.00009  -0.00013
  51        5PX         0.00000   0.00000   0.00000   0.00000   0.00000
  52        5PY        -0.00002   0.00002   0.00004  -0.00003  -0.00048
  53        5PZ        -0.00001   0.00001   0.00001   0.00002  -0.00009
  54        6PX         0.00014   0.00013   0.00000   0.00000   0.00000
  55        6PY        -0.00046   0.00047   0.00046   0.00070  -0.00080
  56        6PZ        -0.00044   0.00044  -0.00001  -0.00010   0.00024
  57        7PX         0.00065   0.00065   0.00000   0.00000   0.00000
  58        7PY        -0.00147   0.00149   0.00054   0.00135  -0.00102
  59        7PZ        -0.00019   0.00019   0.00047   0.00092  -0.00006
  60        8D 0       -0.00003   0.00003   0.00001   0.00007   0.00014
  61        8D+1       -0.00001  -0.00001   0.00000   0.00000   0.00000
  62        8D-1       -0.00007   0.00007   0.00002   0.00005  -0.00004
  63        8D+2        0.00003  -0.00003  -0.00004  -0.00005   0.00028
  64        8D-2        0.00001   0.00001   0.00000   0.00000   0.00000
  65        9D 0       -0.00027   0.00028   0.00015   0.00025   0.00063
  66        9D+1        0.00018   0.00017   0.00000   0.00000   0.00000
  67        9D-1       -0.00009   0.00009  -0.00014  -0.00025   0.00001
  68        9D+2        0.00009  -0.00009   0.00001   0.00003  -0.00010
  69        9D-2        0.00008   0.00008   0.00000   0.00000   0.00000
  70 3   H  1S         -0.00015  -0.00004  -0.00002  -0.00035  -0.00135
  71        2S          0.00118   0.00034   0.00245   0.00331  -0.00068
  72        3S          0.00842   0.00225   0.00185   0.00534  -0.00435
  73        4S         -0.00026  -0.00007   0.00011   0.00010  -0.00013
  74        5PX         0.00003   0.00001   0.00004  -0.00002  -0.00042
  75        5PY        -0.00002   0.00000  -0.00002   0.00001   0.00024
  76        5PZ         0.00001   0.00000   0.00001   0.00002  -0.00009
  77        6PX         0.00053   0.00024   0.00039   0.00060  -0.00070
  78        6PY        -0.00036   0.00007  -0.00023  -0.00034   0.00040
  79        6PZ         0.00061   0.00016  -0.00001  -0.00009   0.00024
  80        7PX         0.00164   0.00091   0.00047   0.00118  -0.00088
  81        7PY        -0.00122   0.00050  -0.00027  -0.00068   0.00051
  82        7PZ         0.00028   0.00007   0.00048   0.00093  -0.00006
  83        8D 0        0.00004   0.00001   0.00001   0.00007   0.00014
  84        8D+1        0.00008   0.00001   0.00002   0.00004  -0.00003
  85        8D-1       -0.00004  -0.00003  -0.00001  -0.00002   0.00002
  86        8D+2        0.00002   0.00001   0.00002   0.00003  -0.00014
  87        8D-2       -0.00004  -0.00001  -0.00004  -0.00005   0.00024
  88        9D 0        0.00038   0.00010   0.00015   0.00025   0.00063
  89        9D+1        0.00007   0.00015  -0.00012  -0.00022   0.00001
  90        9D-1       -0.00012   0.00019   0.00007   0.00013   0.00000
  91        9D+2        0.00004   0.00011   0.00000  -0.00001   0.00005
  92        9D-2       -0.00012   0.00003   0.00001   0.00002  -0.00009
  93 4   H  1S          0.00004   0.00015  -0.00002  -0.00035  -0.00135
  94        2S         -0.00028  -0.00113   0.00245   0.00335  -0.00065
  95        3S         -0.00226  -0.00839   0.00180   0.00525  -0.00433
  96        4S          0.00007   0.00026   0.00011   0.00009  -0.00013
  97        5PX         0.00001   0.00003  -0.00004   0.00002   0.00042
  98        5PY         0.00000   0.00002  -0.00002   0.00001   0.00024
  99        5PZ         0.00000  -0.00001   0.00001   0.00001  -0.00009
 100        6PX         0.00024   0.00053  -0.00040  -0.00061   0.00069
 101        6PY        -0.00008   0.00036  -0.00023  -0.00035   0.00040
 102        6PZ        -0.00016  -0.00059  -0.00001  -0.00010   0.00023
 103        7PX         0.00092   0.00163  -0.00046  -0.00117   0.00088
 104        7PY        -0.00050   0.00122  -0.00027  -0.00067   0.00051
 105        7PZ        -0.00007  -0.00025   0.00047   0.00091  -0.00006
 106        8D 0       -0.00001  -0.00004   0.00001   0.00006   0.00014
 107        8D+1        0.00001   0.00008  -0.00002  -0.00004   0.00003
 108        8D-1        0.00002   0.00004  -0.00001  -0.00002   0.00002
 109        8D+2       -0.00001  -0.00002   0.00002   0.00003  -0.00014
 110        8D-2       -0.00001  -0.00004   0.00004   0.00005  -0.00024
 111        9D 0       -0.00010  -0.00037   0.00015   0.00025   0.00063
 112        9D+1        0.00015   0.00007   0.00012   0.00022  -0.00001
 113        9D-1       -0.00019   0.00012   0.00007   0.00013   0.00000
 114        9D+2       -0.00011  -0.00004   0.00000  -0.00001   0.00005
 115        9D-2        0.00003  -0.00012  -0.00001  -0.00002   0.00008
 116 5   Cl 1S          0.00005   0.00005  -0.25059   0.14801  -0.02283
 117        2S         -0.00016  -0.00016   0.84589  -0.50031   0.07825
 118        3S          0.00000   0.00000  -0.02309   0.00933  -0.00239
 119        4S         -0.00001  -0.00001   0.06655  -0.04076   0.00643
 120        5S          0.00002   0.00002  -0.00211   0.00777   0.00351
 121        6S          0.00000   0.00000  -0.00154  -0.00213   0.00300
 122        7PX         0.69427   0.69002  -0.00315  -0.00572   0.00020
 123        7PY        -0.69003   0.69428   0.00022   0.00036  -0.00002
 124        7PZ         0.00494   0.00431   0.50089   0.83585  -0.04717
 125        8PX        -0.01358  -0.01350   0.00005   0.00009   0.00000
 126        8PY         0.01350  -0.01358   0.00000  -0.00001   0.00000
 127        8PZ        -0.00010  -0.00009  -0.00878  -0.01404   0.00011
 128        9PX         0.03712   0.03689  -0.00018  -0.00034   0.00001
 129        9PY        -0.03689   0.03712   0.00001   0.00002   0.00000
 130        9PZ         0.00027   0.00023   0.02844   0.04954  -0.00268
 131       10PX        -0.00410  -0.00407   0.00003   0.00002   0.00002
 132       10PY         0.00407  -0.00410   0.00000   0.00000   0.00000
 133       10PZ        -0.00004  -0.00003  -0.00435  -0.00275  -0.00347
 134       11PX        -0.00152  -0.00151   0.00000   0.00000   0.00000
 135       11PY         0.00151  -0.00152   0.00000   0.00000   0.00000
 136       11PZ        -0.00001  -0.00001  -0.00036  -0.00015  -0.00053
 137       12D 0        0.00000   0.00000   0.00001  -0.00051  -0.00017
 138       12D+1       -0.00023  -0.00022   0.00000   0.00000   0.00000
 139       12D-1        0.00022  -0.00023   0.00000   0.00000   0.00000
 140       12D+2        0.00000   0.00001   0.00000   0.00000   0.00000
 141       12D-2        0.00000   0.00001   0.00000   0.00000   0.00000
 142       13D 0        0.00001   0.00001   0.00088   0.00244   0.00042
 143       13D+1        0.00057   0.00057  -0.00001  -0.00002   0.00000
 144       13D-1       -0.00057   0.00057   0.00000   0.00000   0.00000
 145       13D+2        0.00001  -0.00002   0.00000   0.00000   0.00000
 146       13D-2       -0.00001  -0.00002   0.00000   0.00000   0.00000
 147       14D 0        0.00000   0.00000   0.00058  -0.00018   0.00080
 148       14D+1       -0.00051  -0.00050  -0.00001   0.00000  -0.00001
 149       14D-1        0.00050  -0.00051   0.00000   0.00000   0.00000
 150       14D+2       -0.00002   0.00002   0.00000   0.00000   0.00000
 151       14D-2        0.00002   0.00002   0.00000   0.00000   0.00000
 152       15F 0        0.00000   0.00000   0.00001  -0.00007  -0.00003
 153       15F+1        0.00000   0.00000   0.00000   0.00000   0.00000
 154       15F-1        0.00000   0.00000   0.00000   0.00000   0.00000
 155       15F+2       -0.00002   0.00002   0.00000   0.00000   0.00000
 156       15F-2        0.00002   0.00002   0.00000   0.00000   0.00000
 157       15F+3        0.00000   0.00000   0.00000   0.00000   0.00000
 158       15F-3        0.00000   0.00000   0.00001   0.00003   0.00000
 159       16F 0        0.00000   0.00000  -0.00032  -0.00058  -0.00031
 160       16F+1       -0.00016  -0.00016   0.00001   0.00001   0.00000
 161       16F-1        0.00016  -0.00016   0.00000   0.00000   0.00000
 162       16F+2        0.00003  -0.00002   0.00000   0.00000   0.00000
 163       16F-2       -0.00003  -0.00002   0.00000   0.00000   0.00000
 164       16F+3        0.00000   0.00000   0.00000   0.00000   0.00000
 165       16F-3        0.00000   0.00000  -0.00002  -0.00005   0.00002
 166 6   F  1S         -0.00001  -0.00001  -0.00144  -0.01041  -0.04976
 167        2S          0.00000   0.00000   0.00020   0.00043   0.00080
 168        3S          0.00000   0.00000  -0.00007  -0.00045  -0.00202
 169        4S          0.00001   0.00001  -0.00055  -0.00105   0.00056
 170        5S          0.00003   0.00003   0.00010  -0.00168   0.00178
 171        6PX        -0.00003  -0.00003   0.00000   0.00000   0.00000
 172        6PY         0.00003  -0.00003   0.00000   0.00000   0.00000
 173        6PZ         0.00000   0.00000   0.00058   0.00111   0.00011
 174        7PX        -0.00001   0.00000   0.00000   0.00000   0.00000
 175        7PY         0.00001   0.00000   0.00000   0.00000   0.00000
 176        7PZ         0.00000   0.00000   0.00069   0.00132   0.00002
 177        8PX        -0.00017  -0.00017   0.00000   0.00000   0.00000
 178        8PY         0.00017  -0.00017   0.00000   0.00000   0.00000
 179        8PZ         0.00001   0.00001   0.00008   0.00017   0.00048
 180        9PX        -0.00025  -0.00025   0.00000   0.00000   0.00000
 181        9PY         0.00025  -0.00025   0.00000   0.00000   0.00000
 182        9PZ         0.00001   0.00001   0.00017  -0.00009   0.00071
 183       10D 0        0.00000   0.00000   0.00001   0.00001  -0.00002
 184       10D+1        0.00000   0.00000   0.00000   0.00000   0.00000
 185       10D-1        0.00000   0.00000   0.00000   0.00000   0.00000
 186       10D+2        0.00000   0.00000   0.00000   0.00000   0.00000
 187       10D-2        0.00000   0.00000   0.00000   0.00000   0.00000
 188       11D 0        0.00000   0.00000  -0.00003  -0.00010   0.00001
 189       11D+1        0.00003   0.00003   0.00000   0.00000   0.00000
 190       11D-1       -0.00003   0.00003   0.00000   0.00000   0.00000
 191       11D+2        0.00002  -0.00002   0.00000   0.00000   0.00000
 192       11D-2       -0.00002  -0.00002   0.00000   0.00000   0.00000
 193       12D 0        0.00000   0.00000  -0.00019  -0.00012   0.00011
 194       12D+1       -0.00016  -0.00016   0.00000   0.00000   0.00000
 195       12D-1        0.00016  -0.00016   0.00000   0.00000   0.00000
 196       12D+2       -0.00008   0.00008   0.00000   0.00000   0.00000
 197       12D-2        0.00008   0.00008   0.00000   0.00000   0.00000
 198       13F 0        0.00000   0.00000   0.00001  -0.00001  -0.00004
 199       13F+1        0.00001   0.00001   0.00000   0.00000   0.00000
 200       13F-1       -0.00001   0.00001   0.00000   0.00000   0.00000
 201       13F+2        0.00001  -0.00001   0.00000   0.00000   0.00000
 202       13F-2       -0.00001  -0.00001   0.00000   0.00000   0.00000
 203       13F+3        0.00000   0.00000   0.00000   0.00000   0.00000
 204       13F-3        0.00000   0.00000   0.00000   0.00000   0.00000
 205       14F 0        0.00000   0.00000  -0.00004   0.00002   0.00013
 206       14F+1       -0.00004  -0.00004   0.00000   0.00000   0.00000
 207       14F-1        0.00004  -0.00004   0.00000   0.00000   0.00000
 208       14F+2       -0.00003   0.00003   0.00000   0.00000   0.00000
 209       14F-2        0.00003   0.00003   0.00000   0.00000   0.00000
 210       14F+3        0.00000   0.00000   0.00000   0.00000   0.00000
 211       14F-3        0.00000   0.00000   0.00000   0.00000  -0.00001
                           6         7         8         9        10
     Eigenvalues --     2.00000   2.00000   1.98361   1.97543   1.96949
   1 1   C  1S          0.05039  -0.00046   0.01542  -0.07338  -0.14372
   2        2S         -0.00012  -0.00001  -0.04201   0.19910   0.39728
   3        3S          0.00230  -0.00003  -0.01040   0.04619   0.09614
   4        4S         -0.00699   0.00016   0.00556   0.07907   0.19079
   5        5S         -0.00016   0.00010   0.00785  -0.00690  -0.02889
   6        6PX         0.00000   0.00000   0.00001  -0.00017   0.00013
   7        6PY         0.00000   0.00000   0.00000   0.00000  -0.00001
   8        6PZ         0.00004   0.00000   0.00646   0.01034  -0.02723
   9        7PX         0.00000   0.00000   0.00000  -0.00020   0.00016
  10        7PY         0.00000   0.00000   0.00000   0.00001  -0.00001
  11        7PZ        -0.00075   0.00000   0.00706   0.01790  -0.03246
  12        8PX         0.00000   0.00000  -0.00008  -0.00002   0.00023
  13        8PY         0.00000   0.00000   0.00001   0.00000  -0.00001
  14        8PZ         0.00519   0.00009   0.01660   0.00589  -0.02271
  15        9PX         0.00000   0.00000   0.00000   0.00000   0.00005
  16        9PY         0.00000   0.00000   0.00000   0.00000   0.00000
  17        9PZ         0.00011   0.00001  -0.00071   0.00033  -0.00407
  18       10D 0        0.00004   0.00000   0.00051  -0.00214  -0.00956
  19       10D+1        0.00000   0.00000   0.00000  -0.00002   0.00000
  20       10D-1        0.00000   0.00000   0.00000   0.00000  -0.00001
  21       10D+2        0.00000   0.00000   0.00000   0.00000   0.00000
  22       10D-2        0.00000   0.00000   0.00000  -0.00001   0.00001
  23       11D 0       -0.00023  -0.00002  -0.00529   0.00462  -0.01876
  24       11D+1        0.00000   0.00000   0.00000  -0.00010   0.00001
  25       11D-1        0.00000   0.00000   0.00000   0.00000  -0.00001
  26       11D+2        0.00000   0.00000   0.00000   0.00000   0.00000
  27       11D-2        0.00000   0.00000  -0.00001   0.00000   0.00002
  28       12D 0        0.00027   0.00008   0.00206  -0.00841  -0.01668
  29       12D+1        0.00000   0.00000  -0.00002   0.00002   0.00005
  30       12D-1        0.00000   0.00000   0.00000  -0.00001  -0.00001
  31       12D+2        0.00000   0.00000   0.00000   0.00000   0.00000
  32       12D-2        0.00000   0.00000  -0.00002   0.00001   0.00000
  33       13F 0       -0.00007   0.00000   0.00000   0.00242   0.00064
  34       13F+1        0.00000   0.00000   0.00000  -0.00002   0.00000
  35       13F-1        0.00000   0.00000   0.00000   0.00000   0.00000
  36       13F+2        0.00000   0.00000   0.00000   0.00000   0.00000
  37       13F-2        0.00000   0.00000   0.00000   0.00000   0.00000
  38       13F+3        0.00000   0.00000   0.00000   0.00000   0.00000
  39       13F-3        0.00001   0.00000  -0.00014   0.00194   0.00397
  40       14F 0        0.00127  -0.00001   0.00471   0.00261  -0.00198
  41       14F+1        0.00000   0.00000  -0.00001  -0.00002   0.00002
  42       14F-1        0.00000   0.00000   0.00001   0.00000   0.00000
  43       14F+2        0.00000   0.00000   0.00000   0.00000   0.00000
  44       14F-2        0.00000   0.00000   0.00000  -0.00002  -0.00001
  45       14F+3        0.00000   0.00000   0.00000   0.00000   0.00000
  46       14F-3       -0.00044   0.00003   0.00188  -0.00100   0.00404
  47 2   H  1S         -0.00008   0.00000  -0.00858   0.03717   0.08052
  48        2S          0.00098  -0.00006  -0.01531   0.04377   0.08371
  49        3S          0.00181   0.00004  -0.00090  -0.00491  -0.01204
  50        4S          0.00003   0.00000  -0.00047   0.00051   0.00039
  51        5PX         0.00000   0.00000   0.00000   0.00000   0.00000
  52        5PY         0.00001   0.00000  -0.00109   0.00399   0.00863
  53        5PZ        -0.00004   0.00000   0.00028   0.00095   0.00034
  54        6PX         0.00000   0.00000   0.00000  -0.00001   0.00001
  55        6PY         0.00008   0.00000  -0.00073   0.00080   0.00121
  56        6PZ         0.00032  -0.00001   0.00008   0.00243  -0.00051
  57        7PX         0.00000   0.00000  -0.00001   0.00001  -0.00001
  58        7PY         0.00043   0.00001   0.00135  -0.00496  -0.01033
  59        7PZ        -0.00055   0.00001  -0.00280  -0.00173  -0.00131
  60        8D 0        0.00006   0.00000   0.00014  -0.00035  -0.00091
  61        8D+1        0.00000   0.00000   0.00000   0.00000   0.00000
  62        8D-1       -0.00001   0.00000  -0.00015   0.00049   0.00023
  63        8D+2       -0.00002   0.00000   0.00003  -0.00054  -0.00137
  64        8D-2        0.00000   0.00000   0.00000   0.00000   0.00000
  65        9D 0        0.00009  -0.00001  -0.00006   0.00122   0.00101
  66        9D+1        0.00000   0.00000   0.00000   0.00000   0.00000
  67        9D-1        0.00014   0.00000  -0.00006   0.00004  -0.00038
  68        9D+2        0.00004   0.00000  -0.00098   0.00225   0.00415
  69        9D-2        0.00000   0.00000   0.00000   0.00000   0.00000
  70 3   H  1S         -0.00008   0.00000  -0.00858   0.03726   0.08044
  71        2S          0.00097  -0.00006  -0.01534   0.04391   0.08362
  72        3S          0.00180   0.00004  -0.00100  -0.00490  -0.01199
  73        4S          0.00003   0.00000  -0.00047   0.00051   0.00043
  74        5PX         0.00001   0.00000  -0.00094   0.00346   0.00747
  75        5PY        -0.00001   0.00000   0.00054  -0.00200  -0.00431
  76        5PZ        -0.00004   0.00000   0.00028   0.00096   0.00035
  77        6PX         0.00006   0.00000  -0.00064   0.00071   0.00105
  78        6PY        -0.00004   0.00000   0.00037  -0.00041  -0.00060
  79        6PZ         0.00032  -0.00001   0.00008   0.00240  -0.00053
  80        7PX         0.00037   0.00001   0.00115  -0.00430  -0.00892
  81        7PY        -0.00022   0.00000  -0.00067   0.00249   0.00515
  82        7PZ        -0.00055   0.00001  -0.00281  -0.00174  -0.00132
  83        8D 0        0.00006   0.00000   0.00014  -0.00035  -0.00091
  84        8D+1       -0.00001   0.00000  -0.00013   0.00043   0.00020
  85        8D-1        0.00000   0.00000   0.00007  -0.00025  -0.00012
  86        8D+2        0.00001   0.00000  -0.00002   0.00027   0.00068
  87        8D-2       -0.00001   0.00000   0.00003  -0.00047  -0.00118
  88        9D 0        0.00009  -0.00001  -0.00006   0.00122   0.00100
  89        9D+1        0.00012   0.00000  -0.00005   0.00003  -0.00033
  90        9D-1       -0.00007   0.00000   0.00003  -0.00002   0.00019
  91        9D+2       -0.00002   0.00000   0.00049  -0.00113  -0.00208
  92        9D-2        0.00003   0.00000  -0.00085   0.00195   0.00360
  93 4   H  1S         -0.00008   0.00000  -0.00857   0.03708   0.08061
  94        2S          0.00098  -0.00006  -0.01528   0.04364   0.08381
  95        3S          0.00181   0.00004  -0.00081  -0.00491  -0.01208
  96        4S          0.00003   0.00000  -0.00047   0.00050   0.00036
  97        5PX        -0.00001   0.00000   0.00094  -0.00345  -0.00748
  98        5PY        -0.00001   0.00000   0.00054  -0.00199  -0.00432
  99        5PZ        -0.00004   0.00000   0.00028   0.00095   0.00035
 100        6PX        -0.00007   0.00000   0.00063  -0.00068  -0.00105
 101        6PY        -0.00004   0.00000   0.00036  -0.00039  -0.00061
 102        6PZ         0.00032  -0.00001   0.00008   0.00245  -0.00050
 103        7PX        -0.00038  -0.00001  -0.00119   0.00429   0.00897
 104        7PY        -0.00022   0.00000  -0.00068   0.00247   0.00518
 105        7PZ        -0.00055   0.00001  -0.00279  -0.00173  -0.00132
 106        8D 0        0.00006   0.00000   0.00014  -0.00035  -0.00091
 107        8D+1        0.00001   0.00000   0.00013  -0.00043  -0.00020
 108        8D-1        0.00000   0.00000   0.00007  -0.00025  -0.00012
 109        8D+2        0.00001   0.00000  -0.00002   0.00027   0.00069
 110        8D-2        0.00001   0.00000  -0.00003   0.00047   0.00119
 111        9D 0        0.00009  -0.00001  -0.00006   0.00123   0.00101
 112        9D+1       -0.00012   0.00000   0.00005  -0.00004   0.00033
 113        9D-1       -0.00007   0.00000   0.00003  -0.00002   0.00019
 114        9D+2       -0.00002   0.00000   0.00049  -0.00113  -0.00208
 115        9D-2       -0.00003   0.00000   0.00085  -0.00195  -0.00360
 116 5   Cl 1S          0.00007   0.99708  -0.00064   0.06648  -0.03479
 117        2S         -0.00007   0.01040   0.00292  -0.25193   0.13076
 118        3S          0.00005   0.00017  -0.00391   0.52472  -0.27821
 119        4S          0.00008   0.00026  -0.00025   0.06428  -0.03748
 120        5S         -0.00181  -0.00020  -0.01230   0.35096  -0.17054
 121        6S         -0.00050  -0.00011  -0.00461   0.02452   0.01130
 122        7PX        -0.00004   0.00000  -0.00001   0.00000  -0.00009
 123        7PY         0.00000   0.00000   0.00000   0.00000   0.00001
 124        7PZ         0.00732   0.00016   0.00152   0.00459   0.02880
 125        8PX         0.00000   0.00000   0.00002  -0.00004   0.00024
 126        8PY         0.00000   0.00000   0.00000   0.00000  -0.00003
 127        8PZ         0.00051  -0.00003  -0.00227  -0.00602  -0.07208
 128        9PX         0.00000   0.00000   0.00001  -0.00003   0.00010
 129        9PY         0.00000   0.00000   0.00000   0.00000  -0.00001
 130        9PZ         0.00032   0.00003  -0.00264   0.00068  -0.03141
 131       10PX        -0.00001   0.00000  -0.00004  -0.00003   0.00022
 132       10PY         0.00000   0.00000   0.00000   0.00000  -0.00002
 133       10PZ         0.00096   0.00015   0.00271   0.00302  -0.05237
 134       11PX         0.00000   0.00000   0.00000  -0.00001   0.00004
 135       11PY         0.00000   0.00000   0.00000   0.00000   0.00000
 136       11PZ         0.00002   0.00002  -0.00040   0.00263  -0.00875
 137       12D 0       -0.00003   0.00001  -0.00035   0.00448   0.00453
 138       12D+1        0.00000   0.00000   0.00000  -0.00003  -0.00003
 139       12D-1        0.00000   0.00000   0.00000   0.00000   0.00000
 140       12D+2        0.00000   0.00000   0.00000   0.00000   0.00000
 141       12D-2        0.00000   0.00000   0.00000   0.00000   0.00000
 142       13D 0       -0.00022   0.00000  -0.00163   0.00820   0.00969
 143       13D+1        0.00001   0.00000   0.00002  -0.00006  -0.00008
 144       13D-1        0.00000   0.00000   0.00000   0.00001   0.00001
 145       13D+2        0.00000   0.00000   0.00000   0.00000   0.00000
 146       13D-2        0.00000   0.00000   0.00000   0.00000   0.00000
 147       14D 0       -0.00014  -0.00004  -0.00184  -0.00018   0.00538
 148       14D+1        0.00001   0.00000   0.00003   0.00000  -0.00008
 149       14D-1        0.00000   0.00000   0.00000   0.00000   0.00000
 150       14D+2        0.00000   0.00000   0.00000   0.00000   0.00000
 151       14D-2        0.00000   0.00000   0.00000   0.00000   0.00000
 152       15F 0        0.00005   0.00000   0.00023  -0.00180  -0.00191
 153       15F+1        0.00000   0.00000   0.00000   0.00002   0.00002
 154       15F-1        0.00000   0.00000   0.00000   0.00000   0.00000
 155       15F+2        0.00000   0.00000   0.00000   0.00000   0.00000
 156       15F-2        0.00000   0.00000   0.00000   0.00000   0.00000
 157       15F+3        0.00000   0.00000   0.00000   0.00000   0.00000
 158       15F-3       -0.00001   0.00000  -0.00001   0.00002   0.00009
 159       16F 0       -0.00005   0.00001   0.00005  -0.00093  -0.00171
 160       16F+1        0.00000   0.00000  -0.00001   0.00002   0.00003
 161       16F-1        0.00000   0.00000   0.00000   0.00000   0.00000
 162       16F+2        0.00000   0.00000   0.00000   0.00000   0.00000
 163       16F-2        0.00000   0.00000   0.00000   0.00000   0.00000
 164       16F+3        0.00000   0.00000   0.00000   0.00000   0.00000
 165       16F-3        0.00003   0.00000   0.00002  -0.00001  -0.00021
 166 6   F  1S          0.97743  -0.00002   0.21189   0.01315   0.02162
 167        2S         -0.01503   0.00000  -0.53161  -0.03405  -0.05732
 168        3S          0.04206   0.00000  -0.16471  -0.01081  -0.01853
 169        4S          0.00193  -0.00001  -0.36876  -0.02363  -0.04391
 170        5S         -0.00084  -0.00006  -0.04529   0.00420   0.00781
 171        6PX         0.00000   0.00000   0.00005  -0.00002  -0.00004
 172        6PY         0.00000   0.00000   0.00001   0.00001   0.00004
 173        6PZ         0.00048   0.00000   0.01352   0.01270   0.08749
 174        7PX         0.00000   0.00000   0.00006  -0.00003  -0.00005
 175        7PY         0.00000   0.00000   0.00001   0.00001   0.00004
 176        7PZ        -0.00012   0.00000   0.01475   0.01551   0.10527
 177        8PX         0.00000   0.00000   0.00004  -0.00002  -0.00004
 178        8PY         0.00000   0.00000   0.00001   0.00001   0.00004
 179        8PZ         0.00240  -0.00001   0.01247   0.01225   0.08373
 180        9PX         0.00000   0.00000   0.00001   0.00000  -0.00001
 181        9PY         0.00000   0.00000   0.00000   0.00000   0.00001
 182        9PZ        -0.00008  -0.00002   0.00220   0.00316   0.02424
 183       10D 0       -0.00002   0.00000  -0.00013   0.00017   0.00060
 184       10D+1        0.00000   0.00000   0.00000   0.00000   0.00000
 185       10D-1        0.00000   0.00000   0.00000   0.00000   0.00000
 186       10D+2        0.00000   0.00000   0.00000   0.00000   0.00000
 187       10D-2        0.00000   0.00000   0.00000   0.00000   0.00000
 188       11D 0       -0.00003   0.00000  -0.00104   0.00091   0.00275
 189       11D+1        0.00000   0.00000   0.00000   0.00000   0.00000
 190       11D-1        0.00000   0.00000   0.00000   0.00000   0.00000
 191       11D+2        0.00000   0.00000   0.00000   0.00000   0.00000
 192       11D-2        0.00000   0.00000   0.00000   0.00000   0.00000
 193       12D 0        0.00080   0.00000  -0.00055   0.00035   0.00386
 194       12D+1        0.00000   0.00000   0.00000   0.00000   0.00000
 195       12D-1        0.00000   0.00000   0.00000   0.00000   0.00000
 196       12D+2        0.00000   0.00000   0.00000   0.00000   0.00000
 197       12D-2        0.00000   0.00000   0.00000   0.00000   0.00000
 198       13F 0       -0.00006   0.00000  -0.00002   0.00013   0.00027
 199       13F+1        0.00000   0.00000   0.00000   0.00000   0.00000
 200       13F-1        0.00000   0.00000   0.00000   0.00000   0.00000
 201       13F+2        0.00000   0.00000   0.00000   0.00000   0.00000
 202       13F-2        0.00000   0.00000   0.00000   0.00000   0.00000
 203       13F+3        0.00000   0.00000   0.00000   0.00000   0.00000
 204       13F-3        0.00001   0.00000   0.00001   0.00002   0.00003
 205       14F 0        0.00020   0.00000  -0.00040  -0.00006   0.00063
 206       14F+1        0.00000   0.00000   0.00000   0.00000   0.00000
 207       14F-1        0.00000   0.00000   0.00000   0.00000   0.00000
 208       14F+2        0.00000   0.00000   0.00000   0.00000   0.00000
 209       14F-2        0.00000   0.00000   0.00000   0.00000   0.00000
 210       14F+3        0.00000   0.00000   0.00000   0.00000   0.00000
 211       14F-3       -0.00001   0.00000  -0.00007  -0.00006  -0.00009
                          11        12        13        14        15
     Eigenvalues --     1.96437   1.96437   1.95923   1.95923   1.94911
   1 1   C  1S          0.00004  -0.00005  -0.00002   0.00002  -0.00022
   2        2S         -0.00012   0.00013   0.00004  -0.00004   0.00063
   3        3S         -0.00003   0.00003   0.00001  -0.00001   0.00014
   4        4S         -0.00007   0.00007   0.00008  -0.00007   0.00199
   5        5S         -0.00008   0.00008   0.00009  -0.00009   0.00030
   6        6PX        -0.06742   0.07091  -0.16372   0.16303   0.04797
   7        6PY         0.07094   0.06739   0.16298   0.16377   0.04798
   8        6PZ        -0.00008   0.00003  -0.00013  -0.00001   0.00026
   9        7PX        -0.09032   0.09501  -0.21701   0.21607   0.06668
  10        7PY         0.09504   0.09029   0.21604   0.21705   0.06669
  11        7PZ        -0.00012   0.00004  -0.00016  -0.00003   0.00037
  12        8PX        -0.06614   0.06954  -0.16763   0.16670   0.05130
  13        8PY         0.06960   0.06608   0.16687   0.16745   0.05131
  14        8PZ        -0.00009   0.00004  -0.00021   0.00006   0.00031
  15        9PX         0.00149  -0.00160  -0.01343   0.01337   0.00867
  16        9PY        -0.00157  -0.00153   0.01337   0.01343   0.00867
  17        9PZ         0.00000   0.00000  -0.00003   0.00002   0.00001
  18       10D 0        0.00001   0.00000   0.00000   0.00000  -0.00006
  19       10D+1        0.00186  -0.00196   0.00090  -0.00090  -0.00264
  20       10D-1       -0.00196  -0.00186  -0.00089  -0.00090  -0.00264
  21       10D+2        0.00452   0.00430   0.01045   0.01052   0.00356
  22       10D-2       -0.00429   0.00452  -0.01050   0.01046   0.00356
  23       11D 0        0.00002  -0.00001  -0.00002   0.00001  -0.00036
  24       11D+1        0.00877  -0.00924  -0.00542   0.00536  -0.01095
  25       11D-1       -0.00922  -0.00877   0.00542   0.00542  -0.01094
  26       11D+2        0.01497   0.01422   0.03199   0.03212   0.01212
  27       11D-2       -0.01423   0.01495  -0.03217   0.03195   0.01210
  28       12D 0        0.00000   0.00000  -0.00001   0.00000  -0.00018
  29       12D+1        0.00422  -0.00441  -0.00403   0.00399   0.00086
  30       12D-1       -0.00442  -0.00418   0.00403   0.00403   0.00087
  31       12D+2        0.01455   0.01384   0.02542   0.02547   0.00715
  32       12D-2       -0.01383   0.01455  -0.02556   0.02534   0.00715
  33       13F 0        0.00000   0.00000   0.00000   0.00000   0.00000
  34       13F+1       -0.00017   0.00018   0.00142  -0.00142  -0.00158
  35       13F-1        0.00018   0.00017  -0.00142  -0.00142  -0.00158
  36       13F+2       -0.00046  -0.00044  -0.00008  -0.00009  -0.00023
  37       13F-2        0.00044  -0.00046   0.00008  -0.00009  -0.00023
  38       13F+3        0.00000   0.00000   0.00000   0.00000   0.00000
  39       13F-3        0.00000   0.00000   0.00000   0.00000   0.00002
  40       14F 0        0.00000   0.00000  -0.00001   0.00002   0.00000
  41       14F+1       -0.00026   0.00028   0.00413  -0.00412  -0.00514
  42       14F-1        0.00027   0.00026  -0.00411  -0.00414  -0.00514
  43       14F+2       -0.00279  -0.00267  -0.00007  -0.00011  -0.00227
  44       14F-2        0.00265  -0.00281   0.00007  -0.00012  -0.00227
  45       14F+3       -0.00001   0.00000  -0.00001  -0.00001   0.00000
  46       14F-3        0.00000   0.00000   0.00000   0.00000   0.00011
  47 2   H  1S         -0.04882  -0.04634  -0.10688  -0.10747  -0.03289
  48        2S         -0.04403  -0.04181  -0.10886  -0.10955  -0.03263
  49        3S          0.04198   0.03988   0.08435   0.08441   0.00350
  50        4S         -0.00417  -0.00400   0.01226   0.01233   0.00077
  51        5PX        -0.00144   0.00151  -0.00310   0.00308   0.00074
  52        5PY        -0.00383  -0.00364  -0.00874  -0.00879  -0.00254
  53        5PZ         0.00002   0.00002  -0.00197  -0.00198   0.00014
  54        6PX        -0.00554   0.00582  -0.00968   0.00959   0.00263
  55        6PY         0.00523   0.00496   0.00794   0.00795   0.00391
  56        6PZ        -0.00201  -0.00192   0.00029   0.00026  -0.00082
  57        7PX        -0.00638   0.00672  -0.00950   0.00939   0.00199
  58        7PY         0.01019   0.00969   0.03220   0.03229   0.00676
  59        7PZ         0.00046   0.00046   0.00537   0.00537   0.00203
  60        8D 0        0.00030   0.00028   0.00096   0.00096   0.00029
  61        8D+1       -0.00001   0.00001  -0.00022   0.00022  -0.00002
  62        8D-1       -0.00054  -0.00051  -0.00017  -0.00017  -0.00021
  63        8D+2        0.00044   0.00041   0.00135   0.00136   0.00037
  64        8D-2       -0.00073   0.00076  -0.00159   0.00158   0.00042
  65        9D 0       -0.00039  -0.00037   0.00103   0.00104  -0.00012
  66        9D+1        0.00106  -0.00112  -0.00071   0.00069  -0.00083
  67        9D-1       -0.00241  -0.00230   0.00241   0.00242  -0.00034
  68        9D+2       -0.00117  -0.00111  -0.00188  -0.00189  -0.00077
  69        9D-2       -0.00114   0.00119  -0.00204   0.00203   0.00080
  70 3   H  1S          0.06454  -0.01903   0.14648  -0.03890  -0.01192
  71        2S          0.05821  -0.01717   0.14918  -0.03966  -0.01200
  72        3S         -0.05560   0.01641  -0.11562   0.03056   0.00112
  73        4S          0.00552  -0.00164  -0.01680   0.00446   0.00027
  74        5PX         0.00468  -0.00029   0.01093  -0.00064  -0.00029
  75        5PY        -0.00202   0.00248  -0.00502   0.00525   0.00134
  76        5PZ        -0.00003   0.00001   0.00270  -0.00072   0.00006
  77        6PX        -0.00484   0.00562  -0.00765   0.00907   0.00301
  78        6PY         0.00543   0.00565   0.00847   0.00996   0.00242
  79        6PZ         0.00265  -0.00079  -0.00041   0.00009  -0.00030
  80        7PX        -0.01037   0.00789  -0.03649   0.01656   0.00345
  81        7PY         0.00902   0.00570   0.02505   0.00530   0.00115
  82        7PZ        -0.00061   0.00018  -0.00737   0.00194   0.00070
  83        8D 0       -0.00039   0.00012  -0.00131   0.00035   0.00011
  84        8D+1        0.00062  -0.00017   0.00024   0.00010  -0.00008
  85        8D-1       -0.00035   0.00012  -0.00005   0.00030   0.00001
  86        8D+2        0.00055   0.00079   0.00143   0.00163   0.00043
  87        8D-2       -0.00035   0.00065  -0.00132   0.00151   0.00040
  88        9D 0        0.00052  -0.00015  -0.00141   0.00037  -0.00004
  89        9D+1        0.00255  -0.00156  -0.00273   0.00123  -0.00069
  90        9D-1       -0.00198  -0.00081   0.00187   0.00039  -0.00092
  91        9D+2       -0.00037   0.00160  -0.00065   0.00275   0.00109
  92        9D-2        0.00157   0.00039   0.00260   0.00080   0.00030
  93 4   H  1S         -0.01580   0.06546  -0.03956   0.14633   0.04533
  94        2S         -0.01425   0.05906  -0.04029   0.14917   0.04433
  95        3S          0.01356  -0.05623   0.03121  -0.11491  -0.00535
  96        4S         -0.00135   0.00564   0.00453  -0.01678  -0.00108
  97        5PX         0.00006  -0.00469   0.00069  -0.01093  -0.00315
  98        5PY         0.00238  -0.00214   0.00527  -0.00499  -0.00150
  99        5PZ         0.00000  -0.00002  -0.00074   0.00271  -0.00015
 100        6PX        -0.00537   0.00513  -0.00913   0.00762   0.00427
 101        6PY         0.00592   0.00513   0.00993   0.00849   0.00357
 102        6PZ        -0.00065   0.00270   0.00011  -0.00037   0.00113
 103        7PX        -0.00735   0.01075  -0.01679   0.03635   0.00783
 104        7PY         0.00615   0.00871   0.00525   0.02498   0.00536
 105        7PZ         0.00015  -0.00067   0.00199  -0.00735  -0.00295
 106        8D 0        0.00010  -0.00040   0.00035  -0.00131  -0.00038
 107        8D+1        0.00014  -0.00063  -0.00010  -0.00025  -0.00024
 108        8D-1        0.00010  -0.00036   0.00030  -0.00005  -0.00015
 109        8D+2        0.00081   0.00051   0.00162   0.00143   0.00039
 110        8D-2       -0.00063   0.00038  -0.00152   0.00131   0.00036
 111        9D 0       -0.00013   0.00053   0.00039  -0.00143   0.00016
 112        9D+1        0.00142  -0.00262  -0.00126   0.00274  -0.00022
 113        9D-1       -0.00090  -0.00193   0.00040   0.00187  -0.00048
 114        9D+2        0.00158  -0.00045   0.00276  -0.00064  -0.00026
 115        9D-2       -0.00048  -0.00155  -0.00079  -0.00260  -0.00103
 116 5   Cl 1S         -0.00002   0.00002  -0.00006   0.00006  -0.00004
 117        2S          0.00007  -0.00007   0.00022  -0.00021   0.00015
 118        3S         -0.00015   0.00016  -0.00045   0.00044  -0.00030
 119        4S         -0.00002   0.00002  -0.00007   0.00007  -0.00004
 120        5S         -0.00013   0.00013  -0.00042   0.00041  -0.00020
 121        6S          0.00004  -0.00004  -0.00009   0.00008  -0.00005
 122        7PX         0.00608  -0.00636   0.03096  -0.03070   0.15810
 123        7PY        -0.00639  -0.00605  -0.03082  -0.03084   0.15811
 124        7PZ         0.00006  -0.00006   0.00031  -0.00028   0.00063
 125        8PX        -0.01439   0.01507  -0.07315   0.07256  -0.36168
 126        8PY         0.01513   0.01432   0.07282   0.07289  -0.36171
 127        8PZ        -0.00014   0.00013  -0.00071   0.00065  -0.00144
 128        9PX        -0.00668   0.00699  -0.03384   0.03355  -0.17471
 129        9PY         0.00702   0.00664   0.03369   0.03371  -0.17473
 130        9PZ        -0.00007   0.00007  -0.00034   0.00030  -0.00070
 131       10PX        -0.00718   0.00752  -0.03960   0.03928  -0.25997
 132       10PY         0.00755   0.00714   0.03942   0.03946  -0.25999
 133       10PZ        -0.00007   0.00007  -0.00030   0.00027  -0.00095
 134       11PX        -0.00146   0.00154  -0.00241   0.00238  -0.04394
 135       11PY         0.00154   0.00146   0.00240   0.00239  -0.04394
 136       11PZ        -0.00002   0.00002   0.00002  -0.00002  -0.00013
 137       12D 0        0.00002  -0.00002   0.00008  -0.00007   0.00001
 138       12D+1        0.00130  -0.00136   0.00439  -0.00435   0.00016
 139       12D-1       -0.00137  -0.00130  -0.00437  -0.00437   0.00016
 140       12D+2        0.00008   0.00008   0.00037   0.00040   0.00017
 141       12D-2       -0.00007   0.00009  -0.00037   0.00040   0.00017
 142       13D 0        0.00003  -0.00002   0.00011  -0.00010   0.00002
 143       13D+1        0.00200  -0.00210   0.00777  -0.00773   0.00050
 144       13D-1       -0.00211  -0.00200  -0.00773  -0.00776   0.00050
 145       13D+2        0.00023   0.00023   0.00042   0.00050   0.00040
 146       13D-2       -0.00021   0.00024  -0.00042   0.00049   0.00040
 147       14D 0        0.00000   0.00000   0.00001  -0.00001  -0.00001
 148       14D+1       -0.00004   0.00005  -0.00004   0.00003   0.00238
 149       14D-1        0.00004   0.00005   0.00004   0.00003   0.00238
 150       14D+2       -0.00047  -0.00046  -0.00004  -0.00006   0.00004
 151       14D-2        0.00045  -0.00048   0.00005  -0.00006   0.00004
 152       15F 0       -0.00001   0.00001  -0.00003   0.00003  -0.00002
 153       15F+1       -0.00061   0.00064  -0.00186   0.00185  -0.00100
 154       15F-1        0.00064   0.00061   0.00186   0.00186  -0.00100
 155       15F+2       -0.00008  -0.00008  -0.00023  -0.00025  -0.00006
 156       15F-2        0.00007  -0.00009   0.00023  -0.00025  -0.00006
 157       15F+3        0.00000   0.00000   0.00000   0.00000   0.00000
 158       15F-3        0.00000   0.00000   0.00000   0.00000   0.00000
 159       16F 0        0.00000   0.00000  -0.00002   0.00002  -0.00002
 160       16F+1       -0.00041   0.00043  -0.00142   0.00142  -0.00127
 161       16F-1        0.00043   0.00041   0.00141   0.00143  -0.00127
 162       16F+2        0.00001   0.00001   0.00014   0.00012  -0.00013
 163       16F-2       -0.00001   0.00001  -0.00014   0.00012  -0.00013
 164       16F+3        0.00000   0.00000   0.00000   0.00000   0.00000
 165       16F-3        0.00000   0.00000   0.00000   0.00000   0.00000
 166 6   F  1S          0.00001  -0.00001   0.00001  -0.00001   0.00006
 167        2S         -0.00002   0.00002  -0.00001   0.00001  -0.00012
 168        3S         -0.00001   0.00001   0.00000   0.00001  -0.00004
 169        4S         -0.00001   0.00002  -0.00004   0.00004  -0.00008
 170        5S         -0.00001   0.00001  -0.00006   0.00006  -0.00006
 171        6PX        -0.22884   0.24082   0.11480  -0.11425  -0.01598
 172        6PY         0.24080   0.22886  -0.11429  -0.11477  -0.01598
 173        6PZ         0.00015  -0.00038  -0.00008   0.00018  -0.00195
 174        7PX        -0.27298   0.28726   0.13612  -0.13547  -0.01891
 175        7PY         0.28724   0.27300  -0.13551  -0.13609  -0.01891
 176        7PZ         0.00018  -0.00045  -0.00009   0.00021  -0.00233
 177        8PX        -0.22070   0.23224   0.11451  -0.11396  -0.01620
 178        8PY         0.23223   0.22072  -0.11399  -0.11448  -0.01620
 179        8PZ         0.00014  -0.00036  -0.00010   0.00021  -0.00194
 180        9PX        -0.06938   0.07301   0.04038  -0.04019  -0.00789
 181        9PY         0.07300   0.06938  -0.04020  -0.04037  -0.00789
 182        9PZ         0.00004  -0.00011  -0.00005   0.00008  -0.00061
 183       10D 0        0.00000   0.00000   0.00000   0.00000  -0.00001
 184       10D+1       -0.00042   0.00044  -0.00007   0.00007   0.00008
 185       10D-1        0.00044   0.00042   0.00007   0.00007   0.00008
 186       10D+2        0.00002   0.00002   0.00003   0.00003   0.00001
 187       10D-2       -0.00002   0.00002  -0.00003   0.00003   0.00001
 188       11D 0        0.00000   0.00000   0.00000   0.00000  -0.00001
 189       11D+1       -0.00167   0.00176  -0.00086   0.00086   0.00042
 190       11D-1        0.00176   0.00167   0.00086   0.00086   0.00042
 191       11D+2        0.00003   0.00004   0.00018   0.00018   0.00012
 192       11D-2       -0.00003   0.00004  -0.00018   0.00018   0.00012
 193       12D 0        0.00000  -0.00001  -0.00001   0.00001  -0.00007
 194       12D+1       -0.00409   0.00430   0.00252  -0.00251   0.00022
 195       12D-1        0.00430   0.00409  -0.00251  -0.00252   0.00022
 196       12D+2        0.00002   0.00003  -0.00019  -0.00020  -0.00026
 197       12D-2       -0.00002   0.00003   0.00020  -0.00020  -0.00026
 198       13F 0        0.00000   0.00000   0.00000   0.00000   0.00000
 199       13F+1       -0.00015   0.00016  -0.00018   0.00018   0.00004
 200       13F-1        0.00016   0.00015   0.00018   0.00018   0.00004
 201       13F+2        0.00004   0.00004   0.00008   0.00008   0.00004
 202       13F-2       -0.00004   0.00004  -0.00008   0.00008   0.00004
 203       13F+3        0.00000   0.00000   0.00000   0.00000   0.00000
 204       13F-3        0.00000   0.00000   0.00000   0.00000   0.00000
 205       14F 0        0.00000   0.00000   0.00000   0.00000  -0.00001
 206       14F+1       -0.00100   0.00106   0.00062  -0.00061   0.00001
 207       14F-1        0.00106   0.00100  -0.00062  -0.00062   0.00001
 208       14F+2       -0.00010  -0.00009  -0.00017  -0.00017  -0.00011
 209       14F-2        0.00009  -0.00009   0.00017  -0.00017  -0.00011
 210       14F+3        0.00000   0.00000   0.00000   0.00000   0.00000
 211       14F-3        0.00000   0.00000   0.00000   0.00000   0.00000
                          16        17        18        19        20
     Eigenvalues --     1.94911   1.94879   1.93535   0.06018   0.02494
   1 1   C  1S          0.00022   0.05334  -0.01580  -0.02406  -0.00003
   2        2S         -0.00062  -0.15185   0.05098   0.06679   0.00015
   3        3S         -0.00013  -0.03584   0.01676   0.02431   0.00009
   4        4S         -0.00196  -0.29232   0.08712  -0.22162  -0.00111
   5        5S         -0.00029  -0.05764   0.03919  -0.02903  -0.00026
   6        6PX        -0.04819   0.00056  -0.00020  -0.00001   0.09304
   7        6PY         0.04819  -0.00001  -0.00006   0.00012   0.12340
   8        6PZ        -0.00030  -0.04569  -0.12871   0.27936  -0.00004
   9        7PX        -0.06697   0.00082  -0.00027   0.00006   0.17260
  10        7PY         0.06697  -0.00002  -0.00008   0.00019   0.22895
  11        7PZ        -0.00042  -0.06474  -0.18058   0.44329  -0.00009
  12        8PX        -0.05151   0.00084  -0.00048   0.00020   0.07886
  13        8PY         0.05151  -0.00002  -0.00003   0.00009   0.10475
  14        8PZ        -0.00035  -0.06421  -0.07659   0.20175  -0.00030
  15        9PX        -0.00867   0.00013  -0.00012   0.00008   0.01771
  16        9PY         0.00867   0.00000   0.00000   0.00000   0.02349
  17        9PZ        -0.00002  -0.00123  -0.00166  -0.00006   0.00006
  18       10D 0        0.00006   0.00935  -0.01106  -0.00881  -0.00001
  19       10D+1        0.00264  -0.00004   0.00005   0.00004   0.01537
  20       10D-1       -0.00264   0.00001  -0.00001  -0.00001   0.02039
  21       10D+2        0.00355   0.00000   0.00000   0.00000   0.00311
  22       10D-2       -0.00355   0.00004  -0.00002  -0.00002   0.00236
  23       11D 0        0.00037   0.04984  -0.04570   0.06670   0.00003
  24       11D+1        0.01094  -0.00017   0.00015  -0.00046   0.03597
  25       11D-1       -0.01093   0.00004  -0.00003   0.00005   0.04780
  26       11D+2        0.01204   0.00000   0.00000   0.00000   0.05586
  27       11D-2       -0.01204   0.00020  -0.00009   0.00000   0.04204
  28       12D 0        0.00018   0.02816  -0.00380  -0.01697  -0.00004
  29       12D+1       -0.00081   0.00000  -0.00002  -0.00002   0.01119
  30       12D-1        0.00081   0.00002   0.00000  -0.00001   0.01493
  31       12D+2        0.00715   0.00000   0.00000   0.00000   0.01150
  32       12D-2       -0.00715   0.00019  -0.00006   0.00000   0.00860
  33       13F 0        0.00000  -0.00208  -0.00328  -0.00586   0.00002
  34       13F+1        0.00158  -0.00002   0.00004  -0.00002  -0.00577
  35       13F-1       -0.00158   0.00000   0.00000  -0.00001  -0.00765
  36       13F+2       -0.00024   0.00000   0.00000   0.00000   0.00250
  37       13F-2        0.00024   0.00000   0.00000  -0.00002   0.00187
  38       13F+3        0.00000   0.00000   0.00000   0.00000   0.00000
  39       13F-3       -0.00002  -0.00308   0.00115  -0.00053   0.00000
  40       14F 0        0.00001  -0.00547  -0.00087   0.01161  -0.00005
  41       14F+1        0.00512  -0.00005   0.00003  -0.00017  -0.00150
  42       14F-1       -0.00512  -0.00001   0.00000   0.00001  -0.00201
  43       14F+2       -0.00232   0.00001   0.00000   0.00002  -0.00179
  44       14F-2        0.00233  -0.00002   0.00000  -0.00016  -0.00138
  45       14F+3        0.00000  -0.00001   0.00000  -0.00001  -0.00001
  46       14F-3       -0.00011  -0.01509   0.00917  -0.03771  -0.00008
  47 2   H  1S         -0.03329  -0.03380   0.02884  -0.00683   0.03232
  48        2S         -0.03253  -0.00312   0.02282   0.07999   0.20620
  49        3S          0.00408   0.02198   0.02032   0.06877   0.13109
  50        4S          0.00077   0.00012   0.00193   0.00722   0.05749
  51        5PX        -0.00075   0.00001   0.00000   0.00000   0.00168
  52        5PY        -0.00256  -0.00215   0.00248  -0.00201  -0.00700
  53        5PZ         0.00011  -0.00267  -0.00321   0.01430  -0.00975
  54        6PX        -0.00266   0.00004  -0.00001  -0.00003   0.00449
  55        6PY         0.00402   0.00552  -0.00154   0.00982   0.04716
  56        6PZ        -0.00084  -0.00100  -0.01029   0.02820  -0.00462
  57        7PX        -0.00201   0.00009  -0.00003  -0.00003  -0.00114
  58        7PY         0.00699   0.01110  -0.00164   0.01272   0.04037
  59        7PZ         0.00213   0.00807   0.00317  -0.01401   0.00411
  60        8D 0        0.00029   0.00014  -0.00085   0.00060   0.00204
  61        8D+1        0.00002   0.00000   0.00000   0.00001   0.00108
  62        8D-1       -0.00021  -0.00020  -0.00171   0.00673  -0.00319
  63        8D+2        0.00037   0.00052  -0.00061   0.00186   0.00206
  64        8D-2       -0.00043   0.00001   0.00000   0.00000   0.00126
  65        9D 0       -0.00010   0.00083  -0.00283   0.00597  -0.00263
  66        9D+1        0.00084  -0.00001  -0.00001  -0.00002   0.00267
  67        9D-1       -0.00031   0.00202  -0.00055  -0.00588   0.01232
  68        9D+2       -0.00076   0.00108   0.00035  -0.00113  -0.00756
  69        9D-2       -0.00080   0.00002   0.00000  -0.00001   0.00069
  70 3   H  1S          0.04508  -0.03415   0.02899  -0.00659   0.00492
  71        2S          0.04468  -0.00338   0.02297   0.08053   0.03161
  72        3S         -0.00500   0.02229   0.02033   0.06888   0.02000
  73        4S         -0.00102   0.00011   0.00190   0.00730   0.00877
  74        5PX         0.00315  -0.00188   0.00216  -0.00172   0.00046
  75        5PY        -0.00150   0.00109  -0.00125   0.00100   0.00292
  76        5PZ        -0.00019  -0.00267  -0.00322   0.01430  -0.00149
  77        6PX        -0.00415   0.00486  -0.00135   0.00856   0.00996
  78        6PY         0.00353  -0.00278   0.00077  -0.00495   0.00279
  79        6PZ         0.00113  -0.00099  -0.01030   0.02793  -0.00074
  80        7PX        -0.00771   0.00975  -0.00148   0.01102   0.00443
  81        7PY         0.00530  -0.00558   0.00084  -0.00639  -0.00470
  82        7PZ        -0.00276   0.00813   0.00321  -0.01414   0.00059
  83        8D 0       -0.00040   0.00015  -0.00085   0.00057   0.00031
  84        8D+1        0.00024  -0.00018  -0.00148   0.00580   0.00047
  85        8D-1       -0.00015   0.00010   0.00085  -0.00335   0.00179
  86        8D+2        0.00039  -0.00026   0.00030  -0.00093   0.00165
  87        8D-2       -0.00036   0.00046  -0.00053   0.00161   0.00131
  88        9D 0        0.00013   0.00083  -0.00283   0.00590  -0.00039
  89        9D+1        0.00024   0.00174  -0.00047  -0.00516   0.00382
  90        9D-1       -0.00050  -0.00101   0.00026   0.00297   0.00287
  91        9D+2       -0.00028  -0.00053  -0.00018   0.00056   0.00156
  92        9D-2        0.00106   0.00093   0.00031  -0.00099  -0.00043
  93 4   H  1S         -0.01230  -0.03345   0.02870  -0.00707  -0.03733
  94        2S         -0.01185  -0.00285   0.02267   0.07945  -0.23720
  95        3S          0.00164   0.02168   0.02031   0.06864  -0.15068
  96        4S          0.00029   0.00013   0.00196   0.00714  -0.06623
  97        5PX         0.00030   0.00184  -0.00215   0.00177  -0.00754
  98        5PY         0.00136   0.00105  -0.00124   0.00103  -0.00309
  99        5PZ         0.00003  -0.00268  -0.00320   0.01429   0.01123
 100        6PX        -0.00312  -0.00471   0.00130  -0.00842   0.04553
 101        6PY         0.00239  -0.00274   0.00075  -0.00483   0.02965
 102        6PZ        -0.00031  -0.00101  -0.01028   0.02847   0.00530
 103        7PX        -0.00364  -0.00947   0.00136  -0.01101   0.04055
 104        7PY         0.00106  -0.00551   0.00080  -0.00634   0.02260
 105        7PZ         0.00083   0.00803   0.00313  -0.01386  -0.00473
 106        8D 0        0.00010   0.00014  -0.00084   0.00064  -0.00235
 107        8D+1        0.00008   0.00018   0.00148  -0.00585  -0.00354
 108        8D-1        0.00001   0.00010   0.00085  -0.00338  -0.00123
 109        8D+2        0.00044  -0.00026   0.00030  -0.00093   0.00190
 110        8D-2       -0.00041  -0.00045   0.00052  -0.00162   0.00165
 111        9D 0       -0.00003   0.00084  -0.00282   0.00603   0.00301
 112        9D+1        0.00066  -0.00176   0.00047   0.00503   0.01145
 113        9D-1       -0.00094  -0.00101   0.00028   0.00292   0.00862
 114        9D+2        0.00108  -0.00056  -0.00017   0.00057  -0.00397
 115        9D-2       -0.00031  -0.00095  -0.00030   0.00098  -0.00777
 116 5   Cl 1S          0.00004   0.01021   0.00050  -0.01679   0.00001
 117        2S         -0.00014  -0.03897  -0.00167   0.05629  -0.00004
 118        3S          0.00029   0.08054   0.01125  -0.15674   0.00002
 119        4S          0.00004   0.01243   0.00452  -0.03985   0.00001
 120        5S          0.00019   0.06906   0.01221  -0.04599   0.00032
 121        6S          0.00005   0.02044  -0.01254   0.01585   0.00021
 122        7PX        -0.15809   0.00163   0.00111   0.00096   0.01268
 123        7PY         0.15809   0.00003  -0.00009  -0.00007   0.01681
 124        7PZ        -0.00077   0.02664  -0.21012  -0.16340   0.00011
 125        8PX         0.36166  -0.00373  -0.00244  -0.00209  -0.01979
 126        8PY        -0.36166  -0.00006   0.00020   0.00016  -0.02622
 127        8PZ         0.00176  -0.06220   0.46462   0.36064  -0.00028
 128        9PX         0.17470  -0.00179  -0.00114  -0.00121  -0.02108
 129        9PY        -0.17470  -0.00003   0.00009   0.00009  -0.02793
 130        9PZ         0.00085  -0.03102   0.21829   0.20646  -0.00016
 131       10PX         0.25997  -0.00257  -0.00160  -0.00015   0.01024
 132       10PY        -0.25997  -0.00006   0.00014   0.00001   0.01350
 133       10PZ         0.00118  -0.07222   0.31777   0.02931  -0.00020
 134       11PX         0.04395  -0.00040  -0.00017  -0.00005   0.00357
 135       11PY        -0.04395  -0.00001   0.00002   0.00000   0.00473
 136       11PZ         0.00017  -0.02400   0.04618   0.00728  -0.00008
 137       12D 0       -0.00001  -0.00472  -0.01240   0.06747  -0.00051
 138       12D+1       -0.00015   0.00003   0.00015  -0.00061  -0.03487
 139       12D-1        0.00015   0.00000  -0.00001   0.00005  -0.04624
 140       12D+2        0.00018   0.00000   0.00000   0.00000   0.00099
 141       12D-2       -0.00018   0.00001   0.00000  -0.00001   0.00083
 142       13D 0       -0.00002  -0.00754  -0.01943   0.09788  -0.00070
 143       13D+1       -0.00047   0.00007   0.00023  -0.00098  -0.05206
 144       13D-1        0.00047  -0.00001  -0.00001   0.00007  -0.06903
 145       13D+2        0.00039   0.00000   0.00000   0.00000   0.00155
 146       13D-2       -0.00039   0.00000   0.00000   0.00000   0.00130
 147       14D 0        0.00001   0.00153  -0.01323   0.03014  -0.00003
 148       14D+1       -0.00236   0.00000   0.00014  -0.00028  -0.00573
 149       14D-1        0.00236   0.00000  -0.00001   0.00002  -0.00757
 150       14D+2        0.00006   0.00000   0.00000   0.00000   0.00030
 151       14D-2       -0.00006   0.00000   0.00000  -0.00001   0.00025
 152       15F 0        0.00002   0.00098   0.00459  -0.00358   0.00004
 153       15F+1        0.00099  -0.00002  -0.00007   0.00004   0.00298
 154       15F-1       -0.00099   0.00000   0.00000   0.00000   0.00396
 155       15F+2       -0.00008   0.00000   0.00000   0.00000  -0.00020
 156       15F-2        0.00008   0.00000   0.00000   0.00001  -0.00016
 157       15F+3        0.00000   0.00000   0.00000   0.00000   0.00000
 158       15F-3        0.00000  -0.00007   0.00004   0.00004   0.00000
[...]
  79        6PZ        -0.33548   0.01719  -0.04120  -0.16387   0.13572
  80        7PX         1.49459   7.21714  -6.59442  -1.73933   6.30745
  81        7PY        -0.65244   7.54590   6.98135   1.02274  -1.35571
  82        7PZ        -1.42971   0.90293  -3.29274   0.01623   0.67603
  83        8D 0       -0.03755  -0.00134   0.00976   0.02542  -0.01553
  84        8D+1        0.01134   0.02585  -0.01500   0.00859  -0.01223
  85        8D-1       -0.00537   0.03263   0.02122  -0.00495   0.00352
  86        8D+2        0.06141  -0.10138  -0.02765   0.02371   0.00292
  87        8D-2       -0.11151  -0.05563  -0.01317  -0.04127  -0.03792
  88        9D 0       -0.52248  -0.11023   0.44001  -0.14594  -0.21933
  89        9D+1       -0.22416  -0.14014  -0.22186  -0.03858   0.22019
  90        9D-1        0.12003  -0.35907   0.00979   0.02260  -0.06709
  91        9D+2       -0.06115   1.71443  -0.25002  -0.35567   0.39215
  92        9D-2        0.17478   0.56887   1.37653   0.62052  -0.03143
  93 4   H  1S         -0.03617   0.01011  -0.00412  -0.01005  -0.00205
  94        2S          0.09503  -3.32870   0.89195  -0.49645   0.16435
  95        3S          6.27207 -27.15790   7.41625  -3.13313   2.04075
  96        4S          1.66926   1.81675  -0.42500  -1.87212   0.88266
  97        5PX        -0.03329  -0.07594   0.07453  -0.08081   0.03365
  98        5PY        -0.01691  -0.07643  -0.07658  -0.04630  -0.04008
  99        5PZ         0.05899  -0.01202   0.00453   0.03095  -0.00076
 100        6PX        -0.46082   1.83755  -1.26686   0.59973  -0.34267
 101        6PY        -0.30045   1.51045   0.92179   0.34363   0.39401
 102        6PZ        -0.32840  -0.01762  -0.00322  -0.16361   0.01222
 103        7PX        -0.57944   6.72139  -7.28688   1.72128  -2.25003
 104        7PY        -0.58387   7.02801   7.65596   0.97628   2.73196
 105        7PZ        -1.61582  -3.16674   0.81504   0.02369   0.05872
 106        8D 0       -0.03672   0.01111  -0.00440   0.02462  -0.00129
 107        8D+1       -0.00935   0.01545  -0.02661  -0.00805   0.00397
 108        8D-1       -0.00663   0.02194   0.03231  -0.00457  -0.00451
 109        8D+2        0.06620  -0.03286  -0.09725   0.02528  -0.02382
 110        8D-2        0.10894   0.00628   0.06358   0.04359   0.01728
 111        9D 0       -0.46868   0.49024  -0.13922  -0.15134  -0.02253
 112        9D+1        0.22093   0.21137   0.15000   0.03671  -0.06472
 113        9D-1        0.13699   0.00602  -0.34496   0.01991   0.07097
 114        9D+2       -0.18407  -0.23789   1.71191  -0.36086   0.50279
 115        9D-2       -0.24004  -1.37334  -0.59904  -0.62095  -0.26771
 116 5   Cl 1S          0.02030  -0.00057   0.00061   0.01177   0.00003
 117        2S          0.28082  -0.00785   0.00845   0.16374   0.00053
 118        3S          0.78300  -0.02188   0.02354   0.46005   0.00135
 119        4S         -0.04216   0.00118  -0.00130  -0.01472  -0.00023
 120        5S         -4.35964   0.12603  -0.13521  -3.02605  -0.01095
 121        6S         -9.82259   0.24602  -0.26371 -13.25282  -0.02242
 122        7PX         0.00005  -0.00056   0.00055   0.00012  -0.00126
 123        7PY         0.00000  -0.00056  -0.00055  -0.00001   0.00268
 124        7PZ        -0.00459   0.00003  -0.00003  -0.02274  -0.00005
 125        8PX         0.00068  -0.01317   0.01282   0.00258  -0.02520
 126        8PY        -0.00003  -0.01311  -0.01283  -0.00014   0.05338
 127        8PZ        -0.06474   0.00027  -0.00027  -0.31759  -0.00058
 128        9PX        -0.00006   0.00276  -0.00275  -0.00038   0.00423
 129        9PY         0.00000   0.00275   0.00276   0.00003  -0.00900
 130        9PZ         0.00190   0.00032  -0.00035   0.07964   0.00023
 131       10PX        -0.02865   0.05152  -0.04279  -0.03795   0.18127
 132       10PY         0.00287   0.05043   0.04206   0.00220  -0.38128
 133       10PZ         5.91758  -0.15779   0.16919   5.08189   0.01049
 134       11PX         0.03856   0.81502  -0.80900  -0.01882  -0.10666
 135       11PY        -0.00118   0.81313   0.81178   0.00153   0.22469
 136       11PZ         0.79309  -0.01476   0.01523   3.36045   0.00427
 137       12D 0        0.06817  -0.00205   0.00221   0.00182  -0.00007
 138       12D+1       -0.00148  -0.02164   0.02184   0.00007  -0.00154
 139       12D-1        0.00010  -0.02160  -0.02192   0.00000   0.00325
 140       12D+2       -0.00002   0.00542   0.00547   0.00000  -0.01097
 141       12D-2       -0.00026   0.00542  -0.00544  -0.00008   0.00522
 142       13D 0       -0.38847   0.01133  -0.01224  -0.07055   0.00020
 143       13D+1        0.00615   0.07965  -0.08022   0.00020   0.01087
 144       13D-1       -0.00047   0.07954   0.08055  -0.00004  -0.02286
 145       13D+2        0.00004  -0.01240  -0.01236  -0.00001   0.03960
 146       13D-2        0.00107  -0.01239   0.01230   0.00026  -0.01884
 147       14D 0       -1.39470   0.03500  -0.03733  -1.24205  -0.00195
 148       14D+1        0.00578  -0.21795   0.21523   0.02147  -0.13912
 149       14D-1       -0.00074  -0.21692  -0.21547  -0.00095   0.29265
 150       14D+2        0.00003   0.04829   0.04327  -0.00005  -0.18198
 151       14D-2        0.00131   0.04822  -0.04300  -0.00071   0.08613
 152       15F 0       -0.04306   0.00114  -0.00121   0.00123   0.00005
 153       15F+1        0.00108  -0.00329   0.00328   0.00074  -0.00797
 154       15F-1       -0.00004  -0.00324  -0.00324   0.00000   0.01667
 155       15F+2        0.00001   0.00713   0.00654  -0.00002  -0.00934
 156       15F-2        0.00038   0.00714  -0.00652   0.00025   0.00440
 157       15F+3        0.00000   0.00000   0.00000   0.00001   0.00025
 158       15F-3       -0.00937  -0.00015   0.00014   0.02294  -0.00009
 159       16F 0        0.23349  -0.00604   0.00646   0.08902  -0.00009
 160       16F+1       -0.00377   0.01072  -0.01083  -0.00407   0.02706
 161       16F-1        0.00022   0.01052   0.01070   0.00009  -0.05674
 162       16F+2        0.00000  -0.03339  -0.03146   0.00004   0.03825
 163       16F-2       -0.00211  -0.03343   0.03136  -0.00034  -0.01803
 164       16F+3        0.00001   0.00003   0.00001  -0.00002  -0.00064
 165       16F-3        0.01949   0.00045  -0.00043  -0.04285   0.00026
 166 6   F  1S          0.04018  -0.00124   0.00132  -0.02260   0.00002
 167        2S          0.14135  -0.00447   0.00477  -0.08582   0.00011
 168        3S         -0.07203   0.00210  -0.00225   0.03663   0.00002
 169        4S         -0.37934   0.01296  -0.01388  -0.02100  -0.00104
 170        5S         -0.05742   0.00261  -0.00201  -5.93536  -0.01694
 171        6PX         0.00025   0.00511  -0.00520  -0.00005   0.00074
 172        6PY        -0.00001   0.00509   0.00522   0.00000  -0.00154
 173        6PZ         0.00539  -0.00015   0.00015   0.00222   0.00000
 174        7PX        -0.00148  -0.02643   0.02680   0.00019  -0.00262
 175        7PY         0.00005  -0.02638  -0.02689   0.00000   0.00552
 176        7PZ        -0.06369   0.00174  -0.00185   0.00264   0.00006
 177        8PX         0.01204   0.18587  -0.18596  -0.00063   0.00016
 178        8PY        -0.00015   0.18550   0.18667  -0.00012  -0.00090
 179        8PZ         0.62910  -0.01611   0.01727  -0.24692  -0.00166
 180        9PX         0.04203   0.59775  -0.58829   0.00175  -0.09960
 181        9PY        -0.00133   0.59670   0.59065  -0.00113   0.20838
 182        9PZ        -0.86619   0.02299  -0.02469  -2.49219  -0.00741
 183       10D 0        0.01136  -0.00037   0.00038  -0.00797   0.00000
 184       10D+1        0.00071   0.01046  -0.01043  -0.00004   0.00092
 185       10D-1       -0.00001   0.01044   0.01047  -0.00001  -0.00197
 186       10D+2        0.00001  -0.00345  -0.00353   0.00000  -0.00256
 187       10D-2       -0.00014  -0.00345   0.00351   0.00002   0.00121
 188       11D 0       -0.04201   0.00135  -0.00140   0.01569  -0.00001
 189       11D+1       -0.00230  -0.03360   0.03351   0.00010  -0.00155
 190       11D-1        0.00004  -0.03353  -0.03364   0.00001   0.00339
 191       11D+2       -0.00004   0.01164   0.01202   0.00000   0.00909
 192       11D-2        0.00036   0.01163  -0.01196  -0.00006  -0.00431
 193       12D 0        0.41641  -0.01148   0.01224  -0.01117  -0.00029
 194       12D+1        0.00769   0.09741  -0.09749   0.00019  -0.01411
 195       12D-1        0.00011   0.09721   0.09787  -0.00002   0.02887
 196       12D+2        0.00015  -0.04354  -0.04486  -0.00001  -0.01722
 197       12D-2       -0.00121  -0.04353   0.04467   0.00035   0.00813
 198       13F 0       -0.02738   0.00066  -0.00074  -0.00759  -0.00001
 199       13F+1        0.00062   0.01343  -0.01298  -0.00019   0.00351
 200       13F-1       -0.00004   0.01341   0.01303  -0.00001  -0.00731
 201       13F+2       -0.00002   0.00640   0.00646   0.00000  -0.00238
 202       13F-2        0.00032   0.00643  -0.00646  -0.00017   0.00111
 203       13F+3        0.00001  -0.00012  -0.00012   0.00000  -0.00003
 204       13F-3        0.01271  -0.00037   0.00040  -0.00138   0.00002
 205       14F 0        0.06817  -0.00166   0.00187   0.01182  -0.00001
 206       14F+1       -0.00119  -0.02896   0.02812   0.00036  -0.00781
 207       14F-1        0.00011  -0.02891  -0.02823   0.00001   0.01620
 208       14F+2        0.00005  -0.01784  -0.01784   0.00000   0.00578
 209       14F-2       -0.00099  -0.01791   0.01783   0.00032  -0.00274
 210       14F+3       -0.00001   0.00017   0.00016   0.00000   0.00005
 211       14F-3       -0.01713   0.00048  -0.00053   0.00261  -0.00002
                         211
     Eigenvalues --     0.00000
   1 1   C  1S         -0.00177
   2        2S         -0.01007
   3        3S         -0.00104
   4        4S         -0.08779
   5        5S         -0.09868
   6        6PX         0.00668
   7        6PY         0.00308
   8        6PZ        -0.00005
   9        7PX        -1.38344
  10        7PY        -0.65323
  11        7PZ         0.00039
  12        8PX       -15.66337
  13        8PY        -7.43259
  14        8PZ        -0.01090
  15        9PX        -7.11920
  16        9PY        -3.38528
  17        9PZ        -0.01075
  18       10D 0       -0.00016
  19       10D+1        0.00142
  20       10D-1        0.00062
  21       10D+2       -0.00927
  22       10D-2       -0.01966
  23       11D 0        0.00227
  24       11D+1        0.18821
  25       11D-1        0.08862
  26       11D+2       -0.17067
  27       11D-2       -0.37028
  28       12D 0       -0.03976
  29       12D+1        1.16019
  30       12D-1        0.55362
  31       12D+2        0.24326
  32       12D-2        0.51409
  33       13F 0       -0.00041
  34       13F+1       -0.03492
  35       13F-1       -0.01683
  36       13F+2       -0.00379
  37       13F-2       -0.00835
  38       13F+3       -0.00005
  39       13F-3        0.00064
  40       14F 0        0.00285
  41       14F+1        0.36566
  42       14F-1        0.17389
  43       14F+2        0.03107
  44       14F-2        0.06989
  45       14F+3       -0.00064
  46       14F-3       -0.00525
  47 2   H  1S          0.01137
  48        2S         -0.93405
  49        3S        -11.12182
  50        4S         -4.79178
  51        5PX        -0.04683
  52        5PY         0.04995
  53        5PZ         0.00436
  54        6PX         0.46679
  55        6PY        -0.55908
  56        6PZ        -0.06951
  57        7PX         3.15466
  58        7PY        -3.18823
  59        7PZ        -0.34089
  60        8D 0        0.00770
  61        8D+1       -0.00517
  62        8D-1        0.00653
  63        8D+2        0.01724
  64        8D-2       -0.02639
  65        9D 0        0.11701
  66        9D+1        0.08302
  67        9D-1       -0.11546
  68        9D+2        0.11389
  69        9D-2        0.51702
  70 3   H  1S          0.01522
  71        2S         -1.25509
  72        3S        -14.71221
  73        4S         -6.32675
  74        5PX         0.03572
  75        5PY        -0.07013
  76        5PZ         0.00578
  77        6PX        -0.43213
  78        6PY         0.74365
  79        6PZ        -0.09238
  80        7PX        -2.21390
  81        7PY         4.59605
  82        7PZ        -0.46070
  83        8D 0        0.01045
  84        8D+1        0.00502
  85        8D-1       -0.00816
  86        8D+2       -0.03245
  87        8D-2        0.00838
  88        9D 0        0.15264
  89        9D+1       -0.09523
  90        9D-1        0.14160
  91        9D+2        0.33350
  92        9D-2        0.36627
  93 4   H  1S         -0.02639
  94        2S          2.20766
  95        3S         25.89035
  96        4S         11.14803
  97        5PX         0.09954
  98        5PY         0.06219
  99        5PZ        -0.01082
 100        6PX        -1.12107
 101        6PY        -0.69368
 102        6PZ         0.16991
 103        7PX        -6.31490
 104        7PY        -3.96698
 105        7PZ         0.82077
 106        8D 0       -0.01881
 107        8D+1        0.01356
 108        8D-1        0.00831
 109        8D+2        0.02175
 110        8D-2        0.03308
 111        9D 0       -0.26402
 112        9D+1       -0.23474
 113        9D-1       -0.14464
 114        9D+2        0.10238
 115        9D-2        0.26577
 116 5   Cl 1S         -0.00007
 117        2S         -0.00109
 118        3S         -0.00277
 119        4S          0.00047
 120        5S          0.02266
 121        6S          0.04586
 122        7PX         0.00270
 123        7PY         0.00130
 124        7PZ         0.00011
 125        8PX         0.05358
 126        8PY         0.02568
 127        8PZ         0.00113
 128        9PX        -0.00905
 129        9PY        -0.00436
 130        9PZ        -0.00046
 131       10PX        -0.38108
 132       10PY        -0.18140
 133       10PZ        -0.02107
 134       11PX         0.22505
 135       11PY         0.10727
 136       11PZ        -0.00895
 137       12D 0        0.00015
 138       12D+1        0.00327
 139       12D-1        0.00156
 140       12D+2       -0.00523
 141       12D-2       -0.01098
 142       13D 0       -0.00039
 143       13D+1       -0.02291
 144       13D-1       -0.01090
 145       13D+2        0.01888
 146       13D-2        0.03960
 147       14D 0        0.00340
 148       14D+1        0.29286
 149       14D-1        0.13941
 150       14D+2       -0.08728
 151       14D-2       -0.18222
 152       15F 0       -0.00014
 153       15F+1        0.01664
 154       15F-1        0.00787
 155       15F+2       -0.00450
 156       15F-2       -0.00936
 157       15F+3        0.00013
 158       15F-3        0.00018
 159       16F 0        0.00036
 160       16F+1       -0.05673
 161       16F-1       -0.02692
 162       16F+2        0.01845
 163       16F-2        0.03835
 164       16F+3       -0.00033
 165       16F-3       -0.00048
 166 6   F  1S         -0.00004
 167        2S         -0.00022
 168        3S         -0.00005
 169        4S          0.00212
 170        5S          0.03510
 171        6PX        -0.00153
 172        6PY        -0.00072
 173        6PZ         0.00000
 174        7PX         0.00553
 175        7PY         0.00264
 176        7PZ        -0.00014
 177        8PX        -0.00121
 178        8PY        -0.00084
 179        8PZ         0.00346
 180        9PX         0.20780
 181        9PY         0.09838
 182        9PZ         0.01513
 183       10D 0        0.00001
 184       10D+1       -0.00199
 185       10D-1       -0.00096
 186       10D+2       -0.00123
 187       10D-2       -0.00258
 188       11D 0        0.00002
 189       11D+1        0.00345
 190       11D-1        0.00170
 191       11D+2        0.00436
 192       11D-2        0.00911
 193       12D 0        0.00056
 194       12D+1        0.02844
 195       12D-1        0.01315
 196       12D+2       -0.00828
 197       12D-2       -0.01725
 198       13F 0        0.00005
 199       13F+1       -0.00725
 200       13F-1       -0.00341
 201       13F+2       -0.00118
 202       13F-2       -0.00243
 203       13F+3       -0.00001
 204       13F-3       -0.00004
 205       14F 0       -0.00003
 206       14F+1        0.01606
 207       14F-1        0.00754
 208       14F+2        0.00280
 209       14F-2        0.00584
 210       14F+3        0.00002
 211       14F-3        0.00005
          Condensed to atoms (all electrons):
              1          2          3          4          5          6
     1  C    7.012159  -0.009253  -0.010255  -0.008250  -0.050894  -0.099837
     2  H   -0.009253   0.547064   0.020416   0.019725  -0.018742   0.004334
     3  H   -0.010255   0.020416   0.547417   0.020067  -0.018778   0.004504
     4  H   -0.008250   0.019725   0.020067   0.546709  -0.018706   0.004174
     5  Cl  -0.050894  -0.018742  -0.018778  -0.018706  17.709251   0.026399
     6  F   -0.099837   0.004334   0.004504   0.004174   0.026399   9.907587
 Mulliken atomic charges:
              1
     1  C   -0.833671
     2  H    0.436455
     3  H    0.436629
     4  H    0.436280
     5  Cl  -0.628530
     6  F   -0.847162
 Sum of Mulliken atomic charges =  -1.00000
 Mulliken charges with hydrogens summed into heavy atoms:
              1
     1  C    0.475693
     5  Cl  -0.628530
     6  F   -0.847162
 Sum of Mulliken charges with hydrogens summed into heavy atoms =  -1.00000
 Electronic spatial extent (au):  <R**2>=            490.3201
 Charge=             -1.0000 electrons
 Dipole moment (field-independent basis, Debye):
    X=              0.0250    Y=              0.0007    Z=              4.0660  Tot=              4.0661
 Quadrupole moment (field-independent basis, Debye-Ang):
   XX=            -28.1816   YY=            -28.1814   ZZ=            -62.8203
   XY=              0.0001   XZ=              0.0380   YZ=             -0.0145
 Traceless Quadrupole moment (field-independent basis, Debye-Ang):
   XX=             11.5462   YY=             11.5464   ZZ=            -23.0925
   XY=              0.0001   XZ=              0.0380   YZ=             -0.0145
 Octapole moment (field-independent basis, Debye-Ang**2):
  XXX=              0.4253  YYY=             -0.9747  ZZZ=             49.6866  XYY=              0.1413
  XXY=              0.9406  XXZ=             -4.2367  XZZ=              0.1919  YZZ=              0.0111
  YYZ=             -4.2356  XYZ=             -0.0006
 Hexadecapole moment (field-independent basis, Debye-Ang**3):
 XXXX=            -41.2764 YYYY=            -41.2683 ZZZZ=           -761.6415 XXXY=             -0.0008
 XXXZ=              0.7045 YYYX=              0.0007 YYYZ=              0.5143 ZZZX=              0.7174
 ZZZY=             -0.1889 XXYY=            -13.7576 XXZZ=           -103.3867 YYZZ=           -103.3864
 XXYZ=             -0.6773 YYXZ=              0.2352 ZZXY=              0.0027
 N-N= 8.498392467378D+01 E-N=-1.604179849441D+03  KE= 5.991954475000D+02
 1\1\GINC-TRAPISTA\SP\RQCISD-FC\Aug-CC-pVTZ\C1H3Cl1F1(1-)\BRUNS\24-Aug-
 2020\0\\# QCISD aug-cc-pvtz nosymm density=current output=wfn\\clch3f_
 ts-wavefunction\\-1,1\C,0,0.000175,0.000029,-0.497709\H,0,0.000019,-1.
 05257,-0.620726\H,0,-0.911312,0.526365,-0.621245\H,0,0.91175,0.526132,
 -0.62157\Cl,0,-0.009445,0.000962,1.644718\F,0,-0.000186,-0.000921,-2.5
 93468\\Version=EM64L-G09RevB.01\HF=-598.6171219\MP2=-599.2912644\MP3=-
 599.3099654\MP4D=-599.3248558\MP4DQ=-599.3104169\MP4SDQ=-599.3197832\Q
 CISD=-599.3191654\RMSD=9.413e-09\Dipole=0.001159,0.0007245,1.5872305\Q
 uadrupole=8.5842855,8.584436,-17.1687215,0.0000516,0.0282295,-0.010747
 8\PG=C01 [X(C1H3Cl1F1)]\\@

 Writing a WFN file to GAUSSIAN.wfn.


 YOU CAN LEAD A BOY TO COLLEGE....
 BUT YOU CANNOT MAKE HIM THINK....
           ELBERT HUBBARD
 Job cpu time:  0 days  3 hours 28 minutes 25.8 seconds.
 File lengths (MBytes):  RWF=  29002 Int=      0 D2E=      0 Chk=      4 Scr=      1
 Normal termination of Gaussian 09 at Mon Aug 24 08:35:19 2020.
