 clch3f_ts-wavefunction
GAUSSIAN            211 MOL ORBITALS    339 PRIMITIVES        6 NUCLEI
  C    1    (CENTRE  1)   0.00033070  0.00005480 -0.94053370  CHARGE =  6.0
  H    2    (CENTRE  2)   0.00003590 -1.98906904 -1.17300214  CHARGE =  1.0
  H    3    (CENTRE  3)  -1.72213010  0.99468570 -1.17398291  CHARGE =  1.0
  H    4    (CENTRE  4)   1.72295780  0.99424539 -1.17459707  CHARGE =  1.0
  Cl   5    (CENTRE  5)   0.00104880  0.00181792  3.10806659  CHARGE = 17.0
  F    6    (CENTRE  6)  -0.00035149 -0.00174044 -4.90094425  CHARGE =  9.0
CENTRE ASSIGNMENTS    1  1  1  1  1  1  1  1  1  1  1  1  1  1  1  1  1  1  1  1
CENTRE ASSIGNMENTS    1  1  1  1  1  1  1  1  1  1  1  1  1  1  1  1  1  1  1  1
CENTRE ASSIGNMENTS    1  1  1  1  1  1  1  1  1  1  1  1  1  1  1  1  1  1  1  1
CENTRE ASSIGNMENTS    1  1  1  1  1  1  1  1  1  1  1  1  2  2  2  2  2  2  2  2
CENTRE ASSIGNMENTS    2  2  2  2  2  2  2  2  2  2  2  2  2  2  2  2  2  2  2  3
CENTRE ASSIGNMENTS    3  3  3  3  3  3  3  3  3  3  3  3  3  3  3  3  3  3  3  3
CENTRE ASSIGNMENTS    3  3  3  3  3  3  4  4  4  4  4  4  4  4  4  4  4  4  4  4
CENTRE ASSIGNMENTS    4  4  4  4  4  4  4  4  4  4  4  4  4  5  5  5  5  5  5  5
CENTRE ASSIGNMENTS    5  5  5  5  5  5  5  5  5  5  5  5  5  5  5  5  5  5  5  5
CENTRE ASSIGNMENTS    5  5  5  5  5  5  5  5  5  5  5  5  5  5  5  5  5  5  5  5
CENTRE ASSIGNMENTS    5  5  5  5  5  5  5  5  5  5  5  5  5  5  5  5  5  5  5  5
CENTRE ASSIGNMENTS    5  5  5  5  5  5  5  5  5  5  5  5  5  5  5  5  5  5  5  5
CENTRE ASSIGNMENTS    5  5  5  5  5  5  5  5  5  5  5  5  5  5  5  5  5  5  5  5
CENTRE ASSIGNMENTS    5  5  5  5  5  5  5  6  6  6  6  6  6  6  6  6  6  6  6  6
CENTRE ASSIGNMENTS    6  6  6  6  6  6  6  6  6  6  6  6  6  6  6  6  6  6  6  6
CENTRE ASSIGNMENTS    6  6  6  6  6  6  6  6  6  6  6  6  6  6  6  6  6  6  6  6
CENTRE ASSIGNMENTS    6  6  6  6  6  6  6  6  6  6  6  6  6  6  6  6  6  6  6
TYPE ASSIGNMENTS      1  1  1  1  1  1  1  1  1  1  1  1  1  1  1  1  2  2  2  3
TYPE ASSIGNMENTS      3  3  4  4  4  2  3  4  2  3  4  2  3  4  5  6  7  8  9 10
TYPE ASSIGNMENTS      5  6  7  8  9 10  5  6  7  8  9 10 11 12 13 17 14 15 18 19
TYPE ASSIGNMENTS     16 20 11 12 13 17 14 15 18 19 16 20  1  1  1  1  1  1  2  3
TYPE ASSIGNMENTS      4  2  3  4  2  3  4  5  6  7  8  9 10  5  6  7  8  9 10  1
TYPE ASSIGNMENTS      1  1  1  1  1  2  3  4  2  3  4  2  3  4  5  6  7  8  9 10
TYPE ASSIGNMENTS      5  6  7  8  9 10  1  1  1  1  1  1  2  3  4  2  3  4  2  3
TYPE ASSIGNMENTS      4  5  6  7  8  9 10  5  6  7  8  9 10  1  1  1  1  1  1  1
TYPE ASSIGNMENTS      1  1  1  1  1  1  1  1  1  1  1  1  1  1  1  1  1  1  1  1
TYPE ASSIGNMENTS      1  1  1  1  2  2  2  2  2  2  3  3  3  3  3  3  4  4  4  4
TYPE ASSIGNMENTS      4  4  2  2  2  2  2  2  3  3  3  3  3  3  4  4  4  4  4  4
TYPE ASSIGNMENTS      2  3  4  2  3  4  2  3  4  5  6  7  8  9 10  5  6  7  8  9
TYPE ASSIGNMENTS     10  5  6  7  8  9 10 11 12 13 17 14 15 18 19 16 20 11 12 13
TYPE ASSIGNMENTS     17 14 15 18 19 16 20  1  1  1  1  1  1  1  1  1  1  1  1  1
TYPE ASSIGNMENTS      1  1  1  2  2  2  3  3  3  4  4  4  2  3  4  2  3  4  2  3
TYPE ASSIGNMENTS      4  5  6  7  8  9 10  5  6  7  8  9 10  5  6  7  8  9 10 11
TYPE ASSIGNMENTS     12 13 17 14 15 18 19 16 20 11 12 13 17 14 15 18 19 16 20
EXPONENTS  0.8236000D+04 0.1235000D+04 0.2808000D+03 0.7927000D+02 0.2559000D+02
EXPONENTS  0.8997000D+01 0.3319000D+01 0.2808000D+03 0.7927000D+02 0.2559000D+02
EXPONENTS  0.8997000D+01 0.3319000D+01 0.3643000D+00 0.9059000D+00 0.1285000D+00
EXPONENTS  0.4402000D-01 0.1871000D+02 0.4133000D+01 0.1200000D+01 0.1871000D+02
EXPONENTS  0.4133000D+01 0.1200000D+01 0.1871000D+02 0.4133000D+01 0.1200000D+01
EXPONENTS  0.3827000D+00 0.3827000D+00 0.3827000D+00 0.1209000D+00 0.1209000D+00
EXPONENTS  0.1209000D+00 0.3569000D-01 0.3569000D-01 0.3569000D-01 0.1097000D+01
EXPONENTS  0.1097000D+01 0.1097000D+01 0.1097000D+01 0.1097000D+01 0.1097000D+01
EXPONENTS  0.3180000D+00 0.3180000D+00 0.3180000D+00 0.3180000D+00 0.3180000D+00
EXPONENTS  0.3180000D+00 0.1000000D+00 0.1000000D+00 0.1000000D+00 0.1000000D+00
EXPONENTS  0.1000000D+00 0.1000000D+00 0.7610000D+00 0.7610000D+00 0.7610000D+00
EXPONENTS  0.7610000D+00 0.7610000D+00 0.7610000D+00 0.7610000D+00 0.7610000D+00
EXPONENTS  0.7610000D+00 0.7610000D+00 0.2680000D+00 0.2680000D+00 0.2680000D+00
EXPONENTS  0.2680000D+00 0.2680000D+00 0.2680000D+00 0.2680000D+00 0.2680000D+00
EXPONENTS  0.2680000D+00 0.2680000D+00 0.3387000D+02 0.5095000D+01 0.1159000D+01
EXPONENTS  0.3258000D+00 0.1027000D+00 0.2526000D-01 0.1407000D+01 0.1407000D+01
EXPONENTS  0.1407000D+01 0.3880000D+00 0.3880000D+00 0.3880000D+00 0.1020000D+00
EXPONENTS  0.1020000D+00 0.1020000D+00 0.1057000D+01 0.1057000D+01 0.1057000D+01
EXPONENTS  0.1057000D+01 0.1057000D+01 0.1057000D+01 0.2470000D+00 0.2470000D+00
EXPONENTS  0.2470000D+00 0.2470000D+00 0.2470000D+00 0.2470000D+00 0.3387000D+02
EXPONENTS  0.5095000D+01 0.1159000D+01 0.3258000D+00 0.1027000D+00 0.2526000D-01
EXPONENTS  0.1407000D+01 0.1407000D+01 0.1407000D+01 0.3880000D+00 0.3880000D+00
EXPONENTS  0.3880000D+00 0.1020000D+00 0.1020000D+00 0.1020000D+00 0.1057000D+01
EXPONENTS  0.1057000D+01 0.1057000D+01 0.1057000D+01 0.1057000D+01 0.1057000D+01
EXPONENTS  0.2470000D+00 0.2470000D+00 0.2470000D+00 0.2470000D+00 0.2470000D+00
EXPONENTS  0.2470000D+00 0.3387000D+02 0.5095000D+01 0.1159000D+01 0.3258000D+00
EXPONENTS  0.1027000D+00 0.2526000D-01 0.1407000D+01 0.1407000D+01 0.1407000D+01
EXPONENTS  0.3880000D+00 0.3880000D+00 0.3880000D+00 0.1020000D+00 0.1020000D+00
EXPONENTS  0.1020000D+00 0.1057000D+01 0.1057000D+01 0.1057000D+01 0.1057000D+01
EXPONENTS  0.1057000D+01 0.1057000D+01 0.2470000D+00 0.2470000D+00 0.2470000D+00
EXPONENTS  0.2470000D+00 0.2470000D+00 0.2470000D+00 0.4561000D+06 0.6833000D+05
EXPONENTS  0.1555000D+05 0.4405000D+04 0.1439000D+04 0.5204000D+03 0.2031000D+03
EXPONENTS  0.8396000D+02 0.3620000D+02 0.1583000D+02 0.6334000D+01 0.4405000D+04
EXPONENTS  0.1439000D+04 0.5204000D+03 0.2031000D+03 0.8396000D+02 0.3620000D+02
EXPONENTS  0.1583000D+02 0.6334000D+01 0.2694000D+01 0.1439000D+04 0.2031000D+03
EXPONENTS  0.8396000D+02 0.3620000D+02 0.1583000D+02 0.6334000D+01 0.2694000D+01
EXPONENTS  0.4313000D+00 0.9768000D+00 0.1625000D+00 0.5910000D-01 0.6633000D+03
EXPONENTS  0.1568000D+03 0.4998000D+02 0.1842000D+02 0.7240000D+01 0.2922000D+01
EXPONENTS  0.6633000D+03 0.1568000D+03 0.4998000D+02 0.1842000D+02 0.7240000D+01
EXPONENTS  0.2922000D+01 0.6633000D+03 0.1568000D+03 0.4998000D+02 0.1842000D+02
EXPONENTS  0.7240000D+01 0.2922000D+01 0.1568000D+03 0.4998000D+02 0.1842000D+02
EXPONENTS  0.7240000D+01 0.2922000D+01 0.3818000D+00 0.1568000D+03 0.4998000D+02
EXPONENTS  0.1842000D+02 0.7240000D+01 0.2922000D+01 0.3818000D+00 0.1568000D+03
EXPONENTS  0.4998000D+02 0.1842000D+02 0.7240000D+01 0.2922000D+01 0.3818000D+00
EXPONENTS  0.1022000D+01 0.1022000D+01 0.1022000D+01 0.1301000D+00 0.1301000D+00
EXPONENTS  0.1301000D+00 0.4190000D-01 0.4190000D-01 0.4190000D-01 0.1046000D+01
EXPONENTS  0.1046000D+01 0.1046000D+01 0.1046000D+01 0.1046000D+01 0.1046000D+01
EXPONENTS  0.3440000D+00 0.3440000D+00 0.3440000D+00 0.3440000D+00 0.3440000D+00
EXPONENTS  0.3440000D+00 0.1350000D+00 0.1350000D+00 0.1350000D+00 0.1350000D+00
EXPONENTS  0.1350000D+00 0.1350000D+00 0.7060000D+00 0.7060000D+00 0.7060000D+00
EXPONENTS  0.7060000D+00 0.7060000D+00 0.7060000D+00 0.7060000D+00 0.7060000D+00
EXPONENTS  0.7060000D+00 0.7060000D+00 0.3120000D+00 0.3120000D+00 0.3120000D+00
EXPONENTS  0.3120000D+00 0.3120000D+00 0.3120000D+00 0.3120000D+00 0.3120000D+00
EXPONENTS  0.3120000D+00 0.3120000D+00 0.1950000D+05 0.2923000D+04 0.6645000D+03
EXPONENTS  0.1875000D+03 0.6062000D+02 0.2142000D+02 0.7950000D+01 0.6645000D+03
EXPONENTS  0.1875000D+03 0.6062000D+02 0.2142000D+02 0.7950000D+01 0.8815000D+00
EXPONENTS  0.2257000D+01 0.3041000D+00 0.9158000D-01 0.4388000D+02 0.9926000D+01
EXPONENTS  0.2930000D+01 0.4388000D+02 0.9926000D+01 0.2930000D+01 0.4388000D+02
EXPONENTS  0.9926000D+01 0.2930000D+01 0.9132000D+00 0.9132000D+00 0.9132000D+00
EXPONENTS  0.2672000D+00 0.2672000D+00 0.2672000D+00 0.7361000D-01 0.7361000D-01
EXPONENTS  0.7361000D-01 0.3107000D+01 0.3107000D+01 0.3107000D+01 0.3107000D+01
EXPONENTS  0.3107000D+01 0.3107000D+01 0.8550000D+00 0.8550000D+00 0.8550000D+00
EXPONENTS  0.8550000D+00 0.8550000D+00 0.8550000D+00 0.2920000D+00 0.2920000D+00
EXPONENTS  0.2920000D+00 0.2920000D+00 0.2920000D+00 0.2920000D+00 0.1917000D+01
EXPONENTS  0.1917000D+01 0.1917000D+01 0.1917000D+01 0.1917000D+01 0.1917000D+01
EXPONENTS  0.1917000D+01 0.1917000D+01 0.1917000D+01 0.1917000D+01 0.7240000D+00
EXPONENTS  0.7240000D+00 0.7240000D+00 0.7240000D+00 0.7240000D+00 0.7240000D+00
EXPONENTS  0.7240000D+00 0.7240000D+00 0.7240000D+00 0.7240000D+00
MO    1     MO 0.0        OCC NO =    2.0000300  ORB. ENERGY =    0.000000
  0.12360951D-07  0.23043302D-07  0.38946320D-07  0.58543583D-07  0.71910306D-07
  0.60689762D-07  0.22820935D-07  0.44815653D-11  0.33496924D-10  0.12518565D-09
  0.34924848D-09  0.46789668D-09 -0.55249873D-09  0.86593523D-09  0.27562414D-08
  0.52526719D-08  0.98251588D-04  0.92117109D-04  0.65592869D-04 -0.51773333D-04
 -0.48540791D-04 -0.34563935D-04  0.61502970D-11  0.57662944D-11  0.41059451D-11
  0.32124706D-03 -0.16928016D-03  0.22097869D-07  0.41017401D-03 -0.21614098D-03
  0.13149660D-07  0.82610981D-05 -0.43530713D-05  0.35356007D-09 -0.30063114D-04
  0.30089223D-04 -0.26108734D-07  0.11375767D-03 -0.45101582D-03  0.23759986D-03
 -0.90415053D-04  0.90411503D-04  0.35502394D-08  0.34356986D-03  0.86458175D-04
 -0.45761818D-04 -0.19158526D-04  0.19160483D-04 -0.19565197D-08  0.72719429D-04
 -0.58555053D-04  0.30812530D-04  0.82050537D-04 -0.43232699D-04 -0.15153921D-07
  0.82074553D-04 -0.43233434D-04 -0.11756367D-04 -0.32822616D-03  0.17293153D-03
  0.11801828D-04  0.43830078D-04 -0.23720246D-04  0.12506675D-04  0.35519561D-08
 -0.23671523D-04  0.12502832D-04 -0.23440521D-04  0.94832259D-04 -0.50022857D-04
  0.23429865D-04  0.89293709D-04  0.18687849D-04  0.33704305D-04  0.49696978D-04
 -0.17128372D-03 -0.52441599D-03  0.56471724D-05  0.40008632D-05 -0.33458904D-04
 -0.11236999D-04  0.73798024D-04 -0.13450348D-03 -0.12623689D-03  0.66795799D-04
 -0.80416427D-04 -0.10364973D-04  0.51421835D-04 -0.19888644D-04 -0.31533190D-04
  0.26934107D-04 -0.41517150D-04 -0.13876267D-03  0.20290225D-04  0.55895555D-05
 -0.25879781D-04  0.25657676D-04  0.54189481D-04 -0.14565224D-04 -0.40064989D-04
 -0.72258857D-04 -0.10654564D-03  0.36721843D-03  0.11243322D-02 -0.12107422D-04
  0.62201747D-04 -0.35707227D-04  0.24130559D-04  0.25126332D-03 -0.14122903D-03
  0.27075290D-03  0.15074357D-03 -0.83668172D-04  0.22278929D-04  0.48546700D-05
 -0.72625408D-04  0.67770738D-04 -0.13163616D-03  0.25677638D-03 -0.15019725D-03
 -0.19383195D-04 -0.36094551D-04  0.55477746D-04 -0.26686920D-04  0.28192486D-04
 -0.13433103D-04  0.21378179D-04  0.38556426D-04  0.56851427D-04 -0.19594705D-03
 -0.59991391D-03  0.64595857D-05  0.35059393D-04  0.15808465D-04 -0.12885969D-04
  0.16847261D-03  0.15664842D-04 -0.14449622D-03  0.11159359D-03 -0.93546994D-05
 -0.11897803D-04 -0.13467068D-04  0.49688375D-04 -0.36221306D-04 -0.57596216D-04
  0.11766719D-03  0.11361758D-03 -0.64562820D-08  0.29599606D-04 -0.29593149D-04
 -0.22640492D-05  0.40299504D-04 -0.36646600D-04 -0.11102174D-06 -0.20770984D-06
 -0.35887653D-06 -0.58178102D-06 -0.88349030D-06 -0.12279684D-05 -0.14599603D-05
 -0.13005834D-05 -0.64589722D-06 -0.10398399D-06 -0.10970925D-08 -0.52002126D-09
 -0.17347039D-07 -0.60450957D-07 -0.21769368D-06 -0.47987864D-06 -0.67551424D-06
  0.32224231D-07  0.88402769D-06  0.52272004D-06 -0.11283103D-10 -0.13666594D-09
 -0.28500240D-09 -0.81733727D-09 -0.42443186D-10  0.35247547D-08  0.91072892D-08
 -0.74201906D-08  0.31159510D-07 -0.33470889D-09 -0.96946455D-09  0.10271843D+02
  0.13530420D+02  0.14926171D+02  0.12397354D+02  0.65833388D+01  0.16985358D+01
 -0.54128121D+01 -0.71299397D+01 -0.78654396D+01 -0.65328634D+01 -0.34691318D+01
 -0.89505413D+00  0.52994355D-03  0.69805963D-03  0.77006904D-03  0.63960263D-03
  0.33964675D-03  0.87630636D-04 -0.40653425D-03  0.39301116D-02  0.55418675D-02
  0.79263366D-02 -0.40137853D-04 -0.72691982D-02  0.21422570D-03 -0.20709962D-02
 -0.29203209D-02 -0.41768314D-02  0.21150886D-04  0.38305483D-02 -0.21170059D-07
  0.20465851D-06  0.28858986D-06  0.41275984D-06 -0.20901577D-08 -0.37853970D-06
  0.67813600D-01 -0.35734801D-01  0.35016734D-05 -0.56934470D-03  0.30002021D-03
 -0.30452955D-07 -0.51275815D-04  0.27020120D-04 -0.25166402D-08 -0.59319453D-05
  0.59768229D-05 -0.44877621D-07  0.21653362D-04 -0.86791163D-03  0.45733653D-03
  0.20820169D-05 -0.20994808D-05  0.17463914D-07 -0.75913792D-05  0.31524541D-03
 -0.16611452D-03 -0.59692570D-06  0.59946916D-06 -0.25434640D-08  0.22119509D-05
 -0.54029791D-04  0.28469798D-04  0.20794622D-05 -0.10901158D-05 -0.62721489D-09
  0.21119039D-05 -0.10931921D-05 -0.16298418D-04 -0.83502905D-05  0.43635394D-05
  0.16300300D-04  0.61895516D-04  0.12985768D-04 -0.68439789D-05 -0.28770816D-08
  0.12979195D-04 -0.68433685D-05  0.33032273D-05 -0.51936499D-04  0.27375305D-04
 -0.32945960D-05 -0.12676505D-04  0.13181531D-07  0.24570396D-07  0.41652295D-07
  0.63067208D-07  0.78847901D-07  0.67823334D-07  0.26011708D-07 -0.28564076D-10
 -0.37813489D-09 -0.13734547D-08 -0.40743275D-08 -0.46948395D-08  0.57025819D-08
  0.44077783D-09 -0.95929536D-08 -0.97725205D-08 -0.25753037D-03 -0.25185908D-03
 -0.16641394D-03  0.13570807D-03  0.13271953D-03  0.87693404D-04 -0.24181312D-07
 -0.23648795D-07 -0.15625759D-07 -0.75915614D-05  0.40040545D-05  0.35741616D-08
 -0.59080110D-04  0.31129926D-04 -0.14403224D-07 -0.17301326D-04  0.91169581D-05
 -0.22358604D-08 -0.33031635D-04  0.33034706D-04 -0.30714332D-08  0.12535475D-03
 -0.11703201D-03  0.61594930D-04  0.16574499D-04 -0.16578596D-04  0.40976530D-08
 -0.62868764D-04  0.90069189D-04 -0.47423929D-04 -0.83917209D-05  0.83978168D-05
 -0.60959015D-08  0.31814852D-04 -0.65545276D-04  0.34518067D-04 -0.63212723D-04
  0.33278037D-04  0.18431138D-07 -0.63400360D-04  0.33296330D-04  0.87854462D-04
  0.25303853D-03 -0.13313044D-03 -0.87909755D-04 -0.33311957D-03  0.22451924D-04
 -0.11820789D-04 -0.70957380D-08  0.22511365D-04 -0.11826526D-04 -0.27891559D-04
 -0.89867138D-04  0.47288894D-04  0.27912846D-04  0.10573639D-03
MO    2     MO 0.0        OCC NO =    2.0000300  ORB. ENERGY =    0.000000
 -0.18460135D-07 -0.34413410D-07 -0.58163352D-07 -0.87430366D-07 -0.10739255D-06
 -0.90635519D-07 -0.34081322D-07 -0.91654637D-11 -0.68506163D-10 -0.25602317D-09
 -0.71426479D-09 -0.95691789D-09  0.11299416D-08 -0.96859570D-09  0.42348570D-08
 -0.53072374D-08  0.51774265D-04  0.48541665D-04  0.34564557D-04  0.98249707D-04
  0.92115345D-04  0.65591613D-04 -0.46835086D-07 -0.43910870D-07 -0.31267155D-07
  0.16928364D-03  0.32124227D-03 -0.17441610D-06  0.21614337D-03  0.41016791D-03
 -0.20860987D-06  0.43531591D-05  0.82606329D-05 -0.42928049D-08  0.56909950D-04
 -0.57151081D-04  0.24113181D-06  0.59787070D-04 -0.23769152D-03 -0.45094016D-03
  0.17177615D-03 -0.17173116D-03 -0.44991667D-07  0.18089806D-03  0.45482713D-04
  0.86695706D-04  0.36364997D-04 -0.36394802D-04  0.29805467D-07  0.38271249D-04
 -0.30872077D-04 -0.58503241D-04  0.43241767D-04  0.82041278D-04  0.17129022D-06
  0.43244115D-04  0.82062948D-04  0.21941651D-04 -0.17296942D-03 -0.32818678D-03
 -0.22455522D-04  0.22890698D-04 -0.12489333D-04 -0.23733706D-04 -0.48763763D-07
 -0.12483433D-04 -0.23686880D-04  0.44637809D-04  0.49951433D-04  0.94887997D-04
 -0.44491518D-04  0.47063749D-04 -0.35474255D-04 -0.63979280D-04 -0.94337411D-04
  0.32513742D-03  0.99548712D-03 -0.10720398D-04  0.21227398D-05  0.63511409D-04
  0.21329052D-04  0.38971863D-04  0.25529945D-03  0.23960045D-03  0.35217159D-04
  0.15263276D-03  0.19647366D-04 -0.97620322D-04  0.37744618D-04  0.59875704D-04
  0.14292650D-04 -0.21757125D-04  0.26341342D-03 -0.38485094D-04 -0.10617870D-04
  0.49102964D-04  0.13531664D-04  0.28590528D-04  0.27620180D-04  0.15526260D-05
  0.28002249D-05  0.41289300D-05 -0.14229867D-04 -0.43585382D-04  0.46989748D-06
 -0.14381186D-06  0.53070198D-05 -0.93731551D-06  0.32033833D-04  0.77801235D-04
 -0.10534507D-04  0.31948369D-04  0.68683063D-04 -0.89938522D-06  0.13033598D-04
 -0.10428779D-04 -0.26048187D-05  0.20343983D-04 -0.33423222D-04 -0.34781864D-04
  0.13316633D-04 -0.11138087D-04 -0.21785465D-05  0.15552260D-04  0.29567439D-04
  0.53635256D-04  0.33920290D-04  0.61176641D-04  0.90204921D-04 -0.31090131D-03
 -0.95190900D-03  0.10251159D-04  0.51381055D-04  0.32436644D-04 -0.20448587D-04
  0.18906407D-03  0.16042525D-03 -0.22932253D-03  0.10627365D-03  0.10781924D-03
 -0.18921038D-04  0.34190643D-05  0.54027764D-04 -0.57446828D-04 -0.12000356D-03
  0.23065565D-03  0.10418536D-03  0.23511381D-04  0.23476640D-04 -0.46988021D-04
 -0.30790062D-04  0.64900431D-05  0.41421074D-04  0.13111026D-06  0.24529331D-06
  0.42381244D-06  0.68704976D-06  0.10433510D-05  0.14501597D-05  0.17241288D-05
  0.15359138D-05  0.76276728D-06  0.12279908D-06  0.12956028D-08  0.61413080D-09
  0.20486375D-07  0.71390917D-07  0.25709025D-06  0.56672346D-06  0.79776373D-06
 -0.38055930D-07 -0.10440124D-05 -0.61731798D-06  0.13239346D-10  0.16036081D-09
  0.33441555D-09  0.95904559D-09  0.49801902D-10 -0.41358697D-08 -0.10686293D-07
  0.87066885D-08 -0.36940287D-07  0.78168067D-09  0.10139802D-08  0.54128117D+01
  0.71299392D+01  0.78654391D+01  0.65328630D+01  0.34691315D+01  0.89505407D+00
  0.10271841D+02  0.13530418D+02  0.14926169D+02  0.12397352D+02  0.65833380D+01
  0.16985356D+01 -0.54273929D-02 -0.71491461D-02 -0.78866272D-02 -0.65504614D-02
 -0.34784768D-02 -0.89746519D-03 -0.21422573D-03  0.20709965D-02  0.29203213D-02
  0.41768319D-02 -0.21150889D-04 -0.38305488D-02 -0.40653398D-03  0.39301090D-02
  0.55418639D-02  0.79263314D-02 -0.40137826D-04 -0.72691935D-02  0.21500582D-06
 -0.20785380D-05 -0.29309555D-05 -0.41920417D-05  0.21227909D-07  0.38444976D-05
  0.35734800D-01  0.67813588D-01 -0.35834196D-04 -0.30001991D-03 -0.56934578D-03
  0.30192540D-06 -0.27020112D-04 -0.51275824D-04  0.26957150D-07  0.10893690D-04
 -0.11352335D-04  0.45864549D-06  0.11202886D-04 -0.45735542D-03 -0.86789065D-03
 -0.38194201D-05  0.39872240D-05 -0.16780392D-06 -0.39250807D-05  0.16612165D-03
  0.31523604D-03  0.11105261D-05 -0.11388120D-05  0.28285915D-07  0.11523342D-05
 -0.28471735D-04 -0.54027618D-04  0.11027922D-05  0.20685872D-05  0.45935034D-08
  0.11057532D-05  0.21012481D-05  0.30948571D-04 -0.44141296D-05 -0.83070096D-05
 -0.30962352D-04  0.32581495D-04  0.68414554D-05  0.12987699D-04  0.27653970D-07
  0.68408799D-05  0.12981033D-04 -0.63356567D-05 -0.27365246D-04 -0.51944130D-04
  0.62526948D-05 -0.67033318D-05 -0.14223813D-07 -0.26513212D-07 -0.44945801D-07
 -0.68054021D-07 -0.85082515D-07 -0.73186220D-07 -0.28068491D-07  0.29527602D-10
  0.39089016D-09  0.14197842D-08  0.42117630D-08  0.48532062D-08 -0.58949418D-08
 -0.52349373D-09  0.99434866D-08  0.10213532D-07 -0.13570704D-03 -0.13271852D-03
 -0.87692736D-04 -0.25753152D-03 -0.25186020D-03 -0.16641468D-03  0.14803095D-06
  0.14477104D-06  0.95656347D-07 -0.40019389D-05 -0.76013330D-05  0.13889463D-09
 -0.31131370D-04 -0.59072573D-04  0.42916485D-07 -0.91169949D-05 -0.17301076D-04
  0.10554672D-07  0.62691143D-04 -0.62749825D-04  0.58681889D-07  0.65969754D-04
 -0.61698231D-04 -0.11694025D-03 -0.31444137D-04  0.31491102D-04 -0.46965021D-07
 -0.33078774D-04  0.47476033D-04  0.90021569D-04  0.15913264D-04 -0.15950652D-04
  0.37387365D-07  0.16735342D-04 -0.34545470D-04 -0.65515950D-04 -0.33345236D-04
 -0.63148549D-04 -0.13915079D-06 -0.33373566D-04 -0.63325725D-04 -0.16658951D-03
  0.13340927D-03  0.25277137D-03  0.16700696D-03 -0.17524092D-03  0.11842209D-04
  0.22431153D-04  0.49994072D-07  0.11851082D-04  0.22487328D-04  0.52877875D-04
 -0.47377710D-04 -0.89780786D-04 -0.53027857D-04  0.55618550D-04
MO    3     MO 0.0        OCC NO =    2.0000210  ORB. ENERGY =    0.000000
 -0.14454395D-01 -0.26945904D-01 -0.45542249D-01 -0.68458495D-01 -0.84088999D-01
 -0.70968149D-01 -0.26685877D-01 -0.38143052D-05 -0.28509568D-04 -0.10654677D-03
 -0.29724889D-03 -0.39823156D-03  0.47023722D-03 -0.87194174D-03 -0.19346013D-02
 -0.82096889D-04  0.20839364D-06  0.19538229D-06  0.13912383D-06  0.50637156D-06
  0.47475553D-06  0.33805422D-06  0.11672831D-02  0.10944021D-02  0.77927946D-03
  0.10488025D-06  0.26499699D-06  0.60721554D-03 -0.66731154D-07 -0.17041752D-06
 -0.37924417D-03  0.82281413D-09  0.20327801D-08  0.46679845D-05 -0.10556004D-03
 -0.10556112D-03  0.21112116D-03 -0.11590226D-08  0.11322252D-06  0.27300327D-06
 -0.24084421D-04 -0.24082464D-04  0.48166885D-04 -0.62663911D-09  0.25287275D-07
  0.65852795D-07  0.11426750D-04  0.11427573D-04 -0.22854322D-04  0.14136084D-09
 -0.12105956D-07 -0.30289638D-07 -0.15864543D-07  0.36269447D-04  0.77246525D-05
  0.39523261D-07 -0.10882955D-03 -0.11539419D-04  0.80703693D-08  0.21207127D-07
 -0.11634538D-04  0.38664127D-07  0.29106622D-08  0.51883601D-04 -0.85675319D-04
  0.82045347D-07 -0.15542530D-03  0.12858110D-03 -0.90777333D-07 -0.22550270D-06
  0.12844485D-03  0.54969217D-07 -0.48292529D-05 -0.87097564D-05 -0.12842531D-04
  0.75281663D-03  0.23596201D-03  0.50652512D-05  0.17373366D-07  0.95867463D-04
  0.28430193D-04  0.24841249D-07  0.19935148D-03 -0.42525413D-05  0.12654260D-07
  0.44036388D-04  0.38736273D-04 -0.73922150D-04  0.54243569D-04  0.19678580D-04
  0.46302247D-07  0.43266890D-07  0.76011982D-04 -0.96549923D-05 -0.12045464D-04
  0.21700456D-04 -0.66904711D-08  0.66476898D-08 -0.34561321D-04 -0.48290882D-05
 -0.87094594D-05 -0.12842093D-04  0.75281862D-03  0.23597987D-03  0.50655020D-05
  0.83013524D-04 -0.47926513D-04  0.28478791D-04  0.17263182D-03 -0.99702166D-04
 -0.41602799D-05  0.38128094D-04 -0.21999839D-04  0.38758623D-04  0.22174033D-04
 -0.41892801D-04  0.19718768D-04 -0.11096240D-03  0.65892684D-04 -0.37955067D-04
 -0.11441745D-04 -0.10241330D-04  0.21683074D-04  0.20471621D-05 -0.29944327D-04
  0.17327572D-04 -0.48289091D-05 -0.87091365D-05 -0.12841617D-04  0.75282229D-03
  0.23597883D-03  0.50654979D-05 -0.83015821D-04 -0.47905649D-04  0.28508751D-04
 -0.17265919D-03 -0.99658779D-04 -0.40975749D-05 -0.38119730D-04 -0.21990218D-04
  0.38772279D-04  0.22178967D-04 -0.41920672D-04  0.19741705D-04  0.11091617D-03
 -0.65905096D-04 -0.37978679D-04 -0.11431600D-04 -0.10240835D-04  0.21672435D-04
 -0.20402012D-05  0.29971991D-04  0.17320621D-04 -0.15460150D+00 -0.28924292D+00
 -0.49974761D+00 -0.81014959D+00 -0.12302899D+01 -0.17099872D+01 -0.20330438D+01
 -0.18111060D+01 -0.89943355D+00 -0.14480119D+00 -0.15277381D-02 -0.72283695D-03
 -0.24112631D-01 -0.84027690D-01 -0.30259732D+00 -0.66703813D+00 -0.93897440D+00
  0.44792139D-01  0.12288111D+01  0.72658829D+00 -0.15531659D-04 -0.18812631D-03
 -0.39231760D-03 -0.11250986D-02 -0.58424802D-04  0.48519706D-02  0.12536560D-01
 -0.10214199D-01  0.46599712D-01 -0.38425415D-03 -0.13193877D-03  0.10528135D-02
  0.13868016D-02  0.15298593D-02  0.12706679D-02  0.67475992D-03  0.17409159D-03
  0.25926879D-02  0.34151765D-02  0.37674742D-02  0.31291823D-02  0.16616826D-02
  0.42872281D-03  0.59415087D+01  0.78263569D+01  0.86336968D+01  0.71709612D+01
  0.38079794D+01  0.98247858D+00 -0.37356697D-07  0.36114051D-06  0.50924582D-06
  0.72835624D-06 -0.36882935D-08 -0.66797137D-06 -0.91978708D-07  0.88919097D-06
  0.12538521D-05  0.17933402D-05 -0.90812222D-08 -0.16446621D-05 -0.21080182D-03
  0.20378964D-02  0.28736466D-02  0.41100749D-02 -0.20812841D-04 -0.37693263D-02
  0.73816793D-05  0.18174358D-04  0.41654802D-01 -0.85900579D-07 -0.21057683D-06
 -0.48397954D-03 -0.17316461D-08 -0.43494828D-08 -0.98433727D-05 -0.71242591D-05
 -0.71243229D-05  0.14248582D-04  0.59878427D-10  0.72995970D-08  0.19356348D-07
 -0.11142769D-03 -0.11142766D-03  0.22285535D-03  0.28222825D-10  0.11887981D-06
  0.29015312D-06 -0.14325961D-04 -0.14325870D-04  0.28651831D-04  0.19894219D-10
  0.15319562D-07  0.37119549D-07  0.12557938D-08 -0.72137633D-05  0.54437855D-05
 -0.97534811D-08  0.21627779D-04 -0.81755783D-05  0.59860998D-08  0.13510958D-07
 -0.81557782D-05 -0.74931547D-08  0.82427223D-08  0.20732190D-05 -0.33741753D-04
  0.11374817D-07 -0.61321873D-05  0.50615535D-04 -0.36102984D-07 -0.87469631D-07
  0.50609724D-04  0.20809584D-08 -0.87949721D-03 -0.16393843D-02 -0.27791216D-02
 -0.42079660D-02 -0.52608843D-02 -0.45253039D-02 -0.17355515D-02 -0.68426335D-06
 -0.90583656D-05 -0.32901632D-04 -0.97602071D-04 -0.11246667D-03  0.13660753D-03
 -0.95968278D-04 -0.15940988D-03  0.12431949D-04  0.66795444D-06  0.65324486D-06
  0.43162650D-06  0.17825136D-05  0.17432594D-05  0.11518452D-05  0.39019344D-02
  0.38160066D-02  0.25213969D-02  0.14972110D-06  0.40430870D-06  0.87920570D-03
  0.41283785D-08  0.81156523D-08  0.21380938D-04  0.15465043D-08  0.44023863D-08
  0.93387074D-05 -0.35647517D-04 -0.35645239D-04  0.71292756D-04  0.80950175D-09
  0.36654302D-07  0.97778495D-07  0.21097348D-04  0.21096406D-04 -0.42193754D-04
 -0.34397167D-09 -0.21915487D-07 -0.57060350D-07  0.18119084D-04  0.18119136D-04
 -0.36238219D-04  0.36650138D-10 -0.18055667D-07 -0.51501852D-07 -0.98366343D-08
 -0.30065541D-05  0.46425827D-04 -0.14371519D-07  0.88795842D-05 -0.69646567D-04
  0.43881422D-07  0.14007801D-06 -0.69630914D-04 -0.91874082D-09  0.58167336D-08
  0.95509040D-06 -0.25396806D-04  0.72459542D-08 -0.27909985D-05  0.38097708D-04
 -0.24696155D-07 -0.74272725D-07  0.38092711D-04  0.26942262D-09
MO    4     MO 0.0        OCC NO =    2.0000123  ORB. ENERGY =    0.000000
  0.26824667D-01  0.50006583D-01  0.84517939D-01  0.12704623D+00  0.15605353D+00
  0.13170368D+00  0.49524022D-01 -0.14573750D-05 -0.10892976D-04 -0.40709537D-04
 -0.11357327D-03 -0.15215687D-03  0.17966889D-03  0.26461753D-02 -0.36110269D-02
 -0.42292347D-04  0.64784748D-06  0.60739819D-06  0.43250370D-06  0.16031660D-05
  0.15030700D-05  0.10702754D-05  0.36697178D-02  0.34405937D-02  0.24499077D-02
  0.22831860D-06  0.56483177D-06  0.13052564D-02 -0.74201162D-07 -0.18843919D-06
 -0.41708073D-03  0.68434466D-09  0.14706235D-08  0.37026217D-05 -0.31918746D-03
 -0.31919006D-03  0.63837751D-03 -0.12555824D-08  0.33946184D-06  0.83469600D-06
  0.95958012D-05  0.96007325D-05 -0.19196534D-04 -0.70837736D-09 -0.92174106D-08
 -0.25263569D-07 -0.17859488D-04 -0.17858701D-04  0.35718189D-04 -0.20332392D-10
  0.18585380D-07  0.47682661D-07  0.10278257D-07 -0.42206945D-04  0.22575006D-04
 -0.54143166D-07  0.12655937D-03 -0.33918732D-04  0.23308395D-07  0.61466271D-07
 -0.33806287D-04 -0.43928505D-07  0.12223602D-07  0.82084710D-04 -0.16373941D-03
  0.13739485D-06 -0.24582514D-03  0.24571632D-03 -0.17406566D-06 -0.42898623D-06
  0.24550190D-03  0.87275578D-07 -0.90318690D-04 -0.16289348D-03 -0.24018634D-03
  0.10230677D-02  0.68431231D-03  0.42682394D-05 -0.12751837D-08 -0.57759568D-04
  0.33549629D-04  0.31304925D-07  0.30466414D-03 -0.43226172D-04  0.27536677D-07
  0.11105778D-03  0.75813444D-04 -0.14238953D-03  0.24264758D-04  0.11812477D-03
  0.67925613D-07  0.11051266D-06  0.14267582D-03 -0.14794456D-04 -0.21042459D-04
  0.35836915D-04 -0.12747694D-07  0.10091129D-07 -0.62803174D-04 -0.90318285D-04
 -0.16289275D-03 -0.24018526D-03  0.10230792D-02  0.68432659D-03  0.42693965D-05
 -0.50020656D-04  0.28906102D-04  0.33526369D-04  0.26383775D-03 -0.15239708D-03
 -0.43077220D-04  0.96158089D-04 -0.55493317D-04  0.75869782D-04 -0.17446188D-04
 -0.10075900D-03  0.11820519D-03 -0.14425557D-03  0.12359336D-03 -0.71097951D-04
 -0.19468902D-04 -0.16335781D-04  0.35804683D-04  0.53699630D-05 -0.54409272D-04
  0.31476851D-04 -0.90318537D-04 -0.16289320D-03 -0.24018593D-03  0.10230826D-02
  0.68433138D-03  0.42691647D-05  0.50039633D-04  0.28893065D-04  0.33508507D-04
 -0.26389236D-03 -0.15233045D-03 -0.42983911D-04 -0.96145850D-04 -0.55469110D-04
  0.75904099D-04 -0.17451702D-04 -0.10079467D-03  0.11824637D-03  0.14418928D-03
 -0.12351556D-03 -0.71117799D-04 -0.19450984D-04 -0.16334651D-04  0.35785634D-04
 -0.53568823D-05  0.54457252D-04  0.31465197D-04  0.91315531D-01  0.17084161D+00
  0.29517642D+00  0.47851565D+00  0.72667193D+00  0.10100056D+01  0.12008193D+01
  0.10697315D+01  0.53125131D+00  0.85526966D-01  0.90236001D-03  0.42753805D-03
  0.14261953D-01  0.49700053D-01  0.17897794D+00  0.39453459D+00  0.55537736D+00
 -0.26493310D-01 -0.72680773D+00 -0.42975686D+00  0.62780995D-05  0.76043116D-04
  0.15857990D-03  0.45477955D-03  0.23616069D-04 -0.19612300D-02 -0.50674416D-02
  0.41287129D-02 -0.28545637D-01  0.14183144D-02 -0.18170828D-03  0.17614291D-02
  0.23202142D-02  0.25595595D-02  0.21259145D-02  0.11289196D-02  0.29126716D-03
  0.43056696D-02  0.56715742D-02  0.62566341D-02  0.51966245D-02  0.27595518D-02
  0.71197879D-03  0.99145847D+01  0.13059827D+02  0.14407034D+02  0.11966170D+02
  0.63543682D+01  0.16394602D+01 -0.59861793D-07  0.57870529D-06  0.81603487D-06
  0.11671457D-05 -0.59102617D-08 -0.10703827D-05 -0.14624289D-06  0.14137821D-05
  0.19935804D-05  0.28513473D-05 -0.14438821D-07 -0.26149544D-05 -0.33686797D-03
  0.32566227D-02  0.45921780D-02  0.65680293D-02 -0.33259576D-04 -0.60235024D-02
  0.12890745D-04  0.31508981D-04  0.72556937D-01 -0.54025590D-07 -0.13442487D-06
 -0.30644436D-03 -0.67123901D-09 -0.18312291D-08 -0.39586784D-05  0.45444289D-03
  0.45444283D-03 -0.90888572D-03 -0.11405020D-09 -0.48498908D-06 -0.11820965D-05
 -0.30967086D-03 -0.30967094D-03  0.61934180D-03  0.66381744D-10  0.33030662D-06
  0.80619332D-06  0.43295798D-05  0.43296840D-05 -0.86592637D-05  0.48836430D-11
 -0.48072124D-08 -0.10681933D-07  0.18056147D-07 -0.14494270D-04 -0.46951350D-04
 -0.41218450D-08  0.43605277D-04  0.70407836D-04 -0.50046597D-07 -0.12246796D-06
  0.70446213D-04 -0.15627590D-07  0.15089420D-07  0.42133713D-05 -0.62583624D-04
  0.21460591D-07 -0.12477105D-04  0.93880974D-04 -0.66728850D-07 -0.16300871D-06
  0.93869899D-04  0.44625829D-08 -0.63570249D-02 -0.11849505D-01 -0.20087551D-01