 clch3f_ts-wavefunction
GAUSSIAN            211 MOL ORBITALS    339 PRIMITIVES        6 NUCLEI
  C    1    (CENTRE  1)   0.00033070  0.00005480 -0.94053370  CHARGE =  6.0
  H    2    (CENTRE  2)   0.00003590 -1.98906904 -1.17300214  CHARGE =  1.0
  H    3    (CENTRE  3)  -1.74102736  0.99468570 -1.17398291  CHARGE =  1.0
  H    4    (CENTRE  4)   1.72295780  0.99424539 -1.17459707  CHARGE =  1.0
  Cl   5    (CENTRE  5)   0.00104880  0.00181792  3.10806659  CHARGE = 17.0
  F    6    (CENTRE  6)  -0.00035149 -0.00174044 -4.90094425  CHARGE =  9.0
CENTRE ASSIGNMENTS    1  1  1  1  1  1  1  1  1  1  1  1  1  1  1  1  1  1  1  1
CENTRE ASSIGNMENTS    1  1  1  1  1  1  1  1  1  1  1  1  1  1  1  1  1  1  1  1
CENTRE ASSIGNMENTS    1  1  1  1  1  1  1  1  1  1  1  1  1  1  1  1  1  1  1  1
CENTRE ASSIGNMENTS    1  1  1  1  1  1  1  1  1  1  1  1  2  2  2  2  2  2  2  2
CENTRE ASSIGNMENTS    2  2  2  2  2  2  2  2  2  2  2  2  2  2  2  2  2  2  2  3
CENTRE ASSIGNMENTS    3  3  3  3  3  3  3  3  3  3  3  3  3  3  3  3  3  3  3  3
CENTRE ASSIGNMENTS    3  3  3  3  3  3  4  4  4  4  4  4  4  4  4  4  4  4  4  4
CENTRE ASSIGNMENTS    4  4  4  4  4  4  4  4  4  4  4  4  4  5  5  5  5  5  5  5
CENTRE ASSIGNMENTS    5  5  5  5  5  5  5  5  5  5  5  5  5  5  5  5  5  5  5  5
CENTRE ASSIGNMENTS    5  5  5  5  5  5  5  5  5  5  5  5  5  5  5  5  5  5  5  5
CENTRE ASSIGNMENTS    5  5  5  5  5  5  5  5  5  5  5  5  5  5  5  5  5  5  5  5
CENTRE ASSIGNMENTS    5  5  5  5  5  5  5  5  5  5  5  5  5  5  5  5  5  5  5  5
CENTRE ASSIGNMENTS    5  5  5  5  5  5  5  5  5  5  5  5  5  5  5  5  5  5  5  5
CENTRE ASSIGNMENTS    5  5  5  5  5  5  5  6  6  6  6  6  6  6  6  6  6  6  6  6
CENTRE ASSIGNMENTS    6  6  6  6  6  6  6  6  6  6  6  6  6  6  6  6  6  6  6  6
CENTRE ASSIGNMENTS    6  6  6  6  6  6  6  6  6  6  6  6  6  6  6  6  6  6  6  6
CENTRE ASSIGNMENTS    6  6  6  6  6  6  6  6  6  6  6  6  6  6  6  6  6  6  6
TYPE ASSIGNMENTS      1  1  1  1  1  1  1  1  1  1  1  1  1  1  1  1  2  2  2  3
TYPE ASSIGNMENTS      3  3  4  4  4  2  3  4  2  3  4  2  3  4  5  6  7  8  9 10
TYPE ASSIGNMENTS      5  6  7  8  9 10  5  6  7  8  9 10 11 12 13 17 14 15 18 19
TYPE ASSIGNMENTS     16 20 11 12 13 17 14 15 18 19 16 20  1  1  1  1  1  1  2  3
TYPE ASSIGNMENTS      4  2  3  4  2  3  4  5  6  7  8  9 10  5  6  7  8  9 10  1
TYPE ASSIGNMENTS      1  1  1  1  1  2  3  4  2  3  4  2  3  4  5  6  7  8  9 10
TYPE ASSIGNMENTS      5  6  7  8  9 10  1  1  1  1  1  1  2  3  4  2  3  4  2  3
TYPE ASSIGNMENTS      4  5  6  7  8  9 10  5  6  7  8  9 10  1  1  1  1  1  1  1
TYPE ASSIGNMENTS      1  1  1  1  1  1  1  1  1  1  1  1  1  1  1  1  1  1  1  1
TYPE ASSIGNMENTS      1  1  1  1  2  2  2  2  2  2  3  3  3  3  3  3  4  4  4  4
TYPE ASSIGNMENTS      4  4  2  2  2  2  2  2  3  3  3  3  3  3  4  4  4  4  4  4
TYPE ASSIGNMENTS      2  3  4  2  3  4  2  3  4  5  6  7  8  9 10  5  6  7  8  9
TYPE ASSIGNMENTS     10  5  6  7  8  9 10 11 12 13 17 14 15 18 19 16 20 11 12 13
TYPE ASSIGNMENTS     17 14 15 18 19 16 20  1  1  1  1  1  1  1  1  1  1  1  1  1
TYPE ASSIGNMENTS      1  1  1  2  2  2  3  3  3  4  4  4  2  3  4  2  3  4  2  3
TYPE ASSIGNMENTS      4  5  6  7  8  9 10  5  6  7  8  9 10  5  6  7  8  9 10 11
TYPE ASSIGNMENTS     12 13 17 14 15 18 19 16 20 11 12 13 17 14 15 18 19 16 20
EXPONENTS  0.8236000D+04 0.1235000D+04 0.2808000D+03 0.7927000D+02 0.2559000D+02
EXPONENTS  0.8997000D+01 0.3319000D+01 0.2808000D+03 0.7927000D+02 0.2559000D+02
EXPONENTS  0.8997000D+01 0.3319000D+01 0.3643000D+00 0.9059000D+00 0.1285000D+00
EXPONENTS  0.4402000D-01 0.1871000D+02 0.4133000D+01 0.1200000D+01 0.1871000D+02
EXPONENTS  0.4133000D+01 0.1200000D+01 0.1871000D+02 0.4133000D+01 0.1200000D+01
EXPONENTS  0.3827000D+00 0.3827000D+00 0.3827000D+00 0.1209000D+00 0.1209000D+00
EXPONENTS  0.1209000D+00 0.3569000D-01 0.3569000D-01 0.3569000D-01 0.1097000D+01
EXPONENTS  0.1097000D+01 0.1097000D+01 0.1097000D+01 0.1097000D+01 0.1097000D+01
EXPONENTS  0.3180000D+00 0.3180000D+00 0.3180000D+00 0.3180000D+00 0.3180000D+00
EXPONENTS  0.3180000D+00 0.1000000D+00 0.1000000D+00 0.1000000D+00 0.1000000D+00
EXPONENTS  0.1000000D+00 0.1000000D+00 0.7610000D+00 0.7610000D+00 0.7610000D+00
EXPONENTS  0.7610000D+00 0.7610000D+00 0.7610000D+00 0.7610000D+00 0.7610000D+00
EXPONENTS  0.7610000D+00 0.7610000D+00 0.2680000D+00 0.2680000D+00 0.2680000D+00
EXPONENTS  0.2680000D+00 0.2680000D+00 0.2680000D+00 0.2680000D+00 0.2680000D+00
EXPONENTS  0.2680000D+00 0.2680000D+00 0.3387000D+02 0.5095000D+01 0.1159000D+01
EXPONENTS  0.3258000D+00 0.1027000D+00 0.2526000D-01 0.1407000D+01 0.1407000D+01
EXPONENTS  0.1407000D+01 0.3880000D+00 0.3880000D+00 0.3880000D+00 0.1020000D+00
EXPONENTS  0.1020000D+00 0.1020000D+00 0.1057000D+01 0.1057000D+01 0.1057000D+01
EXPONENTS  0.1057000D+01 0.1057000D+01 0.1057000D+01 0.2470000D+00 0.2470000D+00
EXPONENTS  0.2470000D+00 0.2470000D+00 0.2470000D+00 0.2470000D+00 0.3387000D+02
EXPONENTS  0.5095000D+01 0.1159000D+01 0.3258000D+00 0.1027000D+00 0.2526000D-01
EXPONENTS  0.1407000D+01 0.1407000D+01 0.1407000D+01 0.3880000D+00 0.3880000D+00
EXPONENTS  0.3880000D+00 0.1020000D+00 0.1020000D+00 0.1020000D+00 0.1057000D+01
EXPONENTS  0.1057000D+01 0.1057000D+01 0.1057000D+01 0.1057000D+01 0.1057000D+01
EXPONENTS  0.2470000D+00 0.2470000D+00 0.2470000D+00 0.2470000D+00 0.2470000D+00
EXPONENTS  0.2470000D+00 0.3387000D+02 0.5095000D+01 0.1159000D+01 0.3258000D+00
EXPONENTS  0.1027000D+00 0.2526000D-01 0.1407000D+01 0.1407000D+01 0.1407000D+01
EXPONENTS  0.3880000D+00 0.3880000D+00 0.3880000D+00 0.1020000D+00 0.1020000D+00
EXPONENTS  0.1020000D+00 0.1057000D+01 0.1057000D+01 0.1057000D+01 0.1057000D+01
EXPONENTS  0.1057000D+01 0.1057000D+01 0.2470000D+00 0.2470000D+00 0.2470000D+00
EXPONENTS  0.2470000D+00 0.2470000D+00 0.2470000D+00 0.4561000D+06 0.6833000D+05
EXPONENTS  0.1555000D+05 0.4405000D+04 0.1439000D+04 0.5204000D+03 0.2031000D+03
EXPONENTS  0.8396000D+02 0.3620000D+02 0.1583000D+02 0.6334000D+01 0.4405000D+04
EXPONENTS  0.1439000D+04 0.5204000D+03 0.2031000D+03 0.8396000D+02 0.3620000D+02
EXPONENTS  0.1583000D+02 0.6334000D+01 0.2694000D+01 0.1439000D+04 0.2031000D+03
EXPONENTS  0.8396000D+02 0.3620000D+02 0.1583000D+02 0.6334000D+01 0.2694000D+01
EXPONENTS  0.4313000D+00 0.9768000D+00 0.1625000D+00 0.5910000D-01 0.6633000D+03
EXPONENTS  0.1568000D+03 0.4998000D+02 0.1842000D+02 0.7240000D+01 0.2922000D+01
EXPONENTS  0.6633000D+03 0.1568000D+03 0.4998000D+02 0.1842000D+02 0.7240000D+01
EXPONENTS  0.2922000D+01 0.6633000D+03 0.1568000D+03 0.4998000D+02 0.1842000D+02
EXPONENTS  0.7240000D+01 0.2922000D+01 0.1568000D+03 0.4998000D+02 0.1842000D+02
EXPONENTS  0.7240000D+01 0.2922000D+01 0.3818000D+00 0.1568000D+03 0.4998000D+02
EXPONENTS  0.1842000D+02 0.7240000D+01 0.2922000D+01 0.3818000D+00 0.1568000D+03
EXPONENTS  0.4998000D+02 0.1842000D+02 0.7240000D+01 0.2922000D+01 0.3818000D+00
EXPONENTS  0.1022000D+01 0.1022000D+01 0.1022000D+01 0.1301000D+00 0.1301000D+00
EXPONENTS  0.1301000D+00 0.4190000D-01 0.4190000D-01 0.4190000D-01 0.1046000D+01
EXPONENTS  0.1046000D+01 0.1046000D+01 0.1046000D+01 0.1046000D+01 0.1046000D+01
EXPONENTS  0.3440000D+00 0.3440000D+00 0.3440000D+00 0.3440000D+00 0.3440000D+00
EXPONENTS  0.3440000D+00 0.1350000D+00 0.1350000D+00 0.1350000D+00 0.1350000D+00
EXPONENTS  0.1350000D+00 0.1350000D+00 0.7060000D+00 0.7060000D+00 0.7060000D+00
EXPONENTS  0.7060000D+00 0.7060000D+00 0.7060000D+00 0.7060000D+00 0.7060000D+00
EXPONENTS  0.7060000D+00 0.7060000D+00 0.3120000D+00 0.3120000D+00 0.3120000D+00
EXPONENTS  0.3120000D+00 0.3120000D+00 0.3120000D+00 0.3120000D+00 0.3120000D+00
EXPONENTS  0.3120000D+00 0.3120000D+00 0.1950000D+05 0.2923000D+04 0.6645000D+03
EXPONENTS  0.1875000D+03 0.6062000D+02 0.2142000D+02 0.7950000D+01 0.6645000D+03
EXPONENTS  0.1875000D+03 0.6062000D+02 0.2142000D+02 0.7950000D+01 0.8815000D+00
EXPONENTS  0.2257000D+01 0.3041000D+00 0.9158000D-01 0.4388000D+02 0.9926000D+01
EXPONENTS  0.2930000D+01 0.4388000D+02 0.9926000D+01 0.2930000D+01 0.4388000D+02
EXPONENTS  0.9926000D+01 0.2930000D+01 0.9132000D+00 0.9132000D+00 0.9132000D+00
EXPONENTS  0.2672000D+00 0.2672000D+00 0.2672000D+00 0.7361000D-01 0.7361000D-01
EXPONENTS  0.7361000D-01 0.3107000D+01 0.3107000D+01 0.3107000D+01 0.3107000D+01
EXPONENTS  0.3107000D+01 0.3107000D+01 0.8550000D+00 0.8550000D+00 0.8550000D+00
EXPONENTS  0.8550000D+00 0.8550000D+00 0.8550000D+00 0.2920000D+00 0.2920000D+00
EXPONENTS  0.2920000D+00 0.2920000D+00 0.2920000D+00 0.2920000D+00 0.1917000D+01
EXPONENTS  0.1917000D+01 0.1917000D+01 0.1917000D+01 0.1917000D+01 0.1917000D+01
EXPONENTS  0.1917000D+01 0.1917000D+01 0.1917000D+01 0.1917000D+01 0.7240000D+00
EXPONENTS  0.7240000D+00 0.7240000D+00 0.7240000D+00 0.7240000D+00 0.7240000D+00
EXPONENTS  0.7240000D+00 0.7240000D+00 0.7240000D+00 0.7240000D+00
MO    1     MO 0.0        OCC NO =    2.0000300  ORB. ENERGY =    0.000000
 -0.14912258D-04 -0.27799454D-04 -0.46984864D-04 -0.70627015D-04 -0.86752637D-04
 -0.73216165D-04 -0.27531190D-04 -0.14286401D-07 -0.10678200D-06 -0.39906870D-06
 -0.11133395D-05 -0.14915680D-05  0.17612637D-05 -0.14112029D-06  0.23678151D-04
  0.55811071D-06  0.75650202D-04  0.70926873D-04  0.50504159D-04 -0.78335971D-04
 -0.73444952D-04 -0.52297181D-04  0.97138218D-07  0.91073254D-07  0.64849583D-07
  0.24380431D-03 -0.25292846D-03  0.35470250D-05  0.31881095D-03 -0.32881764D-03
 -0.15383311D-05  0.65084959D-05 -0.67983496D-05 -0.15441169D-07 -0.45434002D-04
  0.45653387D-04 -0.21938465D-06  0.86252528D-04 -0.35701305D-03  0.36685791D-03
 -0.13736829D-03  0.13854223D-03 -0.11739325D-05  0.26606500D-03  0.65783398D-04
 -0.69428482D-04 -0.29438061D-04  0.29359151D-04  0.78910158D-07  0.56964326D-04
 -0.46017949D-04  0.47121008D-04  0.64986799D-04 -0.66137252D-04 -0.79461241D-06
  0.62678929D-04 -0.66110414D-04 -0.16973140D-04 -0.25763933D-03  0.26452217D-03
  0.19356977D-04  0.30475674D-04 -0.18316617D-04  0.18598176D-04 -0.18886183D-06
 -0.19630520D-04  0.20656330D-04 -0.35674124D-04  0.74580372D-04 -0.76450858D-04
  0.36240710D-04  0.69529922D-04  0.28725813D-04  0.51808187D-04  0.76391141D-04
 -0.26437050D-03 -0.80139935D-03  0.85246934D-05  0.32083225D-05 -0.51216607D-04
 -0.17534632D-04  0.59235614D-04 -0.20417801D-03 -0.19412785D-03  0.52371825D-04
 -0.12262017D-03 -0.15932742D-04  0.78616965D-04 -0.29290642D-04 -0.49326323D-04
  0.22514463D-04 -0.32833083D-04 -0.21356858D-03  0.31101280D-04  0.89812888D-05
 -0.40082569D-04  0.20053206D-04  0.42521188D-04 -0.22228992D-04 -0.39208361D-04
 -0.70713894D-04 -0.10426760D-03  0.33413245D-03  0.10584182D-02 -0.11616349D-04
  0.55972245D-04 -0.33967219D-04  0.21002892D-04  0.22566089D-03 -0.15467784D-03
  0.25420304D-03  0.13215353D-03 -0.98317451D-04  0.21365852D-04  0.24349998D-05
 -0.65787827D-04  0.63352827D-04 -0.13226826D-03  0.25187982D-03 -0.12869143D-03
 -0.21918695D-04 -0.30538779D-04  0.52457474D-04 -0.29835054D-04  0.17730858D-04
 -0.28684705D-04  0.97394846D-05  0.17565562D-04  0.25900410D-04 -0.93567321D-04
 -0.27241110D-03  0.29795802D-05  0.17972514D-04  0.49064974D-05 -0.60774618D-05
  0.99448976D-04 -0.33223752D-04 -0.65450997D-04  0.72371651D-04 -0.41972941D-04
 -0.51843204D-05 -0.12904423D-04  0.29969941D-04 -0.17065518D-04 -0.17713690D-04
  0.39423686D-04  0.75387053D-04 -0.68399911D-05  0.20801678D-04 -0.13961687D-04
  0.73512436D-05  0.35958391D-04 -0.47370755D-04  0.52839200D-04  0.98856505D-04
  0.17080211D-03  0.27689029D-03  0.42048448D-03  0.58443387D-03  0.69484709D-03
  0.61899393D-03  0.30740548D-03  0.49489681D-04  0.52214537D-06  0.24799650D-06
  0.82727482D-05  0.28828871D-04  0.10381743D-03  0.22885261D-03  0.32215061D-03
 -0.15367634D-04 -0.42159002D-03 -0.24928354D-03  0.50937953D-08  0.61698300D-07
  0.12866530D-06  0.36898968D-06  0.19161120D-07 -0.15912625D-05 -0.41115166D-05
  0.33498702D-05 -0.15512242D-04  0.13911605D-05 -0.15971856D-06  0.80868620D+01
  0.10652289D+02  0.11751142D+02  0.97602437D+01  0.51829602D+01  0.13372308D+01
 -0.83313838D+01 -0.10974381D+02 -0.12106461D+02 -0.10055363D+02 -0.53396770D+01
 -0.13776646D+01  0.60998983D-02  0.80349931D-02  0.88638551D-02  0.73621257D-02
  0.39094930D-02  0.10086696D-02 -0.32005533D-03  0.30940890D-02  0.43629884D-02
  0.62402276D-02 -0.31599634D-04 -0.57228773D-02  0.32970044D-03 -0.31873317D-02
 -0.44944704D-02 -0.64282817D-02  0.32551913D-04  0.58953406D-02 -0.26255198D-06
  0.25381836D-05  0.35791038D-05  0.51190653D-05 -0.25922226D-07 -0.46946657D-05
  0.53388339D-01 -0.55001822D-01  0.40928366D-04 -0.44827736D-03  0.46215225D-03
 -0.44956520D-06 -0.40388682D-04  0.41636861D-04 -0.15959925D-07 -0.88216142D-05
  0.96897608D-05 -0.86814662D-06  0.16551798D-04 -0.68314785D-03  0.70317010D-03
  0.30422351D-05 -0.34310568D-05  0.38882164D-06 -0.59173928D-05  0.24792932D-03
 -0.25499642D-03 -0.93979037D-06  0.96767312D-06 -0.27882753D-07  0.17725249D-05
 -0.42585336D-04  0.43680313D-04  0.16339432D-05 -0.16383233D-05 -0.47724458D-07
  0.17220403D-05 -0.14849788D-05 -0.25300808D-04 -0.66238700D-05  0.63999485D-05
  0.25443981D-04  0.48798583D-04  0.10181147D-04 -0.10497170D-04 -0.54939388D-07
  0.10179729D-04 -0.10546068D-04  0.52804654D-05 -0.40723169D-04  0.42037578D-04
 -0.51156472D-05 -0.10062207D-04 -0.17650216D-05 -0.32900033D-05 -0.55772885D-05
 -0.84447691D-05 -0.10557821D-04 -0.90816196D-05 -0.34829966D-05 -0.22813906D-08
 -0.30201340D-07 -0.10969676D-06 -0.32541337D-06 -0.37497319D-06  0.45546079D-06
 -0.24972018D-06 -0.83800089D-06 -0.73996073D-07 -0.20575325D-03 -0.20122218D-03
 -0.13295600D-03  0.21041846D-03  0.20578466D-03  0.13597063D-03  0.32515386D-05
  0.31799338D-05  0.21011167D-05 -0.61599098D-05  0.60418049D-05  0.96384886D-06
 -0.47060614D-04  0.48142076D-04 -0.59615542D-06 -0.13656679D-04  0.14082385D-04
  0.38330998D-07 -0.51072856D-04  0.51096086D-04 -0.23230088D-07  0.98250925D-04
 -0.91795364D-04  0.95819530D-04  0.25583940D-04 -0.25638492D-04  0.54552813D-07
 -0.49214131D-04  0.70918381D-04 -0.73538441D-04 -0.12844415D-04  0.13061600D-04
 -0.21718515D-06  0.24807673D-04 -0.51890836D-04  0.53337654D-04 -0.50369415D-04
  0.51297297D-04  0.28836715D-06 -0.49722120D-04  0.51241223D-04  0.13538026D-03
  0.20083036D-03 -0.20513312D-03 -0.13624537D-03 -0.25932013D-03  0.17885395D-04
 -0.18216432D-04 -0.11275061D-06  0.17691779D-04 -0.18182366D-04 -0.42931486D-04
 -0.71347966D-04  0.72831663D-04  0.43269738D-04  0.82243299D-04
MO    2     MO 0.0        OCC NO =    2.0000300  ORB. ENERGY =    0.000000
  0.45276525D-05  0.84404564D-05  0.14265521D-04  0.21443739D-04  0.26339793D-04
  0.22229856D-04  0.83590063D-05 -0.96826027D-08 -0.72371456D-07 -0.27046866D-06
 -0.75456544D-06 -0.10109097D-05  0.11936958D-05  0.23118513D-05 -0.75183831D-05
 -0.25604767D-06  0.79534373D-04  0.74568530D-04  0.53097235D-04  0.77544845D-04
  0.72703222D-04  0.51769025D-04 -0.28367679D-06 -0.26596503D-06 -0.18938294D-06
  0.25971763D-03  0.25390767D-03  0.92179737D-06  0.33256058D-03  0.32317165D-03
 -0.60528309D-08  0.66250433D-05  0.65209809D-05 -0.11226107D-08  0.45093108D-04
 -0.44396003D-04 -0.69710444D-06  0.91489570D-04 -0.36681059D-03 -0.35515962D-03
  0.13277608D-03 -0.13442907D-03  0.16529879D-05  0.27815312D-03  0.69293122D-04
  0.68863083D-04  0.28499413D-04 -0.28039586D-04 -0.45982618D-06  0.59171590D-04
 -0.47570873D-04 -0.45900343D-04  0.67347910D-04  0.64438709D-04 -0.10885726D-06
  0.64597325D-04  0.64626751D-04  0.18909701D-04 -0.26664106D-03 -0.25794288D-03
 -0.18583129D-04  0.34281941D-04 -0.18954520D-04 -0.17921849D-04 -0.11528513D-06
 -0.20280206D-04 -0.20749997D-04  0.34533517D-04  0.77143766D-04  0.74515544D-04
 -0.34187662D-04  0.71750487D-04 -0.27829269D-04 -0.50191232D-04 -0.74006942D-04
  0.25981361D-03  0.78117773D-03 -0.84025474D-05  0.29178157D-05  0.49965481D-04
  0.17407218D-04  0.62262995D-04  0.20100265D-03  0.18778953D-03  0.54694799D-04
  0.12033614D-03  0.15381407D-04 -0.76564768D-04  0.29478408D-04  0.47086360D-04
  0.23815082D-04 -0.33399207D-04  0.20743401D-03 -0.30620787D-04 -0.84023950D-05
  0.39023182D-04  0.21022793D-04  0.43996782D-04  0.21587218D-04 -0.11196486D-04
 -0.20193324D-04 -0.29775045D-04  0.10431130D-03  0.30613481D-03 -0.34378033D-05
  0.19618048D-04 -0.51740292D-05  0.63923143D-05  0.10760536D-03  0.26530285D-04
  0.72618720D-04  0.76977427D-04  0.38217603D-04  0.58133714D-05  0.14293359D-04
 -0.32505241D-04  0.18211882D-04 -0.22805656D-04  0.48082294D-04 -0.78786994D-04
  0.62171550D-05 -0.21959087D-04  0.15741932D-04  0.60859394D-05  0.35862371D-04
  0.45719046D-04  0.38977724D-04  0.70297931D-04  0.10365426D-03 -0.34942819D-03
 -0.10879019D-02  0.11865522D-04  0.59565802D-04  0.35687425D-04 -0.23961835D-04
  0.23023931D-03  0.15707136D-03 -0.26080310D-03  0.13524795D-03  0.98834749D-04
 -0.21759436D-04 -0.79165479D-06  0.66488241D-04 -0.65696586D-04 -0.13173297D-03
  0.25539003D-03  0.13407656D-03  0.22163366D-04  0.31198964D-04 -0.53362329D-04
 -0.29726213D-04  0.18730963D-04  0.27580824D-04  0.12819118D-05  0.23983201D-05
  0.41437652D-05  0.67175302D-05  0.10201214D-04  0.14178728D-04  0.16857421D-04
  0.15017177D-04  0.74578474D-05  0.12006503D-05  0.12667570D-07  0.66958301D-08
  0.22336168D-06  0.77837074D-06  0.28030391D-05  0.61789508D-05  0.86979685D-05
 -0.41492145D-06 -0.11382802D-04 -0.67305797D-05 -0.10896471D-08 -0.13198287D-07
 -0.27523636D-07 -0.78932997D-07 -0.40988806D-08  0.34039736D-06  0.87952141D-06
 -0.71659265D-06 -0.23964917D-06  0.24246781D-05  0.44171559D-06  0.83313754D+01
  0.10974370D+02  0.12106448D+02  0.10055353D+02  0.53396716D+01  0.13776632D+01
  0.80868543D+01  0.10652279D+02  0.11751131D+02  0.97602344D+01  0.51829553D+01
  0.13372296D+01 -0.44375038D-02 -0.58452306D-02 -0.64482043D-02 -0.53557385D-02
 -0.28440458D-02 -0.73377868D-03 -0.32972809D-03  0.31875990D-02  0.44948474D-02
  0.64288208D-02 -0.32554643D-04 -0.58958350D-02 -0.32001952D-03  0.30937429D-02
  0.43625004D-02  0.62395296D-02 -0.31596099D-04 -0.57222371D-02  0.14314358D-06
 -0.13838200D-05 -0.19513307D-05 -0.27909191D-05  0.14132821D-07  0.25595360D-05
  0.55004515D-01  0.53389375D-01 -0.28777427D-04 -0.46151380D-03 -0.44827532D-03
 -0.35065423D-06 -0.41583429D-04 -0.40389069D-04 -0.55281048D-08  0.86785367D-05
 -0.92308962D-05  0.55235950D-06  0.17307053D-04 -0.70373885D-03 -0.68246676D-03
 -0.29702496D-05  0.31546585D-05 -0.18440896D-06 -0.60434273D-05  0.25579734D-03
  0.24787410D-03  0.87197571D-06 -0.90605941D-06  0.34083704D-07  0.17815987D-05
 -0.43942354D-04 -0.42467469D-04  0.17582271D-05  0.15106010D-05 -0.30987641D-07
  0.18578964D-05  0.19851903D-05  0.24314194D-04 -0.71325778D-05 -0.65169935D-05
 -0.24221231D-04  0.50397836D-04  0.10501583D-04  0.10246874D-04  0.96224429D-07
  0.10481245D-04  0.10092683D-04 -0.51323895D-05 -0.41985993D-04 -0.40833304D-04
  0.48437162D-05 -0.10423970D-04 -0.96109093D-06 -0.17914752D-05 -0.30369495D-05
 -0.45983523D-05 -0.57489531D-05 -0.49451306D-05 -0.18965640D-05  0.29179891D-08
  0.38628712D-07  0.14030651D-06  0.41621662D-06  0.47960559D-06 -0.58255243D-06
 -0.31413458D-08  0.14593541D-05  0.85979752D-06 -0.20990646D-03 -0.20528393D-03
 -0.13563977D-03 -0.20223469D-03 -0.19778111D-03 -0.13068234D-03  0.17714909D-05
  0.17324794D-05  0.11447224D-05 -0.62901109D-05 -0.58160983D-05  0.72042280D-06
 -0.48145243D-04 -0.46396800D-04  0.40554677D-06 -0.14000252D-04 -0.13601073D-04
  0.99482924D-07  0.49228528D-04 -0.48954511D-04 -0.27401721D-06  0.10196249D-03
 -0.94202423D-04 -0.92645693D-04 -0.24741872D-04  0.24520528D-04  0.22134403D-06
 -0.51111253D-04  0.72811422D-04  0.71132748D-04  0.12571266D-04 -0.12383149D-04
 -0.18811729D-06  0.25802433D-04 -0.53292488D-04 -0.51607331D-04 -0.51466720D-04
 -0.49936587D-04  0.73647330D-06 -0.52263759D-04 -0.49061081D-04 -0.13205059D-03
  0.20666392D-03  0.19887084D-03  0.12984117D-03 -0.26995811D-03  0.18294673D-04
  0.17716354D-04 -0.26499242D-06  0.18541322D-04  0.17464941D-04  0.41962595D-04
 -0.73425342D-04 -0.70614003D-04 -0.41167618D-04  0.85634761D-04
MO    3     MO 0.0        OCC NO =    2.0000210  ORB. ENERGY =    0.000000
 -0.14468439D-01 -0.26972084D-01 -0.45586497D-01 -0.68525007D-01 -0.84170698D-01
 -0.71037100D-01 -0.26711805D-01 -0.38216047D-05 -0.28564127D-04 -0.10675067D-03
 -0.29781774D-03 -0.39899366D-03  0.47113711D-03 -0.87126389D-03 -0.19265616D-02
 -0.81452861D-04  0.36483109D-05  0.34205234D-05  0.24356164D-05 -0.13053296D-05
 -0.12238295D-05 -0.87143950D-06  0.11656610D-02  0.10928812D-02  0.77819655D-03
 -0.99660392D-05  0.70629578D-05  0.60459317D-03 -0.27783670D-05  0.36543899D-05
 -0.37827693D-03 -0.33345633D-07 -0.20221771D-07  0.46747181D-05 -0.10385395D-03
 -0.10575898D-03  0.20961293D-03 -0.36887163D-05  0.66182691D-06  0.26823694D-06
 -0.23368056D-04 -0.25840880D-04  0.49208937D-04 -0.48176401D-05  0.20225779D-05
 -0.17420043D-05  0.11721899D-04  0.11247929D-04 -0.22969828D-04 -0.15872358D-06
 -0.11338245D-06  0.32882867D-06  0.11912505D-07  0.36395511D-04  0.75453377D-05
 -0.60987091D-06 -0.10858974D-03 -0.11413533D-04  0.57413339D-06 -0.59678985D-06
 -0.11222480D-04  0.11112557D-05  0.30525276D-06  0.51987359D-04 -0.85486147D-04
 -0.60474496D-06 -0.15601069D-03  0.12807025D-03 -0.31101331D-06  0.48614497D-07
  0.12838819D-03  0.82718166D-06 -0.47697468D-05 -0.86024347D-05 -0.12684285D-04
  0.75913527D-03  0.24298165D-03  0.50626251D-05  0.32757031D-06  0.96392089D-04
  0.28734477D-04 -0.23569101D-08  0.20311517D-03 -0.44544573D-05 -0.16975038D-06
  0.45318929D-04  0.39170594D-04 -0.74375033D-04  0.55279106D-04  0.19095927D-04
  0.42759362D-06  0.12455087D-06  0.76022272D-04 -0.99732370D-05 -0.11772642D-04
  0.21745879D-04 -0.34916269D-06  0.22587214D-06 -0.34685278D-04 -0.57262559D-05
 -0.10327538D-04 -0.15227949D-04  0.73884361D-03  0.22187243D-03  0.48320066D-05
  0.80007261D-04 -0.46410502D-04  0.25826006D-04  0.17296754D-03 -0.96198641D-04
 -0.18985157D-05  0.36692950D-04 -0.20321883D-04  0.37848753D-04  0.23611709D-04
 -0.42200509D-04  0.18588800D-04 -0.10999056D-03  0.65658293D-04 -0.36469829D-04
 -0.11549614D-04 -0.10297009D-04  0.21846623D-04  0.27057402D-05 -0.29464766D-04
  0.16856721D-04 -0.46648466D-05 -0.84132430D-05 -0.12405322D-04  0.75714633D-03
  0.23615217D-03  0.51614928D-05 -0.82727405D-04 -0.48821374D-04  0.28947916D-04
 -0.17660456D-03 -0.99210092D-04 -0.41529923D-05 -0.38742664D-04 -0.21513740D-04
  0.38548419D-04  0.22937604D-04 -0.42171015D-04  0.19233411D-04  0.11181139D-03
 -0.66404570D-04 -0.37408931D-04 -0.10983372D-04 -0.10632085D-04  0.21615457D-04
 -0.18794303D-05  0.30064472D-04  0.17114236D-04 -0.15464879D+00 -0.28933139D+00
 -0.49990046D+00 -0.81039739D+00 -0.12306662D+01 -0.17105102D+01 -0.20336656D+01
 -0.18116600D+01 -0.89970865D+00 -0.14484548D+00 -0.15282054D-02 -0.72305757D-03
 -0.24119990D-01 -0.84053337D-01 -0.30268967D+00 -0.66724172D+00 -0.93926099D+00
  0.44805810D-01  0.12291861D+01  0.72681006D+00 -0.15534291D-04 -0.18815820D-03
 -0.39238410D-03 -0.11252893D-02 -0.58434705D-04  0.48527931D-02  0.12538685D-01
 -0.10215931D-01  0.46615057D-01 -0.38502815D-03 -0.13206415D-03  0.15250329D-02
  0.20088250D-02  0.22160485D-02  0.18406018D-02  0.97741062D-03  0.25217705D-03
  0.17998479D-02  0.23708207D-02  0.26153864D-02  0.21722832D-02  0.11535426D-02
  0.29762003D-03  0.59363660D+01  0.78195828D+01  0.86262238D+01  0.71647543D+01
  0.38046833D+01  0.98162819D+00 -0.67269818D-07  0.65032131D-06  0.91702094D-06
  0.13115825D-05 -0.66416693D-08 -0.12028449D-05 -0.63677373D-07  0.61559187D-06
  0.86804879D-06  0.12415394D-05 -0.62869808D-08 -0.11386087D-05 -0.21055808D-03
  0.20355401D-02  0.28703240D-02  0.41053226D-02 -0.20788776D-04 -0.37649680D-02
  0.10567843D-04  0.13082465D-04  0.41618350D-01 -0.77224988D-07 -0.33644036D-06
 -0.48336500D-03  0.36683418D-09  0.19775092D-07 -0.98320895D-05 -0.76773353D-05
 -0.75286339D-05  0.15205969D-04  0.40403997D-06 -0.60083403D-06 -0.32162032D-07
 -0.11104988D-03 -0.11107939D-03  0.22212928D-03 -0.10582919D-06  0.28329910D-06
  0.48101610D-06 -0.14293506D-04 -0.14287059D-04  0.28580565D-04 -0.43580482D-07
 -0.59254784D-07  0.10837362D-06 -0.30564054D-08 -0.72628789D-05  0.54633771D-05
  0.12078030D-06  0.21680989D-04 -0.82482110D-05 -0.11161108D-06  0.10764734D-06
 -0.81419203D-05 -0.52490090D-06  0.12176913D-07  0.20989411D-05 -0.33605418D-04
 -0.22638368D-07 -0.61266054D-05  0.50408011D-04 -0.13892370D-07 -0.17021790D-06
  0.50408242D-04  0.27374514D-06 -0.87874581D-03 -0.16379837D-02 -0.27767473D-02
 -0.42043709D-02 -0.52563897D-02 -0.45214377D-02 -0.17340687D-02 -0.68139218D-06
 -0.90203566D-05 -0.32763576D-04 -0.97192532D-04 -0.11199476D-03  0.13603432D-03
 -0.95825868D-04 -0.15846724D-03  0.12657232D-04 -0.34183331D-06 -0.33430551D-06
 -0.22088979D-06  0.21341958D-05  0.20871969D-05  0.13790992D-05  0.38994408D-02
  0.38135679D-02  0.25197855D-02 -0.24661060D-06  0.25815693D-06  0.87864772D-03
 -0.18136422D-08  0.11556532D-06  0.21717074D-04 -0.33217442D-07  0.49991293D-07
  0.93483368D-05 -0.35860414D-04 -0.35414287D-04  0.71274701D-04  0.38560442D-06
  0.43957895D-06  0.48915861D-06  0.21148420D-04  0.20944231D-04 -0.42092650D-04
 -0.16696198D-06 -0.17878950D-06 -0.25054899D-06  0.18073849D-04  0.18162378D-04
 -0.36236227D-04  0.52802581D-07  0.10781035D-06 -0.78877392D-07  0.19938948D-07
 -0.33741952D-05  0.46780330D-04  0.72134609D-07  0.92448865D-05 -0.69863162D-04
 -0.13195145D-06  0.87769911D-06 -0.70477829D-04  0.55386419D-06 -0.17756928D-07
  0.10816697D-05 -0.25509134D-04 -0.34046568D-07 -0.28718862D-05  0.38166377D-04
  0.87317351D-07 -0.37312281D-06  0.38361025D-04 -0.13977260D-06
MO    4     MO 0.0        OCC NO =    2.0000123  ORB. ENERGY =    0.000000
  0.26500949D-01  0.49403109D-01  0.83497984D-01  0.12551304D+00  0.15417029D+00
  0.13011429D+00  0.48926371D-01 -0.15156385D-05 -0.11328459D-04 -0.42337037D-04
 -0.11811374D-03 -0.15823985D-03  0.18685176D-03  0.26204287D-02 -0.35921934D-02
 -0.40758086D-04 -0.42332516D-05 -0.39689425D-05 -0.28261235D-05  0.46998514D-05
  0.44064094D-05  0.31376260D-05  0.36687521D-02  0.34396883D-02  0.24492630D-02
 -0.16529001D-04  0.10208665D-04  0.13017923D-02 -0.72135344D-05  0.65014029D-05
 -0.41530927D-03 -0.57562726D-07 -0.62393833D-08  0.37456020D-05 -0.31860385D-03
 -0.32036843D-03  0.63897227D-03 -0.26619499D-05  0.41219884D-06  0.13939693D-05
  0.10597148D-04  0.78504335D-05 -0.18447582D-04 -0.95264642D-05  0.42391173D-05
 -0.33083996D-05 -0.17681386D-04 -0.18022535D-04  0.35703921D-04 -0.10192821D-05
 -0.25951026D-06  0.55241975D-06 -0.21264801D-06 -0.41522124D-04  0.22125841D-04
  0.54155943D-06  0.12466610D-03 -0.33588862D-04  0.96384599D-07 -0.99732908D-07
 -0.32788662D-04  0.15419011D-05  0.51150804D-06  0.81897627D-04 -0.16348797D-03
 -0.91950401D-06 -0.24586006D-03  0.24519811D-03 -0.61502012D-06  0.16717980D-06
  0.24526581D-03  0.19626585D-05 -0.90067232D-04 -0.16243996D-03 -0.23951763D-03
  0.10285316D-02  0.69485516D-03  0.42788994D-05  0.18066488D-06 -0.56342831D-04
  0.34341132D-04 -0.89916707D-06  0.30927755D-03 -0.44088370D-04 -0.10456279D-05
  0.11312085D-03  0.76495677D-04 -0.14362663D-03  0.26378794D-04  0.11724784D-03
 -0.43522657D-06 -0.11988377D-06  0.14272075D-03 -0.15139774D-04 -0.20634207D-04
  0.35773980D-04 -0.88994724D-06  0.54710610D-06 -0.63147512D-04 -0.89485850D-04
 -0.16139142D-03 -0.23797155D-03  0.99746309D-03  0.65422178D-03  0.39408558D-05
 -0.55460190D-04  0.30491001D-04  0.28626973D-04  0.26296930D-03 -0.14746745D-03
 -0.38471121D-04  0.93249194D-04 -0.53141054D-04  0.74210869D-04 -0.18751474D-04
 -0.99597995D-04  0.11834947D-03 -0.13796214D-03  0.12177482D-03 -0.67850159D-04
 -0.19449465D-04 -0.16156662D-04  0.35606127D-04  0.58807406D-05 -0.53215904D-04
  0.30684813D-04 -0.90097990D-04 -0.16249544D-03 -0.23959942D-03  0.10290345D-02
  0.69124385D-03  0.43583996D-05  0.49652431D-04  0.27222998D-04  0.34700352D-04
 -0.27017644D-03 -0.15201324D-03 -0.44168095D-04 -0.97806704D-04 -0.55105931D-04
  0.75930296D-04 -0.16258849D-04 -0.10111719D-03  0.11737604D-03  0.14680340D-03
 -0.12448581D-03 -0.69977091D-04 -0.18667808D-04 -0.16893042D-04  0.35560850D-04
 -0.51130476D-05  0.54757701D-04  0.31257934D-04  0.91249438D-01  0.17071796D+00
  0.29496277D+00  0.47816931D+00  0.72614598D+00  0.10092746D+01  0.11999502D+01
  0.10689573D+01  0.53086680D+00  0.85465063D-01  0.90170690D-03  0.42722867D-03
  0.14251633D-01  0.49664088D-01  0.17884842D+00  0.39424909D+00  0.55497548D+00
 -0.26474139D-01 -0.72628179D+00 -0.42944587D+00  0.62736489D-05  0.75989208D-04
  0.15846748D-03  0.45445715D-03  0.23599327D-04 -0.19598396D-02 -0.50638492D-02
  0.41257860D-02 -0.28525081D-01  0.14160862D-02 -0.18280168D-03 -0.21242766D-02
 -0.27981692D-02 -0.30868187D-02 -0.25638446D-02 -0.13614726D-02 -0.35126705D-03
  0.75466194D-02  0.99406631D-02  0.10966107D-01  0.91082109D-02  0.48367127D-02
  0.12478972D-02  0.99181829D+01  0.13064567D+02  0.14412263D+02  0.11970513D+02
  0.63566743D+01  0.16400552D+01  0.51343702D-07 -0.49635788D-06 -0.69991642D-06
 -0.10010656D-05  0.50692555D-08  0.91807160D-06 -0.25588100D-06  0.24736929D-05
  0.34881652D-05  0.49889989D-05 -0.25263588D-07 -0.45753825D-05 -0.33685016D-03
  0.32564506D-02  0.45919353D-02  0.65676821D-02 -0.33257818D-04 -0.60231840D-02
 -0.14827537D-04  0.55122196D-04  0.72582099D-01  0.17537694D-06 -0.43590935D-06
 -0.30498315D-03  0.21256813D-07  0.12429203D-07 -0.39169654D-05  0.45369272D-03
  0.45392122D-03 -0.90761394D-03  0.31354487D-06 -0.10728770D-06 -0.22997044D-05
 -0.30920537D-03 -0.30924969D-03  0.61845506D-03 -0.12262646D-06  0.15410796D-06
  0.14645809D-05  0.44581105D-05  0.44328716D-05 -0.88909821D-05 -0.75499033D-07
 -0.12055468D-06  0.64167809D-07  0.18138202D-07 -0.14567575D-04 -0.46994613D-04
  0.26620545D-06  0.43672786D-04  0.70547596D-04 -0.32062006D-06  0.29939536D-07
  0.70436243D-04 -0.11622152D-05  0.99445941D-08  0.42640956D-05 -0.62360628D-04
 -0.60535415D-07 -0.12454823D-04  0.93493363D-04  0.30701633D-07 -0.33746425D-06
  0.93588519D-04  0.58616355D-06 -0.63456023D-02 -0.11828214D-01 -0.20051457D-01