 Entering Gaussian System, Link 0=/home/bruns/programas/chemistry/gaussian/g09/g09
 Input=GAUSSIAN.com
 Output=GAUSSIAN.log
 Initial command:
 /home/bruns/programas/chemistry/gaussian/g09/l1.exe /home/bruns/programas/chemistry/gaussian/work/Gau-78740.inp -scrdir=/home/bruns/programas/chemistry/gaussian/work/
 Entering Link 1 = /home/bruns/programas/chemistry/gaussian/g09/l1.exe PID=     78742.
  
 Copyright (c) 1988,1990,1992,1993,1995,1998,2003,2009,2010,
            Gaussian, Inc.  All Rights Reserved.
  
 This is part of the Gaussian(R) 09 program.  It is based on
 the Gaussian(R) 03 system (copyright 2003, Gaussian, Inc.),
 the Gaussian(R) 98 system (copyright 1998, Gaussian, Inc.),
 the Gaussian(R) 94 system (copyright 1995, Gaussian, Inc.),
 the Gaussian 92(TM) system (copyright 1992, Gaussian, Inc.),
 the Gaussian 90(TM) system (copyright 1990, Gaussian, Inc.),
 the Gaussian 88(TM) system (copyright 1988, Gaussian, Inc.),
 the Gaussian 86(TM) system (copyright 1986, Carnegie Mellon
 University), and the Gaussian 82(TM) system (copyright 1983,
 Carnegie Mellon University). Gaussian is a federally registered
 trademark of Gaussian, Inc.
  
 This software contains proprietary and confidential information,
 including trade secrets, belonging to Gaussian, Inc.
  
 This software is provided under written license and may be
 used, copied, transmitted, or stored only in accord with that
 written license.
  
 The following legend is applicable only to US Government
 contracts under FAR:
  
                    RESTRICTED RIGHTS LEGEND
  
 Use, reproduction and disclosure by the US Government is
 subject to restrictions as set forth in subparagraphs (a)
 and (c) of the Commercial Computer Software - Restricted
 Rights clause in FAR 52.227-19.
  
 Gaussian, Inc.
 340 Quinnipiac St., Bldg. 40, Wallingford CT 06492
  
  
 ---------------------------------------------------------------
 Warning -- This program may not be used in any manner that
 competes with the business of Gaussian, Inc. or will provide
 assistance to any competitor of Gaussian, Inc.  The licensee
 of this program is prohibited from giving any competitor of
 Gaussian, Inc. access to this program.  By using this program,
 the user acknowledges that Gaussian, Inc. is engaged in the
 business of creating and licensing software in the field of
 computational chemistry and represents and warrants to the
 licensee that it is not a competitor of Gaussian, Inc. and that
 it will not use this program in any manner prohibited above.
 ---------------------------------------------------------------
  

 Cite this work as:
 Gaussian 09, Revision B.01,
 M. J. Frisch, G. W. Trucks, H. B. Schlegel, G. E. Scuseria, 
 M. A. Robb, J. R. Cheeseman, G. Scalmani, V. Barone, B. Mennucci, 
 G. A. Petersson, H. Nakatsuji, M. Caricato, X. Li, H. P. Hratchian, 
 A. F. Izmaylov, J. Bloino, G. Zheng, J. L. Sonnenberg, M. Hada, 
 M. Ehara, K. Toyota, R. Fukuda, J. Hasegawa, M. Ishida, T. Nakajima, 
 Y. Honda, O. Kitao, H. Nakai, T. Vreven, J. A. Montgomery, Jr., 
 J. E. Peralta, F. Ogliaro, M. Bearpark, J. J. Heyd, E. Brothers, 
 K. N. Kudin, V. N. Staroverov, T. Keith, R. Kobayashi, J. Normand, 
 K. Raghavachari, A. Rendell, J. C. Burant, S. S. Iyengar, J. Tomasi, 
 M. Cossi, N. Rega, J. M. Millam, M. Klene, J. E. Knox, J. B. Cross, 
 V. Bakken, C. Adamo, J. Jaramillo, R. Gomperts, R. E. Stratmann, 
 O. Yazyev, A. J. Austin, R. Cammi, C. Pomelli, J. W. Ochterski, 
 R. L. Martin, K. Morokuma, V. G. Zakrzewski, G. A. Voth, 
 P. Salvador, J. J. Dannenberg, S. Dapprich, A. D. Daniels, 
 O. Farkas, J. B. Foresman, J. V. Ortiz, J. Cioslowski, 
 and D. J. Fox, Gaussian, Inc., Wallingford CT, 2010.
 
 ******************************************
 Gaussian 09:  EM64L-G09RevB.01 12-Aug-2010
                24-Aug-2020 
 ******************************************
 %nproc=8
 Will use up to    8 processors via shared memory.
 %mem=8GB
 -----------------------------------------------------
 # QCISD aug-cc-pvtz nosymm density=current output=wfn
 -----------------------------------------------------
 1/30=1,38=1/1;
 2/12=2,15=1,17=6,18=5,40=1/2;
 3/5=16,6=1,7=10,11=9,16=1,25=1,30=1,71=1/1,2,3;
 4//1;
 5/5=2,38=5/2;
 8/6=4,9=120000,10=1/1,4;
 9/5=8,15=1/13;
 11/28=-7,31=1,32=3,42=3/11;
 10/5=6,13=10,31=1/2;
 6/7=2,8=2,9=2,10=2,22=-1,31=1/1;
 99/5=1,6=1100,9=1/99;
 ----------------------
 clch3f_ts-wavefunction
 ----------------------
 Symbolic Z-matrix:
 Charge = -1 Multiplicity = 1
 C                     0.00018   0.00003  -0.49771 
 H                     0.00002  -1.05257  -0.62073 
 H                    -0.91131   0.53637  -0.62125 
 H                     0.91175   0.52613  -0.62157 
 Cl                    0.00056   0.00096   1.64472 
 F                    -0.00019  -0.00092  -2.59347 
 
                          Input orientation:                          
 ---------------------------------------------------------------------
 Center     Atomic      Atomic             Coordinates (Angstroms)
 Number     Number       Type             X           Y           Z
 ---------------------------------------------------------------------
      1          6           0        0.000175    0.000029   -0.497709
      2          1           0        0.000019   -1.052570   -0.620726
      3          1           0       -0.911312    0.536365   -0.621245
      4          1           0        0.911750    0.526132   -0.621570
      5         17           0        0.000555    0.000962    1.644718
      6          9           0       -0.000186   -0.000921   -2.593468
 ---------------------------------------------------------------------
                    Distance matrix (angstroms):
                    1          2          3          4          5
     1  C    0.000000
     2  H    1.059763   0.000000
     3  H    1.064766   1.831731   0.000000
     4  H    1.059762   1.823062   1.823091   0.000000
     5  Cl   2.142427   2.498433   2.500549   2.498428   0.000000
     6  F    2.095759   2.235548   2.237966   2.235575   4.238186
                    6
     6  F    0.000000
 Symmetry turned off by external request.
 Stoichiometry    CH3ClF(1-)
 Framework group  C1[X(CH3ClF)]
 Deg. of freedom    12
 Full point group                 C1      NOp   1
 Rotational constants (GHZ):    150.3981942      2.2147735      2.2145671
 Standard basis: Aug-CC-pVTZ (5D, 7F)
 Integral buffers will be    131072 words long.
 Raffenetti 1 integral format.
 Two-electron integral symmetry is turned off.
   211 basis functions,   339 primitive gaussians,   244 cartesian basis functions
    18 alpha electrons       18 beta electrons
       nuclear repulsion energy        84.9635067697 Hartrees.
 NAtoms=    6 NActive=    6 NUniq=    6 SFac= 1.00D+00 NAtFMM=   50 NAOKFM=F Big=F
 One-electron integrals computed using PRISM.
 NBasis=   211 RedAO= T  NBF=   211
 NBsUse=   211 1.00D-06 NBFU=   211
 Harris functional with IExCor=  205 diagonalized for initial guess.
 ExpMin= 2.53D-02 ExpMax= 4.56D+05 ExpMxC= 1.44D+03 IAcc=3 IRadAn=         0 AccDes= 0.00D+00
 HarFok:  IExCor=  205 AccDes= 0.00D+00 IRadAn=         0 IDoV= 1
 ScaDFX=  1.000000  1.000000  1.000000  1.000000
 FoFCou: FMM=F IPFlag=           0 FMFlag=      100000 FMFlg1=           0
         NFxFlg=           0 DoJE=T BraDBF=F KetDBF=T FulRan=T
         Omega=  0.000000  0.000000  1.000000  0.000000  0.000000 ICntrl=     500 IOpCl=  0
         NMat0=    1 NMatS0=    1 NMatT0=    0 NMatD0=    1 NMtDS0=    0 NMtDT0=    0
         I1Cent=           4 NGrid=           0.
 Symmetry not used in FoFCou.
 Requested convergence on RMS density matrix=1.00D-08 within 128 cycles.
 Requested convergence on MAX density matrix=1.00D-06.
 Requested convergence on             energy=1.00D-06.
 No special actions if energy rises.
 Keep R1 ints in memory in canonical form, NReq=454274131.
 SCF Done:  E(RHF) =  -598.617098389     A.U. after   12 cycles
             Convg  =    0.9384D-08             -V/T =  2.0001
 ExpMin= 2.53D-02 ExpMax= 4.56D+05 ExpMxC= 1.44D+03 IAcc=3 IRadAn=         5 AccDes= 0.00D+00
 HarFok:  IExCor=  205 AccDes= 0.00D+00 IRadAn=         5 IDoV=-2
 ScaDFX=  1.000000  1.000000  1.000000  1.000000
 DSYEVD returned Info=         101 IAlg= 4 N=    50 NDim=    50 NE2=    21472034 trying DSYEV.
 Range of M.O.s used for correlation:     8   211
 NBasis=   211 NAE=    18 NBE=    18 NFC=     7 NFV=     0
 NROrb=    204 NOA=    11 NOB=    11 NVA=   193 NVB=   193

 **** Warning!!: The largest alpha MO coefficient is  0.35264057D+02

 Semi-Direct transformation.
 ModeAB=           2 MOrb=            11 LenV=    1072528236
 LASXX=     44979418 LTotXX=    44979418 LenRXX=    44979418
 LTotAB=    45631872 MaxLAS=    67073160 LenRXY=    67073160
 NonZer=    89958836 LenScr=   135708672 LnRSAI=           0
 LnScr1=           0 LExtra=           0 Total=    247761250
 MaxDsk=          -1 SrtSym=           F ITran=            4
 JobTyp=0 Pass  1:  I=   1 to  11.
 (rs|ai) integrals will be sorted in core.
 Spin components of T(2) and E(2):
     alpha-alpha T2 =       0.2568355635D-01 E2=     -0.8209067647D-01
     alpha-beta  T2 =       0.1453372581D+00 E2=     -0.5100382890D+00
     beta-beta   T2 =       0.2568355635D-01 E2=     -0.8209067647D-01
 ANorm=    0.1093939839D+01
 E2 =    -0.6742196419D+00 EUMP2 =    -0.59929131803060D+03
 R2 and R3 integrals will be kept in memory, NReq=   900794930.
 Iterations=  50 Convergence= 0.100D-07
 Iteration Nr.   1
 **********************
 DD1Dir will call FoFMem   1 times, MxPair=       132
 NAB=    66 NAA=     0 NBB=     0.
 MP4(R+Q)=  0.14446019D-01
 E3=       -0.18694781D-01        EUMP3=      -0.59931001281D+03
 E4(DQ)=   -0.45453070D-03        UMP4(DQ)=   -0.59931046734D+03
 E4(SDQ)=  -0.98267179D-02        UMP4(SDQ)=  -0.59931983953D+03
 DE(Corr)= -0.67846840     E(Corr)=     -599.29556679    
 NORM(A)=   0.10997367D+01
 Iteration Nr.   2
 **********************
 DD1Dir will call FoFMem   1 times, MxPair=       132
 NAB=    66 NAA=     0 NBB=     0.
 DE(Corr)= -0.70068226     E(CORR)=     -599.31778065     Delta=-2.22D-02
 NORM(A)=   0.11070993D+01
 Iteration Nr.   3
 **********************
 DD1Dir will call FoFMem   1 times, MxPair=       132
 NAB=    66 NAA=     0 NBB=     0.
 DE(Corr)= -0.69828506     E(CORR)=     -599.31538345     Delta= 2.40D-03
 NORM(A)=   0.11110881D+01
 Iteration Nr.   4
 **********************
 DD1Dir will call FoFMem   1 times, MxPair=       132
 NAB=    66 NAA=     0 NBB=     0.
 DE(Corr)= -0.70134698     E(CORR)=     -599.31844537     Delta=-3.06D-03
 NORM(A)=   0.11131920D+01
 Iteration Nr.   5
 **********************
 DD1Dir will call FoFMem   1 times, MxPair=       132
 NAB=    66 NAA=     0 NBB=     0.
 DE(Corr)= -0.70194215     E(CORR)=     -599.31904054     Delta=-5.95D-04
 NORM(A)=   0.11142235D+01
 Iteration Nr.   6
 **********************
 DD1Dir will call FoFMem   1 times, MxPair=       132
 NAB=    66 NAA=     0 NBB=     0.
 DE(Corr)= -0.70208901     E(CORR)=     -599.31918740     Delta=-1.47D-04
 NORM(A)=   0.11145499D+01
 Iteration Nr.   7
 **********************
 DD1Dir will call FoFMem   1 times, MxPair=       132
 NAB=    66 NAA=     0 NBB=     0.
 DE(Corr)= -0.70211878     E(CORR)=     -599.31921717     Delta=-2.98D-05
 NORM(A)=   0.11145810D+01
 Iteration Nr.   8
 **********************
 DD1Dir will call FoFMem   1 times, MxPair=       132
 NAB=    66 NAA=     0 NBB=     0.
 DE(Corr)= -0.70213268     E(CORR)=     -599.31923107     Delta=-1.39D-05
 NORM(A)=   0.11145988D+01
 Iteration Nr.   9
 **********************
 DD1Dir will call FoFMem   1 times, MxPair=       132
 NAB=    66 NAA=     0 NBB=     0.
 DE(Corr)= -0.70210943     E(CORR)=     -599.31920782     Delta= 2.32D-05
 NORM(A)=   0.11146020D+01
 Iteration Nr.  10
 **********************
 DD1Dir will call FoFMem   1 times, MxPair=       132
 NAB=    66 NAA=     0 NBB=     0.
 DE(Corr)= -0.70212875     E(CORR)=     -599.31922714     Delta=-1.93D-05
 NORM(A)=   0.11146022D+01
 Iteration Nr.  11
 **********************
 DD1Dir will call FoFMem   1 times, MxPair=       132
 NAB=    66 NAA=     0 NBB=     0.
 DE(Corr)= -0.70211955     E(CORR)=     -599.31921793     Delta= 9.20D-06
 NORM(A)=   0.11146051D+01
 Iteration Nr.  12
 **********************
 DD1Dir will call FoFMem   1 times, MxPair=       132
 NAB=    66 NAA=     0 NBB=     0.
 DE(Corr)= -0.70212330     E(CORR)=     -599.31922169     Delta=-3.76D-06
 NORM(A)=   0.11146056D+01
 Iteration Nr.  13
 **********************
 DD1Dir will call FoFMem   1 times, MxPair=       132
 NAB=    66 NAA=     0 NBB=     0.
 DE(Corr)= -0.70212387     E(CORR)=     -599.31922226     Delta=-5.68D-07
 NORM(A)=   0.11146063D+01
 Iteration Nr.  14
 **********************
 DD1Dir will call FoFMem   1 times, MxPair=       132
 NAB=    66 NAA=     0 NBB=     0.
 DE(Corr)= -0.70212410     E(CORR)=     -599.31922248     Delta=-2.25D-07
 NORM(A)=   0.11146064D+01
 Iteration Nr.  15
 **********************
 DD1Dir will call FoFMem   1 times, MxPair=       132
 NAB=    66 NAA=     0 NBB=     0.
 DE(Corr)= -0.70212401     E(CORR)=     -599.31922239     Delta= 9.07D-08
 NORM(A)=   0.11146063D+01
 Iteration Nr.  16
 **********************
 DD1Dir will call FoFMem   1 times, MxPair=       132
 NAB=    66 NAA=     0 NBB=     0.
 DE(Corr)= -0.70212421     E(CORR)=     -599.31922260     Delta=-2.03D-07
 NORM(A)=   0.11146062D+01
 Iteration Nr.  17
 **********************
 DD1Dir will call FoFMem   1 times, MxPair=       132
 NAB=    66 NAA=     0 NBB=     0.
 DE(Corr)= -0.70212408     E(CORR)=     -599.31922247     Delta= 1.31D-07
 NORM(A)=   0.11146060D+01
 Iteration Nr.  18
 **********************
 DD1Dir will call FoFMem   1 times, MxPair=       132
 NAB=    66 NAA=     0 NBB=     0.
 DE(Corr)= -0.70212411     E(CORR)=     -599.31922250     Delta=-3.67D-08
 NORM(A)=   0.11146059D+01
 Iteration Nr.  19
 **********************
 DD1Dir will call FoFMem   1 times, MxPair=       132
 NAB=    66 NAA=     0 NBB=     0.
 DE(Corr)= -0.70212406     E(CORR)=     -599.31922245     Delta= 5.27D-08
 NORM(A)=   0.11146058D+01
 Iteration Nr.  20
 **********************
 DD1Dir will call FoFMem   1 times, MxPair=       132
 NAB=    66 NAA=     0 NBB=     0.
 DE(Corr)= -0.70212406     E(CORR)=     -599.31922245     Delta=-2.45D-09
 NORM(A)=   0.11146057D+01
 Iteration Nr.  21
 **********************
 DD1Dir will call FoFMem   1 times, MxPair=       132
 NAB=    66 NAA=     0 NBB=     0.
 DE(Corr)= -0.70212405     E(CORR)=     -599.31922243     Delta= 1.88D-08
 NORM(A)=   0.11146057D+01
 Iteration Nr.  22
 **********************
 DD1Dir will call FoFMem   1 times, MxPair=       132
 NAB=    66 NAA=     0 NBB=     0.
 DE(Corr)= -0.70212404     E(CORR)=     -599.31922243     Delta= 3.82D-09
 NORM(A)=   0.11146057D+01
 Iteration Nr.  23
 **********************
 DD1Dir will call FoFMem   1 times, MxPair=       132
 NAB=    66 NAA=     0 NBB=     0.
 DE(Corr)= -0.70212404     E(CORR)=     -599.31922243     Delta= 4.81D-09
 NORM(A)=   0.11146057D+01
 Iteration Nr.  24
 **********************
 DD1Dir will call FoFMem   1 times, MxPair=       132
 NAB=    66 NAA=     0 NBB=     0.
 DE(Corr)= -0.70212404     E(CORR)=     -599.31922243     Delta=-1.51D-09
 NORM(A)=   0.11146057D+01
 Iteration Nr.  25
 **********************
 DD1Dir will call FoFMem   1 times, MxPair=       132
 NAB=    66 NAA=     0 NBB=     0.
 DE(Corr)= -0.70212403     E(CORR)=     -599.31922242     Delta= 4.75D-09
 NORM(A)=   0.11146057D+01
 Iteration Nr.  26
 **********************
 DD1Dir will call FoFMem   1 times, MxPair=       132
 NAB=    66 NAA=     0 NBB=     0.
 DE(Corr)= -0.70212404     E(CORR)=     -599.31922243     Delta=-4.25D-09
 NORM(A)=   0.11146057D+01
 Iteration Nr.  27
 **********************
 DD1Dir will call FoFMem   1 times, MxPair=       132
 NAB=    66 NAA=     0 NBB=     0.
 DE(Corr)= -0.70212403     E(CORR)=     -599.31922242     Delta= 4.24D-09
 NORM(A)=   0.11146057D+01
 Iteration Nr.  28
 **********************
 DD1Dir will call FoFMem   1 times, MxPair=       132
 NAB=    66 NAA=     0 NBB=     0.
 DE(Corr)= -0.70212404     E(CORR)=     -599.31922243     Delta=-4.42D-09
 NORM(A)=   0.11146057D+01
 Largest amplitude= 6.61D-02

 Z-AMPLITUDE ITERATIONS

 Iteration Nr.   1
 **********************
 DD1Dir will call FoFMem   1 times, MxPair=       132
 NAB=    66 NAA=     0 NBB=     0.
 DE(Z)  -0.68272054D+00          E(Z)=    -0.59929981893D+03
 NORM(A)=   0.11140416D+01
 Iteration Nr.   2
 **********************
 DD1Dir will call FoFMem   1 times, MxPair=       132
 NAB=    66 NAA=     0 NBB=     0.
 DE(Z)  -0.68265856D+00          E(Z)=    -0.59929975694D+03
 NORM(A)=   0.11149324D+01
 Iteration Nr.   3
 **********************
 DD1Dir will call FoFMem   1 times, MxPair=       132
 NAB=    66 NAA=     0 NBB=     0.
 DE(Z)  -0.68275157D+00          E(Z)=    -0.59929984996D+03
 NORM(A)=   0.11122659D+01
 Iteration Nr.   4
 **********************
 DD1Dir will call FoFMem   1 times, MxPair=       132
 NAB=    66 NAA=     0 NBB=     0.
 DE(Z)  -0.68248526D+00          E(Z)=    -0.59929958365D+03
 NORM(A)=   0.11272729D+01
 Iteration Nr.   5
 **********************
 DD1Dir will call FoFMem   1 times, MxPair=       132
 NAB=    66 NAA=     0 NBB=     0.
 DE(Z)  -0.68391164D+00          E(Z)=    -0.59930101003D+03
 NORM(A)=   0.11079439D+01
 Iteration Nr.   6
 **********************
 DD1Dir will call FoFMem   1 times, MxPair=       132
 NAB=    66 NAA=     0 NBB=     0.
 DE(Z)  -0.68205114D+00          E(Z)=    -0.59929914953D+03
 NORM(A)=   0.11079373D+01
 Iteration Nr.   7
 **********************
 DD1Dir will call FoFMem   1 times, MxPair=       132
 NAB=    66 NAA=     0 NBB=     0.
 DE(Z)  -0.68205285D+00          E(Z)=    -0.59929915123D+03
 NORM(A)=   0.11079326D+01
 Iteration Nr.   8
 **********************
 DD1Dir will call FoFMem   1 times, MxPair=       132
 NAB=    66 NAA=     0 NBB=     0.
 DE(Z)  -0.68205212D+00          E(Z)=    -0.59929915051D+03
 NORM(A)=   0.11079301D+01
 Iteration Nr.   9
 **********************
 DD1Dir will call FoFMem   1 times, MxPair=       132
 NAB=    66 NAA=     0 NBB=     0.
 DE(Z)  -0.68205094D+00          E(Z)=    -0.59929914933D+03
 NORM(A)=   0.11079287D+01
 Iteration Nr.  10
 **********************
 DD1Dir will call FoFMem   1 times, MxPair=       132
 NAB=    66 NAA=     0 NBB=     0.
 DE(Z)  -0.68205158D+00          E(Z)=    -0.59929914997D+03
 NORM(A)=   0.11079284D+01
 Iteration Nr.  11
 **********************
 DD1Dir will call FoFMem   1 times, MxPair=       132
 NAB=    66 NAA=     0 NBB=     0.
 DE(Z)  -0.68205150D+00          E(Z)=    -0.59929914988D+03
 NORM(A)=   0.11079283D+01
 Iteration Nr.  12
 **********************
 DD1Dir will call FoFMem   1 times, MxPair=       132
 NAB=    66 NAA=     0 NBB=     0.
 DE(Z)  -0.68205134D+00          E(Z)=    -0.59929914973D+03
 NORM(A)=   0.11079284D+01
 Iteration Nr.  13
 **********************
 DD1Dir will call FoFMem   1 times, MxPair=       132
 NAB=    66 NAA=     0 NBB=     0.
 DE(Z)  -0.68205147D+00          E(Z)=    -0.59929914986D+03
 NORM(A)=   0.11079284D+01
 Iteration Nr.  14
 **********************
 DD1Dir will call FoFMem   1 times, MxPair=       132
 NAB=    66 NAA=     0 NBB=     0.
 DE(Z)  -0.68205147D+00          E(Z)=    -0.59929914986D+03
 NORM(A)=   0.11079284D+01
 Iteration Nr.  15
 **********************
 DD1Dir will call FoFMem   1 times, MxPair=       132
 NAB=    66 NAA=     0 NBB=     0.
 DE(Z)  -0.68205146D+00          E(Z)=    -0.59929914985D+03
 NORM(A)=   0.11079284D+01
 Iteration Nr.  16
 **********************
 DD1Dir will call FoFMem   1 times, MxPair=       132
 NAB=    66 NAA=     0 NBB=     0.
 DE(Z)  -0.68205149D+00          E(Z)=    -0.59929914988D+03
 NORM(A)=   0.11079284D+01
 Iteration Nr.  17
 **********************
 DD1Dir will call FoFMem   1 times, MxPair=       132
 NAB=    66 NAA=     0 NBB=     0.
 DE(Z)  -0.68205145D+00          E(Z)=    -0.59929914984D+03
 NORM(A)=   0.11079284D+01
 Iteration Nr.  18
 **********************
 DD1Dir will call FoFMem   1 times, MxPair=       132
 NAB=    66 NAA=     0 NBB=     0.
 DE(Z)  -0.68205147D+00          E(Z)=    -0.59929914986D+03
 NORM(A)=   0.11079284D+01
 Iteration Nr.  19
 **********************
 DD1Dir will call FoFMem   1 times, MxPair=       132
 NAB=    66 NAA=     0 NBB=     0.
 DE(Z)  -0.68205149D+00          E(Z)=    -0.59929914987D+03
 NORM(A)=   0.11079284D+01
 Iteration Nr.  20
 **********************
 DD1Dir will call FoFMem   1 times, MxPair=       132
 NAB=    66 NAA=     0 NBB=     0.
 DE(Z)  -0.68205148D+00          E(Z)=    -0.59929914986D+03
 NORM(A)=   0.11079284D+01
 Iteration Nr.  21
 **********************
 DD1Dir will call FoFMem   1 times, MxPair=       132
 NAB=    66 NAA=     0 NBB=     0.
 DE(Z)  -0.68205147D+00          E(Z)=    -0.59929914986D+03
 NORM(A)=   0.11079284D+01
 Iteration Nr.  22
 **********************
 DD1Dir will call FoFMem   1 times, MxPair=       132
 NAB=    66 NAA=     0 NBB=     0.
 DE(Z)  -0.68205147D+00          E(Z)=    -0.59929914986D+03
 NORM(A)=   0.11079284D+01
 Discarding MO integrals.
          Differentiating once with respect to electric field.
                with respect to dipole field.
          Electric field/nuclear overlap derivatives assumed to be zero.
          Keep R1 ints in memory in canonical form, NReq=448662239.
          There are     1 degrees of freedom in the 1st order CPHF.  IDoFFX=0.
 LinEq1:  Iter=  0 NonCon=     1 RMS=3.11D-03 Max=1.20D-01
 AX will form     1 AO Fock derivatives at one time.
 LinEq1:  Iter=  1 NonCon=     1 RMS=6.95D-04 Max=9.28D-03
 LinEq1:  Iter=  2 NonCon=     1 RMS=2.30D-04 Max=5.73D-03
 LinEq1:  Iter=  3 NonCon=     1 RMS=9.49D-05 Max=1.42D-03
 LinEq1:  Iter=  4 NonCon=     1 RMS=3.84D-05 Max=4.11D-04
 LinEq1:  Iter=  5 NonCon=     1 RMS=1.06D-05 Max=2.27D-04
 LinEq1:  Iter=  6 NonCon=     1 RMS=2.43D-06 Max=4.26D-05
 LinEq1:  Iter=  7 NonCon=     1 RMS=6.07D-07 Max=9.15D-06
 LinEq1:  Iter=  8 NonCon=     1 RMS=1.50D-07 Max=1.80D-06
 LinEq1:  Iter=  9 NonCon=     1 RMS=3.04D-08 Max=7.50D-07
 LinEq1:  Iter= 10 NonCon=     1 RMS=6.56D-09 Max=8.73D-08
 LinEq1:  Iter= 11 NonCon=     1 RMS=1.06D-09 Max=1.16D-08
 LinEq1:  Iter= 12 NonCon=     1 RMS=1.69D-10 Max=2.85D-09
 LinEq1:  Iter= 13 NonCon=     0 RMS=2.41D-11 Max=3.22D-10
 Linear equations converged to 1.000D-10 1.000D-09 after    13 iterations.
 End of Minotr Frequency-dependent properties file   721 does not exist.
 End of Minotr Frequency-dependent properties file   722 does not exist.

 **********************************************************************

            Population analysis using the QCI/CC density.

 **********************************************************************

     Natural Orbital Coefficients:
                           1         2         3         4         5
     Eigenvalues --     2.00003   2.00003   2.00002   2.00001   2.00001
   1 1   C  1S         -0.00004  -0.00003  -0.04331   0.07976   0.97624
   2        2S          0.00000   0.00000   0.00131   0.00051  -0.01332
   3        3S          0.00000  -0.00001  -0.00132   0.00398   0.03983
   4        4S          0.00015   0.00009  -0.01262  -0.02354   0.00317
   5        5S          0.00001   0.00001  -0.00119  -0.00060  -0.00059
   6        6PX         0.00005   0.00000   0.00000   0.00000  -0.00002
   7        6PY         0.00000   0.00005   0.00000   0.00000   0.00001
   8        6PZ         0.00000   0.00000   0.00053   0.00168   0.00087
   9        7PX         0.00083  -0.00001  -0.00002  -0.00002   0.00005
  10        7PY         0.00001   0.00085   0.00001   0.00001   0.00001
  11        7PZ         0.00000   0.00000   0.00141   0.00304  -0.00090
  12        8PX         0.00452  -0.00005  -0.00004  -0.00007   0.00006
  13        8PY         0.00005   0.00457  -0.00002  -0.00001   0.00002
  14        8PZ        -0.00001  -0.00001  -0.00373  -0.00409  -0.00309
  15        9PX         0.00043   0.00000   0.00000   0.00000   0.00000
  16        9PY         0.00001   0.00042   0.00000   0.00000   0.00000
  17        9PZ         0.00000   0.00000   0.00021   0.00017  -0.00049
  18       10D 0        0.00000   0.00000   0.00011   0.00033  -0.00057
  19       10D+1       -0.00015   0.00000   0.00000   0.00000   0.00000
  20       10D-1        0.00000  -0.00015   0.00000   0.00000   0.00000
  21       10D+2        0.00000   0.00004   0.00000   0.00000  -0.00001
  22       10D-2        0.00004   0.00000   0.00000   0.00000   0.00000
  23       11D 0       -0.00001  -0.00001   0.00022  -0.00008  -0.00030
  24       11D+1        0.00025   0.00000   0.00000   0.00001  -0.00001
  25       11D-1        0.00000   0.00025   0.00000   0.00000   0.00000
  26       11D+2        0.00002   0.00101   0.00001   0.00002   0.00001
  27       11D-2        0.00100  -0.00002  -0.00001  -0.00001   0.00003
  28       12D 0        0.00001   0.00003  -0.00078   0.00122  -0.00235
  29       12D+1       -0.00130   0.00002  -0.00001  -0.00001   0.00001
  30       12D-1       -0.00001  -0.00131  -0.00001  -0.00001   0.00001
  31       12D+2        0.00002   0.00162  -0.00001   0.00001   0.00001
  32       12D-2        0.00161  -0.00004  -0.00001  -0.00001   0.00002
  33       13F 0        0.00000   0.00000   0.00001   0.00003   0.00019
  34       13F+1       -0.00019   0.00000   0.00000   0.00000   0.00000
  35       13F-1        0.00000  -0.00019   0.00000   0.00000   0.00000
  36       13F+2        0.00000   0.00002   0.00000   0.00000   0.00000
  37       13F-2        0.00002   0.00000   0.00000   0.00000   0.00000
  38       13F+3        0.00000   0.00000   0.00000   0.00000   0.00001
  39       13F-3        0.00000   0.00000  -0.00006   0.00007   0.00090
  40       14F 0        0.00000   0.00000  -0.00112  -0.00215  -0.00019
  41       14F+1        0.00057  -0.00001   0.00000   0.00000  -0.00001
  42       14F-1        0.00000   0.00058   0.00000   0.00000   0.00000
  43       14F+2        0.00001   0.00034   0.00000   0.00000   0.00000
  44       14F-2        0.00034  -0.00001   0.00000   0.00000  -0.00001
  45       14F+3       -0.00001   0.00001  -0.00001  -0.00001  -0.00002
  46       14F-3        0.00002   0.00002  -0.00086  -0.00136  -0.00189
  47 2   H  1S          0.00000  -0.00016  -0.00002  -0.00035  -0.00135
  48        2S         -0.00001   0.00117   0.00245   0.00334  -0.00070
  49        3S          0.00010   0.00870   0.00180   0.00531  -0.00436
  50        4S          0.00000  -0.00027   0.00011   0.00010  -0.00014
  51        5PX         0.00000   0.00000   0.00000   0.00000   0.00000
  52        5PY         0.00000   0.00003   0.00004  -0.00003  -0.00048
  53        5PZ         0.00000   0.00001   0.00001   0.00002  -0.00009
  54        6PX         0.00018   0.00000  -0.00001  -0.00001   0.00000
  55        6PY         0.00001   0.00066   0.00046   0.00071  -0.00081
  56        6PZ         0.00001   0.00062  -0.00001  -0.00010   0.00024
  57        7PX         0.00091  -0.00002  -0.00001  -0.00001   0.00002
  58        7PY         0.00002   0.00209   0.00053   0.00135  -0.00102
  59        7PZ         0.00001   0.00027   0.00047   0.00092  -0.00005
  60        8D 0        0.00000   0.00004   0.00001   0.00006   0.00014
  61        8D+1       -0.00001   0.00000   0.00000   0.00000   0.00000
  62        8D-1        0.00000   0.00009   0.00002   0.00005  -0.00004
  63        8D+2        0.00000  -0.00005  -0.00004  -0.00005   0.00028
  64        8D-2        0.00001   0.00000   0.00000   0.00000   0.00000
  65        9D 0        0.00000   0.00038   0.00015   0.00025   0.00062
  66        9D+1        0.00025   0.00000   0.00000   0.00000   0.00000
  67        9D-1        0.00000   0.00013  -0.00014  -0.00025   0.00001
  68        9D+2        0.00000  -0.00013   0.00001   0.00002  -0.00010
  69        9D-2        0.00012   0.00000   0.00000   0.00000   0.00001
  70 3   H  1S         -0.00014   0.00008  -0.00002  -0.00035  -0.00132
  71        2S          0.00097  -0.00064   0.00242   0.00328  -0.00061
  72        3S          0.00736  -0.00444   0.00176   0.00516  -0.00424
  73        4S         -0.00023   0.00014   0.00011   0.00009  -0.00013
  74        5PX         0.00002  -0.00001   0.00004  -0.00002  -0.00041
  75        5PY        -0.00001   0.00001  -0.00002   0.00001   0.00024
  76        5PZ         0.00001  -0.00001   0.00001   0.00001  -0.00009
  77        6PX         0.00053  -0.00022   0.00039   0.00059  -0.00066
  78        6PY        -0.00020   0.00031  -0.00024  -0.00036   0.00038
  79        6PZ         0.00053  -0.00031  -0.00001  -0.00009   0.00023
  80        7PX         0.00176  -0.00054   0.00044   0.00114  -0.00084
  81        7PY        -0.00051   0.00123  -0.00027  -0.00067   0.00052
  82        7PZ         0.00023  -0.00013   0.00047   0.00091  -0.00006
  83        8D 0        0.00003  -0.00002   0.00001   0.00007   0.00014
  84        8D+1        0.00007  -0.00005   0.00002   0.00004  -0.00003
  85        8D-1       -0.00005   0.00001  -0.00001  -0.00002   0.00002
  86        8D+2        0.00002  -0.00001   0.00002   0.00003  -0.00014
  87        8D-2       -0.00003   0.00003  -0.00004  -0.00005   0.00025
  88        9D 0        0.00033  -0.00021   0.00015   0.00025   0.00061
  89        9D+1        0.00016   0.00005  -0.00012  -0.00022   0.00001
  90        9D-1        0.00005   0.00021   0.00007   0.00013  -0.00001
  91        9D+2        0.00010   0.00005  -0.00001  -0.00001   0.00006
  92        9D-2       -0.00007   0.00011   0.00001   0.00002  -0.00009
  93 4   H  1S          0.00014   0.00008  -0.00002  -0.00035  -0.00135
  94        2S         -0.00105  -0.00061   0.00247   0.00334  -0.00076
  95        3S         -0.00754  -0.00426   0.00189   0.00536  -0.00445
  96        4S          0.00023   0.00013   0.00011   0.00009  -0.00013
  97        5PX         0.00003   0.00001  -0.00004   0.00002   0.00042
  98        5PY         0.00001   0.00001  -0.00002   0.00001   0.00024
  99        5PZ        -0.00001  -0.00001   0.00001   0.00002  -0.00009
 100        6PX         0.00054   0.00020  -0.00040  -0.00061   0.00072
 101        6PY         0.00020   0.00032  -0.00023  -0.00035   0.00041
 102        6PZ        -0.00054  -0.00030  -0.00001  -0.00010   0.00023
 103        7PX         0.00180   0.00049  -0.00048  -0.00119   0.00090
 104        7PY         0.00052   0.00122  -0.00028  -0.00068   0.00052
 105        7PZ        -0.00024  -0.00013   0.00048   0.00093  -0.00007
 106        8D 0       -0.00003  -0.00002   0.00001   0.00006   0.00014
 107        8D+1        0.00007   0.00005  -0.00002  -0.00004   0.00003
 108        8D-1        0.00005   0.00001  -0.00001  -0.00002   0.00002
 109        8D+2       -0.00003   0.00000   0.00002   0.00003  -0.00014
 110        8D-2       -0.00003  -0.00003   0.00004   0.00005  -0.00024
 111        9D 0       -0.00034  -0.00020   0.00015   0.00025   0.00063
 112        9D+1        0.00016  -0.00006   0.00012   0.00022  -0.00001
 113        9D-1       -0.00005   0.00022   0.00007   0.00013   0.00000
 114        9D+2       -0.00010   0.00006   0.00000  -0.00001   0.00005
 115        9D-2       -0.00007  -0.00011  -0.00001  -0.00002   0.00008
 116 5   Cl 1S          0.00006   0.00001  -0.25063   0.14795  -0.02274
 117        2S         -0.00020  -0.00003   0.84603  -0.50011   0.07796
 118        3S          0.00001   0.00000  -0.02309   0.00933  -0.00238
 119        4S         -0.00002   0.00000   0.06656  -0.04075   0.00640
 120        5S          0.00000  -0.00002  -0.00211   0.00777   0.00350
 121        6S         -0.00001  -0.00001  -0.00155  -0.00213   0.00300
 122        7PX         0.97881  -0.01033   0.00015  -0.00013   0.00006
 123        7PY         0.01033   0.97881   0.00026   0.00038   0.00001
 124        7PZ         0.00003  -0.00045   0.50066   0.83604  -0.04669
 125        8PX        -0.01915   0.00020   0.00000   0.00000   0.00000
 126        8PY        -0.00020  -0.01915   0.00000  -0.00001   0.00000
 127        8PZ         0.00000   0.00001  -0.00878  -0.01404   0.00010
 128        9PX         0.05233  -0.00055   0.00001  -0.00001   0.00000
 129        9PY         0.00055   0.05233   0.00001   0.00002   0.00000
 130        9PZ         0.00000  -0.00002   0.02842   0.04955  -0.00265
 131       10PX        -0.00578   0.00006   0.00000   0.00000   0.00000
 132       10PY        -0.00006  -0.00577   0.00000   0.00000  -0.00001
 133       10PZ         0.00000   0.00001  -0.00434  -0.00274  -0.00346
 134       11PX        -0.00215   0.00002   0.00000   0.00000   0.00000
 135       11PY        -0.00002  -0.00214   0.00000   0.00000   0.00000
 136       11PZ         0.00000   0.00000  -0.00036  -0.00015  -0.00053
 137       12D 0        0.00000   0.00000   0.00001  -0.00051  -0.00017
 138       12D+1       -0.00032   0.00000   0.00000   0.00000   0.00000
 139       12D-1        0.00000  -0.00032   0.00000   0.00000   0.00000
 140       12D+2        0.00000   0.00001   0.00000   0.00000   0.00000
 141       12D-2        0.00001   0.00000   0.00000   0.00000   0.00000
 142       13D 0        0.00000   0.00000   0.00087   0.00243   0.00042
 143       13D+1        0.00081  -0.00001   0.00000   0.00000   0.00000
 144       13D-1        0.00001   0.00081   0.00000   0.00000   0.00000
 145       13D+2        0.00000  -0.00002   0.00000   0.00000   0.00000
 146       13D-2       -0.00002   0.00000   0.00000   0.00000   0.00000
 147       14D 0        0.00000   0.00000   0.00058  -0.00018   0.00080
 148       14D+1       -0.00071   0.00001   0.00000   0.00000   0.00000
 149       14D-1       -0.00001  -0.00071   0.00000   0.00000   0.00000
 150       14D+2        0.00000   0.00003   0.00000   0.00000   0.00000
 151       14D-2        0.00003   0.00000   0.00000   0.00000   0.00000
 152       15F 0        0.00000   0.00000   0.00001  -0.00007  -0.00003
 153       15F+1       -0.00001   0.00000   0.00000   0.00000   0.00000
 154       15F-1        0.00000  -0.00001   0.00000   0.00000   0.00000
 155       15F+2        0.00000   0.00003   0.00000   0.00000   0.00000
 156       15F-2        0.00003   0.00000   0.00000   0.00000   0.00000
 157       15F+3        0.00000   0.00000   0.00000   0.00000   0.00000
 158       15F-3        0.00000   0.00000   0.00001   0.00003   0.00000
 159       16F 0        0.00000   0.00000  -0.00031  -0.00058  -0.00031
 160       16F+1       -0.00022   0.00000   0.00000   0.00000   0.00000
 161       16F-1        0.00000  -0.00022   0.00000   0.00000   0.00000
 162       16F+2        0.00000  -0.00003   0.00000   0.00000   0.00000
 163       16F-2       -0.00003   0.00000   0.00000   0.00000   0.00000
 164       16F+3        0.00000   0.00000   0.00000   0.00000   0.00000
 165       16F-3        0.00000   0.00000  -0.00002  -0.00005   0.00002
 166 6   F  1S          0.00000   0.00000  -0.00144  -0.01040  -0.04981
 167        2S          0.00000   0.00000   0.00020   0.00043   0.00080
 168        3S          0.00000   0.00000  -0.00007  -0.00045  -0.00203
 169        4S         -0.00001  -0.00001  -0.00054  -0.00105   0.00056
 170        5S         -0.00001  -0.00001   0.00011  -0.00168   0.00177
 171        6PX        -0.00004   0.00000   0.00000   0.00000   0.00000
 172        6PY         0.00000  -0.00004   0.00000   0.00000   0.00000
 173        6PZ         0.00000   0.00000   0.00058   0.00111   0.00011
 174        7PX        -0.00001   0.00000   0.00000   0.00000   0.00000
 175        7PY         0.00000  -0.00001   0.00000   0.00000   0.00000
 176        7PZ         0.00000   0.00000   0.00069   0.00132   0.00002
 177        8PX        -0.00024   0.00000   0.00000   0.00000   0.00000
 178        8PY         0.00000  -0.00024   0.00000   0.00000   0.00000
 179        8PZ         0.00000   0.00000   0.00008   0.00017   0.00048
 180        9PX        -0.00036   0.00000   0.00000   0.00000   0.00000
 181        9PY         0.00000  -0.00036   0.00000   0.00000   0.00000
 182        9PZ         0.00000   0.00000   0.00017  -0.00009   0.00071
 183       10D 0        0.00000   0.00000   0.00001   0.00001  -0.00002
 184       10D+1       -0.00001   0.00000   0.00000   0.00000   0.00000
 185       10D-1        0.00000  -0.00001   0.00000   0.00000   0.00000
 186       10D+2        0.00000   0.00001   0.00000   0.00000   0.00000
 187       10D-2        0.00001   0.00000   0.00000   0.00000   0.00000
 188       11D 0        0.00000   0.00000  -0.00003  -0.00010   0.00001
 189       11D+1        0.00005   0.00000   0.00000   0.00000   0.00000
 190       11D-1        0.00000   0.00005   0.00000   0.00000   0.00000
 191       11D+2        0.00000  -0.00003   0.00000   0.00000   0.00000
 192       11D-2       -0.00003   0.00000   0.00000   0.00000   0.00000
 193       12D 0        0.00000   0.00000  -0.00019  -0.00012   0.00011
 194       12D+1       -0.00022   0.00000   0.00000   0.00000   0.00000
 195       12D-1        0.00000  -0.00022   0.00000   0.00000   0.00000
 196       12D+2        0.00000   0.00011   0.00000   0.00000   0.00000
 197       12D-2        0.00011   0.00000   0.00000   0.00000   0.00000
 198       13F 0        0.00000   0.00000   0.00001  -0.00001  -0.00004
 199       13F+1        0.00002   0.00000   0.00000   0.00000   0.00000
 200       13F-1        0.00000   0.00002   0.00000   0.00000   0.00000
 201       13F+2        0.00000  -0.00002   0.00000   0.00000   0.00000
 202       13F-2       -0.00002   0.00000   0.00000   0.00000   0.00000
 203       13F+3        0.00000   0.00000   0.00000   0.00000   0.00000
 204       13F-3        0.00000   0.00000   0.00000   0.00000   0.00000
 205       14F 0        0.00000   0.00000  -0.00004   0.00002   0.00013
 206       14F+1       -0.00006   0.00000   0.00000   0.00000   0.00000
 207       14F-1        0.00000  -0.00006   0.00000   0.00000   0.00000
 208       14F+2        0.00000   0.00004   0.00000   0.00000   0.00000
 209       14F-2        0.00004   0.00000   0.00000   0.00000   0.00000
 210       14F+3        0.00000   0.00000   0.00000   0.00000   0.00000
 211       14F-3        0.00000   0.00000   0.00000  -0.00001  -0.00001
                           6         7         8         9        10
     Eigenvalues --     2.00000   2.00000   1.98361   1.97542   1.96944
   1 1   C  1S          0.05043  -0.00046   0.01536  -0.07288  -0.14388
   2        2S         -0.00012  -0.00001  -0.04185   0.19775   0.39778
   3        3S          0.00230  -0.00003  -0.01036   0.04586   0.09623
   4        4S         -0.00697   0.00016   0.00568   0.07847   0.19100
   5        5S         -0.00016   0.00010   0.00784  -0.00677  -0.02891
   6        6PX         0.00000   0.00000  -0.00008   0.00062   0.00235
   7        6PY         0.00000   0.00000   0.00003  -0.00016  -0.00057
   8        6PZ         0.00004   0.00000   0.00645   0.01045  -0.02715
   9        7PX         0.00000   0.00000  -0.00012   0.00079   0.00304
  10        7PY         0.00000   0.00000   0.00002  -0.00016  -0.00063
  11        7PZ        -0.00075   0.00000   0.00705   0.01804  -0.03236
  12        8PX        -0.00001   0.00000  -0.00001   0.00033   0.00176
  13        8PY        -0.00001   0.00000   0.00009  -0.00039  -0.00086
  14        8PZ         0.00518   0.00009   0.01656   0.00592  -0.02273
  15        9PX         0.00000   0.00000   0.00001  -0.00001   0.00003
  16        9PY         0.00000   0.00000   0.00002  -0.00004  -0.00011
  17        9PZ         0.00011   0.00001  -0.00071   0.00034  -0.00407
  18       10D 0        0.00004   0.00000   0.00050  -0.00210  -0.00955
  19       10D+1        0.00000   0.00000   0.00000  -0.00001  -0.00005
  20       10D-1        0.00000   0.00000   0.00000   0.00000   0.00000
  21       10D+2        0.00000   0.00000   0.00001  -0.00005  -0.00012
  22       10D-2        0.00000   0.00000   0.00000   0.00002   0.00012
  23       11D 0       -0.00023  -0.00002  -0.00529   0.00468  -0.01873
  24       11D+1        0.00000   0.00000   0.00002  -0.00003  -0.00008
  25       11D-1        0.00000   0.00000   0.00000   0.00000  -0.00001
  26       11D+2        0.00000   0.00000   0.00000  -0.00014  -0.00035
  27       11D-2        0.00000   0.00000  -0.00004   0.00007   0.00031
  28       12D 0        0.00027   0.00008   0.00206  -0.00835  -0.01670
  29       12D+1        0.00001   0.00000   0.00002   0.00004   0.00001
  30       12D-1        0.00001   0.00000   0.00001   0.00003   0.00002
  31       12D+2       -0.00001   0.00000  -0.00007  -0.00006  -0.00014
  32       12D-2        0.00000   0.00000  -0.00006   0.00010   0.00033
  33       13F 0       -0.00007   0.00000   0.00001   0.00242   0.00065
  34       13F+1        0.00000   0.00000   0.00000   0.00000  -0.00001
  35       13F-1        0.00000   0.00000   0.00000   0.00000  -0.00001
  36       13F+2        0.00000   0.00000   0.00000   0.00000   0.00001
  37       13F-2        0.00000   0.00000   0.00000   0.00000   0.00000
  38       13F+3        0.00000   0.00000   0.00000   0.00002   0.00003
  39       13F-3        0.00001   0.00000  -0.00014   0.00194   0.00400
  40       14F 0        0.00126  -0.00001   0.00470   0.00261  -0.00198
  41       14F+1        0.00000   0.00000  -0.00001  -0.00001  -0.00005
  42       14F-1        0.00000   0.00000  -0.00001   0.00002   0.00002
  43       14F+2        0.00000   0.00000   0.00001   0.00002   0.00002
  44       14F-2        0.00000   0.00000   0.00001  -0.00001  -0.00003
  45       14F+3        0.00000   0.00000   0.00002  -0.00001   0.00003
  46       14F-3       -0.00044   0.00003   0.00189  -0.00102   0.00402
  47 2   H  1S         -0.00008   0.00000  -0.00857   0.03704   0.08105
  48        2S          0.00097  -0.00006  -0.01533   0.04355   0.08417
  49        3S          0.00178   0.00004  -0.00096  -0.00529  -0.01279
  50        4S          0.00003   0.00000  -0.00045   0.00047   0.00030
  51        5PX         0.00000   0.00000   0.00000   0.00001   0.00005
  52        5PY         0.00001   0.00000  -0.00109   0.00397   0.00867
  53        5PZ        -0.00004   0.00000   0.00028   0.00095   0.00035
  54        6PX         0.00000   0.00000  -0.00001   0.00001   0.00010
  55        6PY         0.00007   0.00000  -0.00075   0.00080   0.00120
  56        6PZ         0.00032  -0.00001   0.00009   0.00243  -0.00051
  57        7PX         0.00000   0.00000  -0.00005   0.00006   0.00016
  58        7PY         0.00043   0.00001   0.00134  -0.00502  -0.01050
  59        7PZ        -0.00054   0.00001  -0.00280  -0.00172  -0.00133
  60        8D 0        0.00006   0.00000   0.00014  -0.00035  -0.00092
  61        8D+1        0.00000   0.00000   0.00000   0.00000   0.00000
  62        8D-1       -0.00001   0.00000  -0.00015   0.00049   0.00024
  63        8D+2       -0.00002   0.00000   0.00003  -0.00054  -0.00137
  64        8D-2        0.00000   0.00000   0.00000   0.00000   0.00002
  65        9D 0        0.00008  -0.00001  -0.00006   0.00121   0.00099
  66        9D+1        0.00000   0.00000   0.00000   0.00000  -0.00001
  67        9D-1        0.00014   0.00000  -0.00006   0.00004  -0.00038
  68        9D+2        0.00004   0.00000  -0.00097   0.00223   0.00414
  69        9D-2        0.00000   0.00000   0.00000  -0.00001   0.00000
  70 3   H  1S         -0.00008   0.00000  -0.00844   0.03633   0.07872
  71        2S          0.00097  -0.00006  -0.01531   0.04329   0.08271
  72        3S          0.00180   0.00004  -0.00098  -0.00442  -0.01068
  73        4S          0.00003   0.00000  -0.00047   0.00051   0.00043
  74        5PX         0.00001   0.00000  -0.00093   0.00336   0.00728
  75        5PY        -0.00001   0.00000   0.00054  -0.00197  -0.00426
  76        5PZ        -0.00004   0.00000   0.00028   0.00094   0.00032
  77        6PX         0.00006   0.00000  -0.00069   0.00080   0.00130
  78        6PY        -0.00004   0.00000   0.00042  -0.00052  -0.00078
  79        6PZ         0.00032  -0.00001   0.00009   0.00241  -0.00051
  80        7PX         0.00037   0.00001   0.00110  -0.00412  -0.00850
  81        7PY        -0.00022   0.00000  -0.00074   0.00244   0.00506
  82        7PZ        -0.00054   0.00001  -0.00277  -0.00168  -0.00125
  83        8D 0        0.00006   0.00000   0.00014  -0.00034  -0.00089
  84        8D+1       -0.00001   0.00000  -0.00012   0.00042   0.00020
  85        8D-1        0.00000   0.00000   0.00007  -0.00025  -0.00011
  86        8D+2        0.00001   0.00000  -0.00002   0.00026   0.00065
  87        8D-2       -0.00001   0.00000   0.00003  -0.00046  -0.00118
  88        9D 0        0.00009  -0.00001  -0.00006   0.00120   0.00098
  89        9D+1        0.00012   0.00000  -0.00004   0.00004  -0.00032
  90        9D-1       -0.00007   0.00000   0.00003  -0.00002   0.00019
  91        9D+2       -0.00002   0.00000   0.00047  -0.00109  -0.00202
  92        9D-2        0.00003   0.00000  -0.00084   0.00191   0.00355
  93 4   H  1S         -0.00008   0.00000  -0.00857   0.03713   0.08163
  94        2S          0.00098  -0.00006  -0.01526   0.04370   0.08484
  95        3S          0.00183   0.00004  -0.00083  -0.00483  -0.01251
  96        4S          0.00003   0.00000  -0.00049   0.00054   0.00044
  97        5PX        -0.00001   0.00000   0.00094  -0.00344  -0.00755
  98        5PY        -0.00001   0.00000   0.00054  -0.00199  -0.00438
  99        5PZ        -0.00004   0.00000   0.00028   0.00096   0.00036
 100        6PX        -0.00007   0.00000   0.00060  -0.00063  -0.00091
 101        6PY        -0.00004   0.00000   0.00036  -0.00042  -0.00065
 102        6PZ         0.00032  -0.00001   0.00006   0.00243  -0.00049
 103        7PX        -0.00038  -0.00001  -0.00116   0.00430   0.00919
 104        7PY        -0.00023   0.00000  -0.00070   0.00242   0.00518
 105        7PZ        -0.00056   0.00001  -0.00281  -0.00176  -0.00136
 106        8D 0        0.00006   0.00000   0.00014  -0.00035  -0.00092
 107        8D+1        0.00001   0.00000   0.00013  -0.00043  -0.00021
 108        8D-1        0.00000   0.00000   0.00007  -0.00025  -0.00012
 109        8D+2        0.00001   0.00000  -0.00001   0.00027   0.00068
 110        8D-2        0.00001   0.00000  -0.00003   0.00047   0.00120
 111        9D 0        0.00009  -0.00001  -0.00006   0.00122   0.00102
 112        9D+1       -0.00012   0.00000   0.00005  -0.00003   0.00033
 113        9D-1       -0.00007   0.00000   0.00003  -0.00002   0.00019
 114        9D+2       -0.00002   0.00000   0.00050  -0.00114  -0.00213
 115        9D-2       -0.00003   0.00000   0.00086  -0.00195  -0.00362
 116 5   Cl 1S          0.00007   0.99708  -0.00063   0.06660  -0.03457
 117        2S         -0.00007   0.01040   0.00290  -0.25237   0.12991
 118        3S          0.00005   0.00017  -0.00387   0.52563  -0.27646
 119        4S          0.00008   0.00026  -0.00025   0.06441  -0.03727
 120        5S         -0.00181  -0.00020  -0.01227   0.35153  -0.16937
 121        6S         -0.00050  -0.00011  -0.00461   0.02449   0.01139
 122        7PX         0.00000   0.00000   0.00000  -0.00002  -0.00013
 123        7PY         0.00000   0.00000   0.00000   0.00001   0.00003
 124        7PZ         0.00734   0.00016   0.00153   0.00452   0.02890
 125        8PX         0.00000   0.00000   0.00000   0.00006   0.00032
 126        8PY         0.00000   0.00000   0.00000  -0.00002  -0.00007
 127        8PZ         0.00051  -0.00003  -0.00228  -0.00584  -0.07229
 128        9PX         0.00000   0.00000   0.00000   0.00002   0.00014
 129        9PY         0.00000   0.00000   0.00000  -0.00001  -0.00003
 130        9PZ         0.00032   0.00003  -0.00264   0.00076  -0.03149
 131       10PX         0.00000   0.00000   0.00000   0.00001   0.00010
 132       10PY         0.00000   0.00000  -0.00001  -0.00001  -0.00002
 133       10PZ         0.00095   0.00015   0.00271   0.00314  -0.05250
 134       11PX         0.00000   0.00000   0.00000   0.00000  -0.00001
 135       11PY         0.00000   0.00000   0.00000   0.00000   0.00001
 136       11PZ         0.00002   0.00002  -0.00040   0.00265  -0.00876
 137       12D 0       -0.00003   0.00001  -0.00035   0.00447   0.00455
 138       12D+1        0.00000   0.00000   0.00000  -0.00001  -0.00004
 139       12D-1        0.00000   0.00000   0.00000   0.00001   0.00002
 140       12D+2        0.00000   0.00000   0.00000   0.00000   0.00000
 141       12D-2        0.00000   0.00000   0.00000   0.00000   0.00000
 142       13D 0       -0.00022   0.00000  -0.00163   0.00817   0.00974
 143       13D+1        0.00000   0.00000   0.00000  -0.00002  -0.00007
 144       13D-1        0.00000   0.00000   0.00000   0.00001   0.00002
 145       13D+2        0.00000   0.00000   0.00000   0.00000   0.00000
 146       13D-2        0.00000   0.00000   0.00000   0.00000   0.00001
 147       14D 0       -0.00014  -0.00004  -0.00184  -0.00019   0.00540
 148       14D+1        0.00000   0.00000   0.00000   0.00000   0.00001
 149       14D-1        0.00000   0.00000   0.00000   0.00000   0.00000
 150       14D+2        0.00000   0.00000   0.00000   0.00000   0.00000
 151       14D-2        0.00000   0.00000   0.00000  -0.00001  -0.00001
 152       15F 0        0.00005   0.00000   0.00023  -0.00179  -0.00192
 153       15F+1        0.00000   0.00000   0.00000   0.00000   0.00002
 154       15F-1        0.00000   0.00000   0.00000   0.00000  -0.00001
 155       15F+2        0.00000   0.00000   0.00000   0.00000   0.00000
 156       15F-2        0.00000   0.00000   0.00000   0.00000   0.00000
 157       15F+3        0.00000   0.00000   0.00000   0.00000   0.00000
 158       15F-3       -0.00001   0.00000  -0.00001   0.00002   0.00009
 159       16F 0       -0.00005   0.00001   0.00005  -0.00093  -0.00172
 160       16F+1        0.00000   0.00000   0.00000   0.00000   0.00001
 161       16F-1        0.00000   0.00000   0.00000   0.00000   0.00000
 162       16F+2        0.00000   0.00000   0.00000   0.00000   0.00000
 163       16F-2        0.00000   0.00000   0.00000   0.00000   0.00000
 164       16F+3        0.00000   0.00000   0.00000   0.00000   0.00000
 165       16F-3        0.00003   0.00000   0.00002   0.00000  -0.00021
 166 6   F  1S          0.97742  -0.00002   0.21190   0.01303   0.02159
 167        2S         -0.01503   0.00000  -0.53163  -0.03374  -0.05726
 168        3S          0.04206   0.00000  -0.16471  -0.01071  -0.01852
 169        4S          0.00193  -0.00001  -0.36878  -0.02341  -0.04388
 170        5S         -0.00084  -0.00006  -0.04529   0.00418   0.00783
 171        6PX         0.00000   0.00000   0.00002   0.00010   0.00086
 172        6PY         0.00000   0.00000   0.00002  -0.00002  -0.00011
 173        6PZ         0.00048   0.00000   0.01353   0.01250   0.08777
 174        7PX         0.00000   0.00000   0.00003   0.00012   0.00103
 175        7PY         0.00000   0.00000   0.00002  -0.00002  -0.00014
 176        7PZ        -0.00012   0.00000   0.01476   0.01527   0.10560
 177        8PX         0.00000   0.00000   0.00002   0.00008   0.00080
 178        8PY         0.00000   0.00000   0.00001  -0.00001  -0.00009
 179        8PZ         0.00240  -0.00001   0.01248   0.01206   0.08400
 180        9PX         0.00000   0.00000   0.00001   0.00002   0.00022
 181        9PY         0.00000   0.00000   0.00000   0.00000  -0.00002
 182        9PZ        -0.00008  -0.00002   0.00220   0.00310   0.02432
 183       10D 0       -0.00002   0.00000  -0.00013   0.00017   0.00060
 184       10D+1        0.00000   0.00000   0.00000   0.00000   0.00000
 185       10D-1        0.00000   0.00000   0.00000   0.00000   0.00000
 186       10D+2        0.00000   0.00000   0.00000   0.00000   0.00000
 187       10D-2        0.00000   0.00000   0.00000   0.00000   0.00000
 188       11D 0       -0.00003   0.00000  -0.00104   0.00090   0.00276
 189       11D+1        0.00000   0.00000   0.00000   0.00000   0.00002
 190       11D-1        0.00000   0.00000   0.00000   0.00000   0.00000
 191       11D+2        0.00000   0.00000   0.00000   0.00000   0.00000
 192       11D-2        0.00000   0.00000   0.00000   0.00000   0.00000
 193       12D 0        0.00080   0.00000  -0.00055   0.00034   0.00388
 194       12D+1        0.00000   0.00000   0.00000   0.00000   0.00001
 195       12D-1        0.00000   0.00000   0.00000   0.00000   0.00001
 196       12D+2        0.00000   0.00000   0.00001   0.00000   0.00000
 197       12D-2        0.00000   0.00000   0.00000   0.00000  -0.00001
 198       13F 0       -0.00006   0.00000  -0.00002   0.00013   0.00027
 199       13F+1        0.00000   0.00000   0.00000   0.00000   0.00000
 200       13F-1        0.00000   0.00000   0.00000   0.00000   0.00000
 201       13F+2        0.00000   0.00000   0.00000   0.00000   0.00000
 202       13F-2        0.00000   0.00000   0.00000   0.00000   0.00000
 203       13F+3        0.00000   0.00000   0.00000   0.00000   0.00000
 204       13F-3        0.00001   0.00000   0.00001   0.00002   0.00003
 205       14F 0        0.00020   0.00000  -0.00040  -0.00006   0.00063
 206       14F+1        0.00000   0.00000   0.00000   0.00000   0.00000
 207       14F-1        0.00000   0.00000   0.00000   0.00000   0.00000
 208       14F+2        0.00000   0.00000   0.00000   0.00000   0.00000
 209       14F-2        0.00000   0.00000   0.00000   0.00000   0.00000
 210       14F+3        0.00000   0.00000   0.00000   0.00000   0.00000
 211       14F-3       -0.00001   0.00000  -0.00007  -0.00006  -0.00009
                          11        12        13        14        15
     Eigenvalues --     1.96436   1.96434   1.95923   1.95909   1.94911
   1 1   C  1S          0.00015  -0.00085   0.00014  -0.00089  -0.00024
   2        2S         -0.00045   0.00233  -0.00044   0.00242   0.00066
   3        3S         -0.00011   0.00051  -0.00012   0.00047   0.00016
   4        4S         -0.00061   0.00057  -0.00093  -0.00060   0.00105
   5        5S         -0.00011  -0.00033  -0.00038  -0.00053   0.00008
   6        6PX         0.03337  -0.08916   0.06617  -0.22186   0.02446
   7        6PY         0.09205   0.03280   0.22134   0.06599   0.06344
   8        6PZ        -0.00001  -0.00011  -0.00008  -0.00008   0.00021
   9        7PX         0.04472  -0.11956   0.08773  -0.29410   0.03398
  10        7PY         0.12337   0.04400   0.29342   0.08746   0.08819
  11        7PZ        -0.00001  -0.00009  -0.00010  -0.00011   0.00029
  12        8PX         0.03291  -0.08748   0.06787  -0.22700   0.02620
  13        8PY         0.09004   0.03192   0.22613   0.06723   0.06770
  14        8PZ        -0.00004  -0.00013  -0.00004  -0.00016   0.00031
  15        9PX        -0.00069   0.00222   0.00549  -0.01815   0.00442
  16        9PY        -0.00216  -0.00091   0.01804   0.00530   0.01141
  17        9PZ        -0.00001  -0.00003   0.00000  -0.00003  -0.00001
  18       10D 0        0.00000  -0.00004  -0.00001  -0.00001  -0.00005
  19       10D+1       -0.00093   0.00251  -0.00037   0.00122  -0.00134
  20       10D-1       -0.00254  -0.00092  -0.00122  -0.00036  -0.00348
  21       10D+2        0.00587   0.00201   0.01419   0.00403   0.00469
  22       10D-2        0.00211  -0.00571   0.00420  -0.01431   0.00179
  23       11D 0        0.00002  -0.00005   0.00001   0.00009  -0.00021
  24       11D+1       -0.00435   0.01196   0.00218  -0.00725  -0.00555
  25       11D-1       -0.01198  -0.00439   0.00733   0.00217  -0.01445
  26       11D+2        0.01942   0.00671   0.04335   0.01238   0.01592
  27       11D-2        0.00695  -0.01897   0.01279  -0.04379   0.00607
  28       12D 0        0.00012  -0.00017   0.00002  -0.00011  -0.00021
  29       12D+1       -0.00209   0.00579   0.00160  -0.00541   0.00041
  30       12D-1       -0.00571  -0.00211   0.00546   0.00164   0.00111
  31       12D+2        0.01878   0.00643   0.03429   0.00974   0.00936
  32       12D-2        0.00685  -0.01856   0.01025  -0.03489   0.00365
  33       13F 0        0.00000   0.00000   0.00000   0.00001   0.00001
  34       13F+1        0.00009  -0.00025  -0.00057   0.00192  -0.00080
  35       13F-1        0.00023   0.00008  -0.00193  -0.00058  -0.00209
  36       13F+2       -0.00060  -0.00021  -0.00012  -0.00004  -0.00031
  37       13F-2       -0.00022   0.00060  -0.00003   0.00014  -0.00012
  38       13F+3        0.00001   0.00001   0.00002   0.00004   0.00001
  39       13F-3       -0.00001   0.00004  -0.00002   0.00006   0.00001
  40       14F 0       -0.00001  -0.00001   0.00000  -0.00004   0.00004
  41       14F+1        0.00013  -0.00042  -0.00165   0.00553  -0.00259
  42       14F-1        0.00036   0.00015  -0.00560  -0.00167  -0.00678
  43       14F+2       -0.00364  -0.00130  -0.00013  -0.00006  -0.00302
  44       14F-2       -0.00129   0.00363  -0.00002   0.00016  -0.00115
  45       14F+3        0.00001   0.00006   0.00006   0.00020   0.00000
  46       14F-3        0.00001  -0.00001   0.00000  -0.00004   0.00005
  47 2   H  1S         -0.06340  -0.02203  -0.14524  -0.04254  -0.04350
  48        2S         -0.05715  -0.01969  -0.14786  -0.04316  -0.04290
  49        3S          0.05431   0.01886   0.11409   0.03328   0.00479
  50        4S         -0.00551  -0.00208   0.01658   0.00480   0.00101
  51        5PX         0.00071  -0.00191   0.00125  -0.00421   0.00038
  52        5PY        -0.00498  -0.00172  -0.01188  -0.00348  -0.00335
  53        5PZ         0.00003   0.00002  -0.00268  -0.00079   0.00018
  54        6PX         0.00271  -0.00742   0.00388  -0.01314   0.00132
  55        6PY         0.00682   0.00246   0.01081   0.00321   0.00524
  56        6PZ        -0.00263  -0.00095   0.00036   0.00007  -0.00108
  57        7PX         0.00315  -0.00863   0.00383  -0.01299   0.00103
  58        7PY         0.01323   0.00460   0.04364   0.01282   0.00901
  59        7PZ         0.00062   0.00017   0.00724   0.00212   0.00271
  60        8D 0        0.00039   0.00013   0.00130   0.00038   0.00038
  61        8D+1        0.00001  -0.00001   0.00009  -0.00030  -0.00001
  62        8D-1       -0.00070  -0.00025  -0.00023  -0.00007  -0.00027
  63        8D+2        0.00057   0.00019   0.00184   0.00055   0.00048
  64        8D-2        0.00036  -0.00097   0.00064  -0.00217   0.00022
  65        9D 0       -0.00053  -0.00019   0.00139   0.00040  -0.00014
  66        9D+1       -0.00052   0.00146   0.00029  -0.00094  -0.00041
  67        9D-1       -0.00313  -0.00115   0.00328   0.00096  -0.00044
  68        9D+2       -0.00152  -0.00052  -0.00255  -0.00072  -0.00101
  69        9D-2        0.00055  -0.00154   0.00080  -0.00281   0.00040
  70 3   H  1S          0.01202   0.06481   0.03558   0.14786   0.00759
  71        2S          0.01107   0.05914   0.03678   0.15265   0.00750
  72        3S         -0.00962  -0.05495  -0.02686  -0.11395  -0.00069
  73        4S          0.00111   0.00585  -0.00393  -0.01667  -0.00014
  74        5PX         0.00185   0.00419   0.00465   0.00986   0.00103
  75        5PY         0.00126  -0.00289   0.00212  -0.00701   0.00059
  76        5PZ        -0.00001  -0.00007   0.00066   0.00270  -0.00002
  77        6PX         0.00291  -0.00660   0.00450  -0.01083   0.00110
  78        6PY         0.00744   0.00231   0.01260   0.00258   0.00361
  79        6PZ         0.00048   0.00270  -0.00004  -0.00024   0.00017
  80        7PX         0.00243  -0.01233  -0.00265  -0.03977   0.00003
  81        7PY         0.00915   0.00549   0.01658   0.01974   0.00320
  82        7PZ        -0.00009  -0.00052  -0.00176  -0.00729  -0.00053
  83        8D 0       -0.00007  -0.00040  -0.00032  -0.00134  -0.00007
  84        8D+1        0.00012   0.00063   0.00021   0.00018   0.00003
  85        8D-1       -0.00006  -0.00037   0.00023  -0.00019  -0.00005
  86        8D+2        0.00095   0.00013   0.00211   0.00046   0.00056
  87        8D-2        0.00040  -0.00060   0.00063  -0.00192   0.00021
  88        9D 0        0.00012   0.00058  -0.00030  -0.00142   0.00005
  89        9D+1       -0.00025   0.00298  -0.00021  -0.00293  -0.00053
  90        9D-1       -0.00160  -0.00146   0.00124   0.00144  -0.00104
  91        9D+2        0.00130  -0.00100   0.00215  -0.00187   0.00090
  92        9D-2        0.00107   0.00127   0.00194   0.00199   0.00070
  93 4   H  1S          0.05142  -0.04156   0.10999  -0.10428   0.03652
  94        2S          0.04640  -0.03717   0.11215  -0.10606   0.03590
  95        3S         -0.04416   0.03644  -0.08641   0.08254  -0.00421
  96        4S          0.00444  -0.00376  -0.01259   0.01197  -0.00083
  97        5PX        -0.00417   0.00202  -0.00929   0.00576  -0.00277
  98        5PY        -0.00085   0.00297  -0.00190   0.00701  -0.00083
  99        5PZ        -0.00002   0.00004   0.00204  -0.00193  -0.00012
 100        6PX         0.00218  -0.00699   0.00237  -0.01180   0.00261
 101        6PY         0.00725   0.00295   0.01221   0.00476   0.00422
 102        6PZ         0.00210  -0.00176  -0.00030   0.00026   0.00092
 103        7PX         0.00634  -0.01088   0.02412  -0.03203   0.00572
 104        7PY         0.01051   0.00163   0.02446  -0.00733   0.00530
 105        7PZ        -0.00050   0.00037  -0.00553   0.00523  -0.00234
 106        8D 0       -0.00031   0.00024  -0.00099   0.00093  -0.00032
 107        8D+1       -0.00050   0.00041  -0.00026   0.00003  -0.00019
 108        8D-1       -0.00027   0.00025   0.00010   0.00028  -0.00013
 109        8D+2        0.00082   0.00050   0.00203   0.00076   0.00053
 110        8D-2        0.00006  -0.00070   0.00044  -0.00196   0.00017
 111        9D 0        0.00041  -0.00033  -0.00106   0.00105   0.00013
 112        9D+1       -0.00171   0.00246   0.00181  -0.00236   0.00007
 113        9D-1       -0.00213   0.00005   0.00183  -0.00055  -0.00082
 114        9D+2        0.00030   0.00156   0.00073   0.00271   0.00019
 115        9D-2       -0.00161   0.00024  -0.00269   0.00052  -0.00108
 116 5   Cl 1S          0.00002  -0.00012   0.00001  -0.00010  -0.00005
 117        2S         -0.00007   0.00044  -0.00004   0.00037   0.00019
 118        3S          0.00016  -0.00098   0.00007  -0.00085  -0.00040
 119        4S          0.00002  -0.00014   0.00001  -0.00013  -0.00006
 120        5S          0.00007  -0.00051   0.00009  -0.00043  -0.00028
 121        6S          0.00001   0.00016   0.00011   0.00020  -0.00004
 122        7PX        -0.00300   0.00802  -0.01246   0.04277   0.08008
 123        7PY        -0.00828  -0.00296  -0.04176  -0.01274   0.20875
 124        7PZ        -0.00003   0.00025  -0.00001   0.00045  -0.00022
 125        8PX         0.00709  -0.01899   0.02945  -0.10101  -0.18321
 126        8PY         0.01961   0.00700   0.09867   0.03009  -0.47755
 127        8PZ         0.00007  -0.00061   0.00002  -0.00105   0.00051
 128        9PX         0.00329  -0.00882   0.01362  -0.04676  -0.08850
 129        9PY         0.00910   0.00325   0.04564   0.01393  -0.23069
 130        9PZ         0.00003  -0.00026   0.00001  -0.00046   0.00026
 131       10PX         0.00353  -0.00952   0.01592  -0.05496  -0.13169
 132       10PY         0.00979   0.00352   0.05345   0.01641  -0.34327
 133       10PZ         0.00003  -0.00046  -0.00005  -0.00078   0.00047
 134       11PX         0.00072  -0.00201   0.00095  -0.00346  -0.02227
 135       11PY         0.00201   0.00075   0.00327   0.00106  -0.05803
 136       11PZ         0.00000  -0.00008  -0.00003  -0.00013   0.00013
 137       12D 0       -0.00001   0.00003  -0.00001   0.00005   0.00002
 138       12D+1       -0.00064   0.00171  -0.00177   0.00596   0.00007
 139       12D-1       -0.00177  -0.00063  -0.00592  -0.00177   0.00021
 140       12D+2        0.00011   0.00004   0.00052   0.00015   0.00023
 141       12D-2        0.00004  -0.00010   0.00015  -0.00053   0.00009
 142       13D 0       -0.00001   0.00008   0.00000   0.00011   0.00004
 143       13D+1       -0.00099   0.00262  -0.00313   0.01057   0.00024
 144       13D-1       -0.00273  -0.00097  -0.01050  -0.00315   0.00064
 145       13D+2        0.00030   0.00011   0.00062   0.00018   0.00052
 146       13D-2        0.00011  -0.00030   0.00018  -0.00063   0.00020
 147       14D 0        0.00001   0.00004   0.00001   0.00008  -0.00001
 148       14D+1        0.00002  -0.00006   0.00002  -0.00003   0.00119
 149       14D-1        0.00006   0.00002   0.00003   0.00000   0.00314
 150       14D+2       -0.00061  -0.00022  -0.00007  -0.00002   0.00007
 151       14D-2       -0.00022   0.00062  -0.00002   0.00007   0.00002
 152       15F 0        0.00000  -0.00001   0.00000  -0.00002   0.00000
 153       15F+1        0.00030  -0.00080   0.00075  -0.00253  -0.00050
 154       15F-1        0.00083   0.00030   0.00251   0.00075  -0.00131
 155       15F+2       -0.00011  -0.00004  -0.00033  -0.00009  -0.00010
 156       15F-2       -0.00004   0.00010  -0.00009   0.00033  -0.00004
 157       15F+3        0.00000   0.00000   0.00000   0.00000   0.00000
 158       15F-3        0.00000   0.00000   0.00000   0.00000   0.00000
 159       16F 0        0.00000  -0.00001   0.00000  -0.00002   0.00000
 160       16F+1        0.00020  -0.00054   0.00057  -0.00195  -0.00064
 161       16F-1        0.00056   0.00020   0.00193   0.00059  -0.00168
 162       16F+2        0.00001   0.00001   0.00018   0.00005  -0.00019
 163       16F-2        0.00001  -0.00002   0.00005  -0.00018  -0.00007
 164       16F+3        0.00000   0.00000   0.00000   0.00000   0.00000
 165       16F-3        0.00000   0.00000   0.00000   0.00000   0.00000
 166 6   F  1S         -0.00002   0.00011  -0.00001   0.00009   0.00006
 167        2S          0.00006  -0.00031   0.00002  -0.00027  -0.00013
 168        3S          0.00002  -0.00010   0.00001  -0.00009  -0.00004
 169        4S          0.00003  -0.00022   0.00005  -0.00022  -0.00006
 170        5S         -0.00002   0.00012   0.00006   0.00010   0.00005
 171        6PX         0.11412  -0.31383  -0.04617   0.15148  -0.00812
 172        6PY         0.31194   0.11439  -0.15539  -0.04533  -0.02114
 173        6PZ        -0.00036   0.00082  -0.00003   0.00153  -0.00175
 174        7PX         0.13613  -0.37435  -0.05474   0.17958  -0.00961
 175        7PY         0.37210   0.13645  -0.18425  -0.05374  -0.02502
 176        7PZ        -0.00043   0.00099  -0.00004   0.00183  -0.00209
 177        8PX         0.11006  -0.30271  -0.04605   0.15121  -0.00823
 178        8PY         0.30083   0.11034  -0.15498  -0.04525  -0.02143
 179        8PZ        -0.00035   0.00081   0.00000   0.00151  -0.00170
 180        9PX         0.03459  -0.09522  -0.01625   0.05348  -0.00401
 181        9PY         0.09459   0.03472  -0.05463  -0.01598  -0.01042
 182        9PZ        -0.00011   0.00025   0.00001   0.00045  -0.00051
 183       10D 0        0.00000   0.00000   0.00000   0.00001   0.00000
 184       10D+1        0.00021  -0.00056   0.00003  -0.00009   0.00004
 185       10D-1        0.00057   0.00021   0.00009   0.00003   0.00011
 186       10D+2        0.00002   0.00001   0.00003   0.00001   0.00001
 187       10D-2        0.00001  -0.00002   0.00001  -0.00004   0.00000
 188       11D 0       -0.00001   0.00002   0.00000   0.00003  -0.00001
 189       11D+1        0.00083  -0.00226   0.00035  -0.00120   0.00021
 190       11D-1        0.00227   0.00083   0.00117   0.00036   0.00056
 191       11D+2        0.00005   0.00001   0.00024   0.00007   0.00016
 192       11D-2        0.00002  -0.00005   0.00007  -0.00025   0.00006
 193       12D 0       -0.00001   0.00004   0.00000   0.00007  -0.00005
 194       12D+1        0.00203  -0.00561  -0.00101   0.00334   0.00011
 195       12D-1        0.00557   0.00205  -0.00341  -0.00100   0.00029
 196       12D+2        0.00003   0.00000  -0.00027  -0.00008  -0.00034
 197       12D-2        0.00002  -0.00004  -0.00008   0.00027  -0.00013
 198       13F 0        0.00000   0.00000   0.00000   0.00000   0.00000
 199       13F+1        0.00007  -0.00020   0.00007  -0.00024   0.00002
 200       13F-1        0.00021   0.00008   0.00024   0.00007   0.00006
 201       13F+2        0.00005   0.00002   0.00011   0.00003   0.00006
 202       13F-2        0.00002  -0.00005   0.00003  -0.00011   0.00002
 203       13F+3        0.00000   0.00000   0.00000   0.00000   0.00000
 204       13F-3        0.00000   0.00000   0.00000   0.00000   0.00000
 205       14F 0        0.00000   0.00001   0.00000   0.00001  -0.00001
 206       14F+1        0.00050  -0.00138  -0.00025   0.00082   0.00000
 207       14F-1        0.00137   0.00050  -0.00084  -0.00025   0.00001
 208       14F+2       -0.00012  -0.00005  -0.00023  -0.00007  -0.00015
 209       14F-2       -0.00004   0.00012  -0.00007   0.00023  -0.00006
 210       14F+3        0.00000   0.00000   0.00000   0.00000   0.00000
 211       14F-3        0.00000   0.00000   0.00000   0.00000   0.00000
                          16        17        18        19        20
     Eigenvalues --     1.94909   1.94878   1.93533   0.06020   0.02495
   1 1   C  1S          0.00123   0.05341  -0.01582  -0.02405  -0.00096
   2        2S         -0.00353  -0.15206   0.05106   0.06672   0.00350
   3        3S         -0.00088  -0.03587   0.01676   0.02432   0.00160
   4        4S         -0.00726  -0.29235   0.08712  -0.22079   0.00032
   5        5S         -0.00142  -0.05761   0.03919  -0.02878  -0.00050
   6        6PX        -0.06437   0.00230  -0.00017   0.00006  -0.11732
   7        6PY         0.02460  -0.00041  -0.00002   0.00013   0.10435
   8        6PZ        -0.00109  -0.04569  -0.12873   0.27944  -0.00028
   9        7PX        -0.08942   0.00324  -0.00034   0.00025  -0.21845
  10        7PY         0.03419  -0.00057  -0.00001   0.00019   0.19406
  11        7PZ        -0.00154  -0.06471  -0.18064   0.44337  -0.00045
  12        8PX        -0.06885   0.00239  -0.00036  -0.00012  -0.10005
  13        8PY         0.02620  -0.00065   0.00006  -0.00005   0.08950
  14        8PZ        -0.00161  -0.06413  -0.07650   0.20153  -0.00005
  15        9PX        -0.01154   0.00033  -0.00002  -0.00001  -0.02175
  16        9PY         0.00438  -0.00013   0.00004   0.00004   0.01995
  17        9PZ        -0.00002  -0.00123  -0.00164  -0.00007   0.00001
  18       10D 0        0.00024   0.00935  -0.01106  -0.00878  -0.00004
  19       10D+1        0.00348  -0.00010  -0.00001   0.00005  -0.01887
  20       10D-1       -0.00134   0.00003  -0.00001  -0.00002   0.01710
  21       10D+2        0.00175   0.00002  -0.00004   0.00000   0.00261
  22       10D-2       -0.00478   0.00019  -0.00003   0.00002  -0.00279
  23       11D 0        0.00124   0.04987  -0.04571   0.06668   0.00032
  24       11D+1        0.01439  -0.00043   0.00000   0.00004  -0.04416
  25       11D-1       -0.00552   0.00008  -0.00004   0.00010   0.04020
  26       11D+2        0.00596   0.00014  -0.00013   0.00029   0.04647
  27       11D-2       -0.01623   0.00078  -0.00017   0.00026  -0.05366
  28       12D 0        0.00069   0.02815  -0.00383  -0.01687   0.00004
  29       12D+1       -0.00110   0.00008  -0.00013   0.00012  -0.01408
  30       12D-1        0.00044   0.00008  -0.00012   0.00010   0.01247
  31       12D+2        0.00347   0.00024  -0.00014   0.00045   0.00970
  32       12D-2       -0.00965   0.00063  -0.00016   0.00027  -0.01197
  33       13F 0       -0.00005  -0.00209  -0.00328  -0.00587   0.00007
  34       13F+1        0.00210  -0.00006   0.00000  -0.00001   0.00727
  35       13F-1       -0.00081   0.00001  -0.00001  -0.00001  -0.00649
  36       13F+2       -0.00011   0.00001   0.00000  -0.00006   0.00206
  37       13F-2        0.00031  -0.00001   0.00001  -0.00005  -0.00233
  38       13F+3        0.00001  -0.00003   0.00001  -0.00001   0.00006
  39       13F-3       -0.00006  -0.00309   0.00116  -0.00055   0.00005
  40       14F 0       -0.00015  -0.00545  -0.00087   0.01162   0.00009
  41       14F+1        0.00679  -0.00016   0.00001  -0.00005   0.00205
  42       14F-1       -0.00262   0.00007  -0.00001   0.00002  -0.00179
  43       14F+2       -0.00112  -0.00002   0.00000   0.00012  -0.00141
  44       14F-2        0.00305  -0.00014   0.00002   0.00005   0.00176
  45       14F+3        0.00001  -0.00013   0.00008  -0.00032   0.00032
  46       14F-3       -0.00036  -0.01514   0.00917  -0.03764   0.00001
  47 2   H  1S         -0.01761  -0.03365   0.02891  -0.00684   0.02628
  48        2S         -0.01662  -0.00286   0.02291   0.08001   0.17177
  49        3S          0.00243   0.02210   0.02040   0.06916   0.11109
  50        4S          0.00039   0.00002   0.00199   0.00729   0.04825
  51        5PX        -0.00101   0.00004   0.00000   0.00001  -0.00222
  52        5PY        -0.00135  -0.00213   0.00249  -0.00201  -0.00586
  53        5PZ         0.00000  -0.00267  -0.00321   0.01430  -0.00820
  54        6PX        -0.00361   0.00015  -0.00001  -0.00011  -0.00592
  55        6PY         0.00214   0.00555  -0.00154   0.00982   0.03959
  56        6PZ        -0.00043  -0.00102  -0.01030   0.02830  -0.00380
  57        7PX        -0.00274   0.00029  -0.00012   0.00016   0.00074
  58        7PY         0.00378   0.01109  -0.00161   0.01265   0.03410
  59        7PZ         0.00126   0.00811   0.00308  -0.01391   0.00352
  60        8D 0        0.00015   0.00015  -0.00085   0.00060   0.00171
  61        8D+1        0.00003   0.00000   0.00000  -0.00001  -0.00135
  62        8D-1       -0.00011  -0.00020  -0.00171   0.00673  -0.00267
  63        8D+2        0.00020   0.00052  -0.00060   0.00186   0.00173
  64        8D-2       -0.00058   0.00002   0.00000   0.00000  -0.00165
  65        9D 0       -0.00005   0.00085  -0.00283   0.00598  -0.00223
  66        9D+1        0.00111  -0.00006   0.00001   0.00004  -0.00326
  67        9D-1       -0.00011   0.00201  -0.00054  -0.00588   0.01041
  68        9D+2       -0.00035   0.00106   0.00036  -0.00116  -0.00631
  69        9D-2       -0.00109   0.00006  -0.00002   0.00001  -0.00095
  70 3   H  1S          0.04596  -0.03532   0.02894  -0.00683  -0.04226
  71        2S          0.04659  -0.00486   0.02313   0.07980  -0.26011
  72        3S         -0.00462   0.02188   0.02034   0.06809  -0.16575
  73        4S         -0.00108   0.00011   0.00195   0.00722  -0.07015
  74        5PX         0.00295  -0.00193   0.00213  -0.00167   0.00763
  75        5PY        -0.00195   0.00114  -0.00125   0.00101  -0.00389
  76        5PZ        -0.00024  -0.00266  -0.00317   0.01413   0.01184
  77        6PX        -0.00495   0.00504  -0.00139   0.00868  -0.05064
  78        6PY         0.00223  -0.00296   0.00086  -0.00542   0.03147
  79        6PZ         0.00111  -0.00108  -0.01023   0.02828   0.00551
  80        7PX        -0.00848   0.01002  -0.00157   0.01103  -0.04394
  81        7PY         0.00445  -0.00556   0.00076  -0.00614   0.02507
  82        7PZ        -0.00270   0.00810   0.00307  -0.01368  -0.00535
  83        8D 0       -0.00041   0.00015  -0.00084   0.00057  -0.00247
  84        8D+1        0.00025  -0.00019  -0.00146   0.00576   0.00354
  85        8D-1       -0.00014   0.00011   0.00086  -0.00342  -0.00169
  86        8D+2        0.00017  -0.00025   0.00029  -0.00088   0.00153
  87        8D-2       -0.00050   0.00046  -0.00053   0.00157  -0.00196
  88        9D 0        0.00016   0.00084  -0.00280   0.00587   0.00346
  89        9D+1        0.00052   0.00169  -0.00048  -0.00489  -0.01258
  90        9D-1       -0.00011  -0.00106   0.00029   0.00295   0.00848
  91        9D+2       -0.00069  -0.00047  -0.00020   0.00056  -0.00446
  92        9D-2        0.00090   0.00091   0.00031  -0.00101   0.00855
  93 4   H  1S         -0.03080  -0.03251   0.02870  -0.00680   0.01263
  94        2S         -0.02963  -0.00191   0.02278   0.07957   0.08276
  95        3S          0.00424   0.02153   0.02054   0.06843   0.05351
  96        4S          0.00073   0.00017   0.00189   0.00716   0.02205
  97        5PX         0.00162   0.00179  -0.00215   0.00174   0.00098
  98        5PY         0.00190   0.00100  -0.00124   0.00102   0.00374
  99        5PZ         0.00004  -0.00268  -0.00322   0.01430  -0.00377
 100        6PX        -0.00469  -0.00453   0.00124  -0.00831  -0.02033
 101        6PY         0.00068  -0.00278   0.00077  -0.00498  -0.00321
 102        6PZ        -0.00078  -0.00090  -0.01030   0.02809  -0.00160
 103        7PX        -0.00678  -0.00938   0.00136  -0.01118  -0.01323
 104        7PY        -0.00138  -0.00541   0.00076  -0.00628  -0.00921
 105        7PZ         0.00206   0.00797   0.00326  -0.01407   0.00198
 106        8D 0        0.00026   0.00013  -0.00085   0.00061   0.00080
 107        8D+1        0.00018   0.00017   0.00148  -0.00582   0.00020
 108        8D-1        0.00008   0.00010   0.00085  -0.00337   0.00211
 109        8D+2        0.00023  -0.00027   0.00031  -0.00094   0.00140
 110        8D-2       -0.00054  -0.00043   0.00052  -0.00161  -0.00171
 111        9D 0       -0.00007   0.00083  -0.00282   0.00593  -0.00107
 112        9D+1        0.00065  -0.00177   0.00047   0.00510  -0.00631
 113        9D-1       -0.00067  -0.00102   0.00028   0.00296   0.00128
 114        9D+2        0.00109  -0.00059  -0.00017   0.00055   0.00250
 115        9D-2        0.00013  -0.00097  -0.00029   0.00096   0.00214
 116 5   Cl 1S          0.00024   0.01022   0.00049  -0.01679  -0.00001
 117        2S         -0.00092  -0.03900  -0.00165   0.05630   0.00002
 118        3S          0.00187   0.08060   0.01120  -0.15674  -0.00008
 119        4S          0.00029   0.01244   0.00451  -0.03985   0.00000
 120        5S          0.00164   0.06911   0.01216  -0.04608  -0.00008
 121        6S          0.00053   0.02043  -0.01254   0.01572   0.00001
 122        7PX        -0.20849   0.00558  -0.00008  -0.00001  -0.01563
 123        7PY         0.08005  -0.00095  -0.00005  -0.00006   0.01412
 124        7PZ         0.00079   0.02661  -0.21012  -0.16339  -0.00027
 125        8PX         0.47695  -0.01277   0.00018   0.00003   0.02439
 126        8PY        -0.18311   0.00217   0.00011   0.00014  -0.02203
 127        8PZ        -0.00183  -0.06213   0.46460   0.36065   0.00059
 128        9PX         0.23041  -0.00617   0.00009   0.00001   0.02598
 129        9PY        -0.08846   0.00105   0.00005   0.00008  -0.02346
 130        9PZ        -0.00089  -0.03100   0.21828   0.20644   0.00040
 131       10PX         0.34292  -0.00926   0.00018  -0.00002  -0.01247
 132       10PY        -0.13166   0.00155   0.00010  -0.00003   0.01133
 133       10PZ        -0.00200  -0.07218   0.31777   0.02943  -0.00027
 134       11PX         0.05802  -0.00159   0.00004   0.00000  -0.00446
 135       11PY        -0.02227   0.00027   0.00000   0.00000   0.00399
 136       11PZ        -0.00062  -0.02400   0.04619   0.00732  -0.00013
 137       12D 0       -0.00011  -0.00473  -0.01240   0.06745   0.00060
 138       12D+1       -0.00017  -0.00002   0.00001   0.00001   0.04294
 139       12D-1        0.00007   0.00000  -0.00001   0.00005  -0.03883
 140       12D+2        0.00009   0.00000   0.00000  -0.00001   0.00063
 141       12D-2       -0.00023   0.00001   0.00000   0.00000  -0.00055
 142       13D 0       -0.00016  -0.00756  -0.01943   0.09784   0.00090
 143       13D+1       -0.00058  -0.00002   0.00002   0.00000   0.06407
 144       13D-1        0.00023   0.00001  -0.00002   0.00008  -0.05796
 145       13D+2        0.00020   0.00000   0.00000  -0.00001   0.00099
 146       13D-2       -0.00053   0.00002   0.00000  -0.00001  -0.00086
 147       14D 0        0.00006   0.00152  -0.01324   0.03013   0.00009
 148       14D+1       -0.00311   0.00009   0.00000   0.00001   0.00695
 149       14D-1        0.00121  -0.00001  -0.00002   0.00005  -0.00637
 150       14D+2        0.00003   0.00000   0.00000  -0.00003   0.00020
 151       14D-2       -0.00006   0.00000   0.00000  -0.00002  -0.00017
 152       15F 0        0.00002   0.00099   0.00459  -0.00358  -0.00005
 153       15F+1        0.00130  -0.00003   0.00000   0.00000  -0.00369
 154       15F-1       -0.00050   0.00001   0.00000   0.00000   0.00333
[...]
  78        6PY        -0.34512   0.82154  -1.51469   0.33731  -0.78826
  79        6PZ        -0.33404  -0.00608   0.01767  -0.16312   0.12767
  80        7PX         0.44580  -9.33708  -3.02453  -1.76716   3.94668
  81        7PY        -0.93953   2.34605 -10.04857   0.94763  -4.79950
  82        7PZ        -1.70476  -3.12347   0.90938   0.00360   0.63963
  83        8D 0       -0.03611   0.00895  -0.00283   0.02447  -0.01376
  84        8D+1        0.01018  -0.02538  -0.01580   0.00843  -0.00949
  85        8D-1       -0.00778   0.00202  -0.03876  -0.00565   0.00954
  86        8D+2        0.06520   0.02426   0.10060   0.02438   0.02998
  87        8D-2       -0.10899   0.01993   0.05764  -0.04468  -0.01606
  88        9D 0       -0.48513   0.48111  -0.12658  -0.14555  -0.20317
  89        9D+1       -0.22807  -0.10296   0.24062  -0.04000   0.15619
  90        9D-1        0.15170   0.17247   0.29354   0.02731  -0.15735
  91        9D+2       -0.22392  -1.04755  -1.38383  -0.36825  -0.20319
  92        9D-2        0.20323   0.89332  -1.17794   0.61875  -0.36875
  93 4   H  1S         -0.03861  -0.00544  -0.00807  -0.00896   0.02503
  94        2S          0.48922   2.40760   2.44894  -0.52656  -2.04398
  95        3S          8.98812  19.19688  19.54983  -3.34559 -24.23012
  96        4S          1.52113  -1.36269  -1.36401  -2.04115 -10.37834
  97        5PX        -0.02443   0.10268   0.02895  -0.08171  -0.08439
  98        5PY        -0.01547  -0.02609   0.10182  -0.04611  -0.07085
  99        5PZ         0.05944   0.00403   0.00538   0.03003   0.00932
 100        6PX        -0.68028  -1.93619  -0.96296   0.62117   0.96152
 101        6PY        -0.36883   0.07044  -1.73611   0.34852   0.77890
 102        6PZ        -0.32326   0.03893   0.03281  -0.15903  -0.15080
 103        7PX        -1.46010  -9.45979  -2.12848   1.78430   5.37561
 104        7PY        -0.67460   3.17293  -9.80240   0.98500   4.58853
 105        7PZ        -1.27938   2.41449   2.43311   0.04212  -0.77534
 106        8D 0       -0.03865  -0.00610  -0.00894   0.02623   0.01742
 107        8D+1       -0.01152  -0.02978  -0.00046  -0.00828  -0.01191
 108        8D-1       -0.00598   0.01841  -0.03499  -0.00501  -0.00915
 109        8D+2        0.06281  -0.07420   0.07589   0.02317  -0.02827
 110        8D-2        0.11258   0.04210  -0.03748   0.04075  -0.02752
 111        9D 0       -0.50125  -0.31005  -0.33320  -0.14584   0.25017
 112        9D+1        0.21182   0.00737  -0.26680   0.03491   0.20433
 113        9D-1        0.11513  -0.31895   0.16561   0.01997   0.15636
 114        9D+2       -0.07434   1.59829  -0.62391  -0.36647   0.05952
 115        9D-2       -0.17217   0.17837   1.47813  -0.61468  -0.32406
 116 5   Cl 1S          0.02031  -0.00100  -0.00053   0.01174  -0.00012
 117        2S          0.28108  -0.01370  -0.00712   0.16327  -0.00188
 118        3S          0.78345  -0.03853  -0.02047   0.45877  -0.00476
 119        4S         -0.04256   0.00155   0.00022  -0.01460   0.00095
 120        5S         -4.36357   0.21599   0.12376  -3.02431   0.03136
 121        6S         -9.80272   0.52449   0.29683 -13.23073   0.04673
 122        7PX         0.00001   0.00066   0.00020  -0.00003  -0.00298
 123        7PY        -0.00009  -0.00018   0.00076  -0.00014  -0.00047
 124        7PZ        -0.00452   0.00047   0.00037  -0.02270   0.00002
 125        8PX         0.00037   0.01650   0.00441  -0.00059  -0.05936
 126        8PY        -0.00139  -0.00494   0.01774  -0.00232  -0.00919
 127        8PZ        -0.06366   0.00626   0.00491  -0.31653   0.00016
 128        9PX        -0.00014  -0.00334  -0.00105   0.00012   0.01000
 129        9PY         0.00033   0.00088  -0.00375   0.00050   0.00162
 130        9PZ         0.00167  -0.00098  -0.00091   0.07950  -0.00008
 131       10PX         0.01428  -0.05930  -0.00987   0.00426   0.42127
 132       10PY         0.01368   0.02169  -0.05839   0.01475   0.06385
 133       10PZ         5.90885  -0.31127  -0.17983   5.07076  -0.02452
 134       11PX        -0.05607  -1.09782  -0.29465  -0.00389  -0.24053
 135       11PY        -0.00707   0.31503  -1.10853   0.00178  -0.03237
 136       11PZ         0.78791  -0.04450  -0.02249   3.35316  -0.00921
 137       12D 0        0.06812  -0.00344  -0.00203   0.00185   0.00002
 138       12D+1        0.00194   0.02925   0.00797   0.00013  -0.00374
 139       12D-1        0.00027  -0.00836   0.02983  -0.00011  -0.00072
 140       12D+2       -0.00078   0.00196  -0.00794  -0.00016   0.00190
 141       12D-2       -0.00150  -0.00763  -0.00225  -0.00010   0.01210
 142       13D 0       -0.38826   0.01939   0.01096  -0.07059   0.00007
 143       13D+1       -0.00755  -0.10726  -0.02952  -0.00022   0.02576
 144       13D-1       -0.00097   0.03052  -0.11002   0.00082   0.00453
 145       13D+2        0.00220  -0.00445   0.01837   0.00042  -0.00683
 146       13D-2        0.00416   0.01747   0.00524   0.00036  -0.04362
 147       14D 0       -1.39076   0.07586   0.04447  -1.23730   0.00393
 148       14D+1        0.00924   0.29151   0.07430  -0.00134  -0.32553
 149       14D-1       -0.00492  -0.08720   0.29483  -0.01003  -0.04969
 150       14D+2       -0.00086   0.01901  -0.06228   0.00046   0.03135
 151       14D-2       -0.00368  -0.06347  -0.01458  -0.00211   0.20050
 152       15F 0       -0.04296   0.00258   0.00147   0.00126  -0.00009
 153       15F+1        0.00012   0.00462   0.00119  -0.00025  -0.01851
 154       15F-1       -0.00011  -0.00139   0.00478  -0.00061  -0.00269
 155       15F+2        0.00001   0.00267  -0.00892   0.00008   0.00164
 156       15F-2       -0.00020  -0.00931  -0.00220  -0.00040   0.01028
 157       15F+3       -0.00010  -0.00020   0.00005   0.00020   0.00021
 158       15F-3       -0.00934   0.00041   0.00070   0.02289   0.00000
 159       16F 0        0.23304  -0.01290  -0.00780   0.08859   0.00031
 160       16F+1        0.00025  -0.01526  -0.00315   0.00063   0.06333
 161       16F-1        0.00087   0.00516  -0.01509   0.00218   0.00917
 162       16F+2        0.00009  -0.01269   0.04323  -0.00035  -0.00668
 163       16F-2        0.00140   0.04440   0.01069   0.00116  -0.04230
 164       16F+3        0.00021   0.00036  -0.00009  -0.00037  -0.00045
 165       16F-3        0.01947  -0.00091  -0.00158  -0.04273  -0.00004
 166 6   F  1S          0.04023  -0.00172  -0.00093  -0.02269  -0.00017
 167        2S          0.14159  -0.00582  -0.00300  -0.08615  -0.00072
 168        3S         -0.07207   0.00327   0.00190   0.03675   0.00015
 169        4S         -0.37844   0.01535   0.00709  -0.01990   0.00480
 170        5S         -0.07125   0.00001  -0.02588  -5.93823   0.03164
 171        6PX        -0.00042  -0.00698  -0.00190   0.00001   0.00168
 172        6PY        -0.00012   0.00201  -0.00715   0.00002   0.00027
 173        6PZ         0.00533  -0.00040  -0.00032   0.00222   0.00003
 174        7PX         0.00195   0.03617   0.00966  -0.00002  -0.00608
 175        7PY         0.00049  -0.01054   0.03687  -0.00005  -0.00098
 176        7PZ        -0.06325   0.00379   0.00267   0.00270  -0.00012
 177        8PX        -0.01161  -0.25348  -0.06681  -0.00051   0.00167
 178        8PY        -0.00265   0.07412  -0.25619  -0.00080   0.00042
 179        8PZ         0.62610  -0.03465  -0.02554  -0.24728   0.00214
 180        9PX        -0.02913  -0.80245  -0.21381  -0.00160  -0.22548
 181        9PY        -0.00162   0.23092  -0.80729  -0.00089  -0.03198
 182        9PZ        -0.87369   0.04747   0.02582  -2.49327   0.01193
 183       10D 0        0.01130  -0.00051  -0.00013  -0.00797   0.00003
 184       10D+1       -0.00046  -0.01414  -0.00375   0.00010   0.00226
 185       10D-1        0.00010   0.00410  -0.01432   0.00019   0.00036
 186       10D+2        0.00011  -0.00127   0.00491   0.00003   0.00048
 187       10D-2        0.00044   0.00473   0.00130   0.00002   0.00286
 188       11D 0       -0.04181   0.00199   0.00057   0.01569  -0.00001
 189       11D+1        0.00143   0.04543   0.01205  -0.00029  -0.00401
 190       11D-1       -0.00030  -0.01320   0.04604  -0.00056  -0.00067
 191       11D+2       -0.00056   0.00425  -0.01668  -0.00018  -0.00169
 192       11D-2       -0.00170  -0.01607  -0.00453  -0.00010  -0.01009
 193       12D 0        0.41468  -0.02134  -0.01169  -0.01137  -0.00049
 194       12D+1       -0.00319  -0.13335  -0.03394   0.00043  -0.03032
 195       12D-1        0.00054   0.04006  -0.13461   0.00066  -0.00463
 196       12D+2        0.00235  -0.01529   0.06197   0.00052   0.00316
 197       12D-2        0.00670   0.06005   0.01742   0.00033   0.01908
 198       13F 0       -0.02732   0.00149   0.00083  -0.00759   0.00006
 199       13F+1       -0.00074  -0.01780  -0.00485  -0.00010   0.00798
 200       13F-1       -0.00004   0.00497  -0.01777   0.00003   0.00121
 201       13F+2       -0.00009   0.00227  -0.00891   0.00015   0.00042
 202       13F-2       -0.00057  -0.00882  -0.00247   0.00012   0.00276
 203       13F+3        0.00013   0.00039  -0.00006  -0.00001   0.00004
 204       13F-3        0.01286  -0.00047  -0.00006  -0.00131   0.00007
 205       14F 0        0.06787  -0.00366  -0.00195   0.01177  -0.00012
 206       14F+1        0.00199   0.03832   0.01072   0.00017  -0.01760
 207       14F-1        0.00027  -0.01049   0.03843  -0.00008  -0.00273
 208       14F+2        0.00022  -0.00626   0.02450  -0.00025  -0.00104
 209       14F-2        0.00153   0.02438   0.00681  -0.00016  -0.00658
 210       14F+3       -0.00018  -0.00065   0.00011   0.00002  -0.00006
 211       14F-3       -0.01739   0.00059   0.00004   0.00249  -0.00013
                         211
     Eigenvalues --     0.00000
   1 1   C  1S         -0.00259
   2        2S         -0.01513
   3        3S         -0.00239
   4        4S         -0.21025
   5        5S         -0.08981
   6        6PX         0.00102
   7        6PY        -0.00751
   8        6PZ        -0.00003
   9        7PX        -0.20632
  10        7PY         1.51348
  11        7PZ         0.00257
  12        8PX        -2.49718
  13        8PY        17.16557
  14        8PZ        -0.00940
  15        9PX        -1.16925
  16        9PY         7.82050
  17        9PZ        -0.01510
  18       10D 0        0.00007
  19       10D+1        0.00022
  20       10D-1       -0.00175
  21       10D+2        0.02135
  22       10D-2       -0.00302
  23       11D 0        0.00223
  24       11D+1        0.02723
  25       11D-1       -0.20337
  26       11D+2        0.40149
  27       11D-2       -0.04585
  28       12D 0       -0.07326
  29       12D+1        0.19048
  30       12D-1       -1.27459
  31       12D+2       -0.61066
  32       12D-2        0.12965
  33       13F 0       -0.00017
  34       13F+1       -0.00600
  35       13F-1        0.03825
  36       13F+2        0.00928
  37       13F-2       -0.00150
  38       13F+3       -0.00062
  39       13F-3        0.00075
  40       14F 0        0.00100
  41       14F+1        0.05956
  42       14F-1       -0.40286
  43       14F+2       -0.07563
  44       14F-2        0.00979
  45       14F+3        0.00031
  46       14F-3       -0.01088
  47 2   H  1S         -0.02610
  48        2S          2.20481
  49        3S         25.58154
  50        4S         11.03591
  51        5PX        -0.00807
  52        5PY        -0.11639
  53        5PZ        -0.01080
  54        6PX         0.08022
  55        6PY         1.30987
  56        6PZ         0.16786
  57        7PX         0.55947
  58        7PY         7.37627
  59        7PZ         0.79118
  60        8D 0       -0.01869
  61        8D+1       -0.00100
  62        8D-1       -0.01522
  63        8D+2       -0.03958
  64        8D-2       -0.00492
  65        9D 0       -0.26023
  66        9D+1        0.01461
  67        9D-1        0.27037
  68        9D+2       -0.27679
  69        9D-2        0.09035
  70 3   H  1S          0.01620
  71        2S         -1.33347
  72        3S        -15.91774
  73        4S         -6.93335
  74        5PX         0.08359
  75        5PY        -0.00238
  76        5PZ         0.00644
  77        6PX        -0.89645
  78        6PY         0.06482
  79        6PZ        -0.10220
  80        7PX        -5.31580
  81        7PY        -0.04041
  82        7PZ        -0.50224
  83        8D 0        0.01099
  84        8D+1        0.01103
  85        8D-1       -0.00120
  86        8D+2        0.00861
  87        8D-2        0.03259
  88        9D 0        0.16861
  89        9D+1       -0.18470
  90        9D-1        0.02438
  91        9D+2       -0.46857
  92        9D-2       -0.07475
  93 4   H  1S          0.01025
  94        2S         -0.82363
  95        3S         -9.57790
  96        4S         -4.07778
  97        5PX        -0.06116
  98        5PY         0.02078
  99        5PZ         0.00374
 100        6PX         0.66617
 101        6PY        -0.17743
 102        6PZ        -0.06109
 103        7PX         4.00385
 104        7PY        -1.49422
 105        7PZ        -0.30947
 106        8D 0        0.00675
 107        8D+1       -0.00743
 108        8D-1        0.00167
 109        8D+2        0.01535
 110        8D-2       -0.02694
 111        9D 0        0.10190
 112        9D+1        0.13121
 113        9D-1       -0.02422
 114        9D+2       -0.51073
 115        9D-2        0.18477
 116 5   Cl 1S         -0.00014
 117        2S         -0.00214
 118        3S         -0.00554
 119        4S          0.00086
 120        5S          0.03325
 121        6S          0.07352
 122        7PX         0.00040
 123        7PY        -0.00291
 124        7PZ         0.00013
 125        8PX         0.00826
 126        8PY        -0.05799
 127        8PZ         0.00155
 128        9PX        -0.00132
 129        9PY         0.00974
 130        9PZ        -0.00045
 131       10PX        -0.06065
 132       10PY         0.41578
 133       10PZ        -0.03611
 134       11PX         0.04062
 135       11PY        -0.25093
 136       11PZ        -0.01874
 137       12D 0        0.00002
 138       12D+1        0.00034
 139       12D-1       -0.00338
 140       12D+2        0.01186
 141       12D-2       -0.00188
 142       13D 0        0.00031
 143       13D+1       -0.00290
 144       13D-1        0.02418
 145       13D+2       -0.04295
 146       13D-2        0.00680
 147       14D 0        0.00796
 148       14D+1        0.04600
 149       14D-1       -0.31797
 150       14D+2        0.19953
 151       14D-2       -0.03162
 152       15F 0       -0.00002
 153       15F+1        0.00275
 154       15F-1       -0.01809
 155       15F+2        0.01041
 156       15F-2       -0.00162
 157       15F+3       -0.00014
 158       15F-3       -0.00012
 159       16F 0       -0.00022
 160       16F+1       -0.00942
 161       16F-1        0.06170
 162       16F+2       -0.04233
 163       16F-2        0.00665
 164       16F+3        0.00031
 165       16F-3        0.00024
 166 6   F  1S         -0.00026
 167        2S         -0.00113
 168        3S          0.00022
 169        4S          0.00662
 170        5S          0.03665
 171        6PX        -0.00022
 172        6PY         0.00164
 173        6PZ        -0.00002
 174        7PX         0.00079
 175        7PY        -0.00588
 176        7PZ         0.00005
 177        8PX         0.00012
 178        8PY         0.00034
 179        8PZ         0.00327
 180        9PX         0.03576
 181        9PY        -0.23067
 182        9PZ         0.01501
 183       10D 0        0.00000
 184       10D+1       -0.00029
 185       10D-1        0.00207
 186       10D+2        0.00280
 187       10D-2       -0.00041
 188       11D 0        0.00008
 189       11D+1        0.00044
 190       11D-1       -0.00345
 191       11D+2       -0.00995
 192       11D-2        0.00147
 193       12D 0       -0.00017
 194       12D+1        0.00466
 195       12D-1       -0.03218
 196       12D+2        0.01907
 197       12D-2       -0.00286
 198       13F 0        0.00006
 199       13F+1       -0.00116
 200       13F-1        0.00798
 201       13F+2        0.00254
 202       13F-2       -0.00041
 203       13F+3       -0.00003
 204       13F-3        0.00016
 205       14F 0       -0.00011
 206       14F+1        0.00251
 207       14F-1       -0.01766
 208       14F+2       -0.00619
 209       14F-2        0.00097
 210       14F+3        0.00006
 211       14F-3       -0.00030
          Condensed to atoms (all electrons):
              1          2          3          4          5          6
     1  C    7.005253  -0.009114  -0.005285  -0.009070  -0.050937  -0.099806
     2  H   -0.009114   0.546745   0.019007   0.020608  -0.018939   0.004431
     3  H   -0.005285   0.019007   0.546779   0.020446  -0.018818   0.004129
     4  H   -0.009070   0.020608   0.020446   0.546941  -0.018776   0.004229
     5  Cl  -0.050937  -0.018939  -0.018818  -0.018776  17.709525   0.026416
     6  F   -0.099806   0.004431   0.004129   0.004229   0.026416   9.907715
 Mulliken atomic charges:
              1
     1  C   -0.831041
     2  H    0.437262
     3  H    0.433742
     4  H    0.435621
     5  Cl  -0.628471
     6  F   -0.847114
 Sum of Mulliken atomic charges =  -1.00000
 Mulliken charges with hydrogens summed into heavy atoms:
              1
     1  C    0.475585
     5  Cl  -0.628471
     6  F   -0.847114
 Sum of Mulliken charges with hydrogens summed into heavy atoms =  -1.00000
 Electronic spatial extent (au):  <R**2>=            490.3597
 Charge=             -1.0000 electrons
 Dipole moment (field-independent basis, Debye):
    X=              0.0003    Y=              0.0034    Z=              4.0651  Tot=              4.0651
 Quadrupole moment (field-independent basis, Debye-Ang):
   XX=            -28.1943   YY=            -28.1714   ZZ=            -62.8271
   XY=             -0.0105   XZ=             -0.0066   YZ=             -0.0168
 Traceless Quadrupole moment (field-independent basis, Debye-Ang):
   XX=             11.5366   YY=             11.5595   ZZ=            -23.0961
   XY=             -0.0105   XZ=             -0.0066   YZ=             -0.0168
 Octapole moment (field-independent basis, Debye-Ang**2):
  XXX=             -0.0137  YYY=             -0.9992  ZZZ=             49.6908  XYY=             -0.0156
  XXY=              0.9391  XXZ=             -4.2299  XZZ=             -0.0078  YZZ=              0.0038
  YYZ=             -4.2429  XYZ=              0.0069
 Hexadecapole moment (field-independent basis, Debye-Ang**3):
 XXXX=            -41.3170 YYYY=            -41.3035 ZZZZ=           -761.6894 XXXY=              0.0107
 XXXZ=             -0.0602 YYYX=              0.0094 YYYZ=              0.5291 ZZZX=             -0.0727
 ZZZY=             -0.1711 XXYY=            -13.7578 XXZZ=           -103.3993 YYZZ=           -103.3952
 XXYZ=             -0.6766 YYXZ=             -0.0127 ZZXY=              0.0034
 N-N= 8.496350676967D+01 E-N=-1.604134874469D+03  KE= 5.991880429709D+02
 1\1\GINC-TRAPISTA\SP\RQCISD-FC\Aug-CC-pVTZ\C1H3Cl1F1(1-)\BRUNS\24-Aug-
 2020\0\\# QCISD aug-cc-pvtz nosymm density=current output=wfn\\clch3f_
 ts-wavefunction\\-1,1\C,0,0.000175,0.000029,-0.497709\H,0,0.000019,-1.
 05257,-0.620726\H,0,-0.911312,0.536365,-0.621245\H,0,0.91175,0.526132,
 -0.62157\Cl,0,0.000555,0.000962,1.644718\F,0,-0.000186,-0.000921,-2.59
 3468\\Version=EM64L-G09RevB.01\HF=-598.6170984\MP2=-599.291318\MP3=-59
 9.3100128\MP4D=-599.3249134\MP4DQ=-599.3104673\MP4SDQ=-599.3198395\QCI
 SD=-599.3192224\RMSD=9.384e-09\Dipole=0.0006367,0.0023317,1.586882\Qua
 drupole=8.5771962,8.5942022,-17.1713984,-0.0078058,-0.0048868,-0.01251
 58\PG=C01 [X(C1H3Cl1F1)]\\@

 Writing a WFN file to GAUSSIAN.wfn.


 BULLDOZER: SOMEONE WHO SLEEPS THROUGH SPEECHES.
 Job cpu time:  0 days  3 hours 16 minutes 38.8 seconds.
 File lengths (MBytes):  RWF=  29002 Int=      0 D2E=      0 Chk=      4 Scr=      1
 Normal termination of Gaussian 09 at Mon Aug 24 02:31:34 2020.
