 clch3f_ts-wavefunction
GAUSSIAN            211 MOL ORBITALS    339 PRIMITIVES        6 NUCLEI
  C    1    (CENTRE  1)   0.00033070  0.00005480 -0.94053370  CHARGE =  6.0
  H    2    (CENTRE  2)   0.00003590 -1.98906904 -1.17300214  CHARGE =  1.0
  H    3    (CENTRE  3)  -1.72213010  0.99468570 -1.17398291  CHARGE =  1.0
  H    4    (CENTRE  4)   1.72295780  0.99424539 -1.17459707  CHARGE =  1.0
  Cl   5    (CENTRE  5)   0.00104880 -0.01707934  3.10806659  CHARGE = 17.0
  F    6    (CENTRE  6)  -0.00035149 -0.00174044 -4.90094425  CHARGE =  9.0
CENTRE ASSIGNMENTS    1  1  1  1  1  1  1  1  1  1  1  1  1  1  1  1  1  1  1  1
CENTRE ASSIGNMENTS    1  1  1  1  1  1  1  1  1  1  1  1  1  1  1  1  1  1  1  1
CENTRE ASSIGNMENTS    1  1  1  1  1  1  1  1  1  1  1  1  1  1  1  1  1  1  1  1
CENTRE ASSIGNMENTS    1  1  1  1  1  1  1  1  1  1  1  1  2  2  2  2  2  2  2  2
CENTRE ASSIGNMENTS    2  2  2  2  2  2  2  2  2  2  2  2  2  2  2  2  2  2  2  3
CENTRE ASSIGNMENTS    3  3  3  3  3  3  3  3  3  3  3  3  3  3  3  3  3  3  3  3
CENTRE ASSIGNMENTS    3  3  3  3  3  3  4  4  4  4  4  4  4  4  4  4  4  4  4  4
CENTRE ASSIGNMENTS    4  4  4  4  4  4  4  4  4  4  4  4  4  5  5  5  5  5  5  5
CENTRE ASSIGNMENTS    5  5  5  5  5  5  5  5  5  5  5  5  5  5  5  5  5  5  5  5
CENTRE ASSIGNMENTS    5  5  5  5  5  5  5  5  5  5  5  5  5  5  5  5  5  5  5  5
CENTRE ASSIGNMENTS    5  5  5  5  5  5  5  5  5  5  5  5  5  5  5  5  5  5  5  5
CENTRE ASSIGNMENTS    5  5  5  5  5  5  5  5  5  5  5  5  5  5  5  5  5  5  5  5
CENTRE ASSIGNMENTS    5  5  5  5  5  5  5  5  5  5  5  5  5  5  5  5  5  5  5  5
CENTRE ASSIGNMENTS    5  5  5  5  5  5  5  6  6  6  6  6  6  6  6  6  6  6  6  6
CENTRE ASSIGNMENTS    6  6  6  6  6  6  6  6  6  6  6  6  6  6  6  6  6  6  6  6
CENTRE ASSIGNMENTS    6  6  6  6  6  6  6  6  6  6  6  6  6  6  6  6  6  6  6  6
CENTRE ASSIGNMENTS    6  6  6  6  6  6  6  6  6  6  6  6  6  6  6  6  6  6  6
TYPE ASSIGNMENTS      1  1  1  1  1  1  1  1  1  1  1  1  1  1  1  1  2  2  2  3
TYPE ASSIGNMENTS      3  3  4  4  4  2  3  4  2  3  4  2  3  4  5  6  7  8  9 10
TYPE ASSIGNMENTS      5  6  7  8  9 10  5  6  7  8  9 10 11 12 13 17 14 15 18 19
TYPE ASSIGNMENTS     16 20 11 12 13 17 14 15 18 19 16 20  1  1  1  1  1  1  2  3
TYPE ASSIGNMENTS      4  2  3  4  2  3  4  5  6  7  8  9 10  5  6  7  8  9 10  1
TYPE ASSIGNMENTS      1  1  1  1  1  2  3  4  2  3  4  2  3  4  5  6  7  8  9 10
TYPE ASSIGNMENTS      5  6  7  8  9 10  1  1  1  1  1  1  2  3  4  2  3  4  2  3
TYPE ASSIGNMENTS      4  5  6  7  8  9 10  5  6  7  8  9 10  1  1  1  1  1  1  1
TYPE ASSIGNMENTS      1  1  1  1  1  1  1  1  1  1  1  1  1  1  1  1  1  1  1  1
TYPE ASSIGNMENTS      1  1  1  1  2  2  2  2  2  2  3  3  3  3  3  3  4  4  4  4
TYPE ASSIGNMENTS      4  4  2  2  2  2  2  2  3  3  3  3  3  3  4  4  4  4  4  4
TYPE ASSIGNMENTS      2  3  4  2  3  4  2  3  4  5  6  7  8  9 10  5  6  7  8  9
TYPE ASSIGNMENTS     10  5  6  7  8  9 10 11 12 13 17 14 15 18 19 16 20 11 12 13
TYPE ASSIGNMENTS     17 14 15 18 19 16 20  1  1  1  1  1  1  1  1  1  1  1  1  1
TYPE ASSIGNMENTS      1  1  1  2  2  2  3  3  3  4  4  4  2  3  4  2  3  4  2  3
TYPE ASSIGNMENTS      4  5  6  7  8  9 10  5  6  7  8  9 10  5  6  7  8  9 10 11
TYPE ASSIGNMENTS     12 13 17 14 15 18 19 16 20 11 12 13 17 14 15 18 19 16 20
EXPONENTS  0.8236000D+04 0.1235000D+04 0.2808000D+03 0.7927000D+02 0.2559000D+02
EXPONENTS  0.8997000D+01 0.3319000D+01 0.2808000D+03 0.7927000D+02 0.2559000D+02
EXPONENTS  0.8997000D+01 0.3319000D+01 0.3643000D+00 0.9059000D+00 0.1285000D+00
EXPONENTS  0.4402000D-01 0.1871000D+02 0.4133000D+01 0.1200000D+01 0.1871000D+02
EXPONENTS  0.4133000D+01 0.1200000D+01 0.1871000D+02 0.4133000D+01 0.1200000D+01
EXPONENTS  0.3827000D+00 0.3827000D+00 0.3827000D+00 0.1209000D+00 0.1209000D+00
EXPONENTS  0.1209000D+00 0.3569000D-01 0.3569000D-01 0.3569000D-01 0.1097000D+01
EXPONENTS  0.1097000D+01 0.1097000D+01 0.1097000D+01 0.1097000D+01 0.1097000D+01
EXPONENTS  0.3180000D+00 0.3180000D+00 0.3180000D+00 0.3180000D+00 0.3180000D+00
EXPONENTS  0.3180000D+00 0.1000000D+00 0.1000000D+00 0.1000000D+00 0.1000000D+00
EXPONENTS  0.1000000D+00 0.1000000D+00 0.7610000D+00 0.7610000D+00 0.7610000D+00
EXPONENTS  0.7610000D+00 0.7610000D+00 0.7610000D+00 0.7610000D+00 0.7610000D+00
EXPONENTS  0.7610000D+00 0.7610000D+00 0.2680000D+00 0.2680000D+00 0.2680000D+00
EXPONENTS  0.2680000D+00 0.2680000D+00 0.2680000D+00 0.2680000D+00 0.2680000D+00
EXPONENTS  0.2680000D+00 0.2680000D+00 0.3387000D+02 0.5095000D+01 0.1159000D+01
EXPONENTS  0.3258000D+00 0.1027000D+00 0.2526000D-01 0.1407000D+01 0.1407000D+01
EXPONENTS  0.1407000D+01 0.3880000D+00 0.3880000D+00 0.3880000D+00 0.1020000D+00
EXPONENTS  0.1020000D+00 0.1020000D+00 0.1057000D+01 0.1057000D+01 0.1057000D+01
EXPONENTS  0.1057000D+01 0.1057000D+01 0.1057000D+01 0.2470000D+00 0.2470000D+00
EXPONENTS  0.2470000D+00 0.2470000D+00 0.2470000D+00 0.2470000D+00 0.3387000D+02
EXPONENTS  0.5095000D+01 0.1159000D+01 0.3258000D+00 0.1027000D+00 0.2526000D-01
EXPONENTS  0.1407000D+01 0.1407000D+01 0.1407000D+01 0.3880000D+00 0.3880000D+00
EXPONENTS  0.3880000D+00 0.1020000D+00 0.1020000D+00 0.1020000D+00 0.1057000D+01
EXPONENTS  0.1057000D+01 0.1057000D+01 0.1057000D+01 0.1057000D+01 0.1057000D+01
EXPONENTS  0.2470000D+00 0.2470000D+00 0.2470000D+00 0.2470000D+00 0.2470000D+00
EXPONENTS  0.2470000D+00 0.3387000D+02 0.5095000D+01 0.1159000D+01 0.3258000D+00
EXPONENTS  0.1027000D+00 0.2526000D-01 0.1407000D+01 0.1407000D+01 0.1407000D+01
EXPONENTS  0.3880000D+00 0.3880000D+00 0.3880000D+00 0.1020000D+00 0.1020000D+00
EXPONENTS  0.1020000D+00 0.1057000D+01 0.1057000D+01 0.1057000D+01 0.1057000D+01
EXPONENTS  0.1057000D+01 0.1057000D+01 0.2470000D+00 0.2470000D+00 0.2470000D+00
EXPONENTS  0.2470000D+00 0.2470000D+00 0.2470000D+00 0.4561000D+06 0.6833000D+05
EXPONENTS  0.1555000D+05 0.4405000D+04 0.1439000D+04 0.5204000D+03 0.2031000D+03
EXPONENTS  0.8396000D+02 0.3620000D+02 0.1583000D+02 0.6334000D+01 0.4405000D+04
EXPONENTS  0.1439000D+04 0.5204000D+03 0.2031000D+03 0.8396000D+02 0.3620000D+02
EXPONENTS  0.1583000D+02 0.6334000D+01 0.2694000D+01 0.1439000D+04 0.2031000D+03
EXPONENTS  0.8396000D+02 0.3620000D+02 0.1583000D+02 0.6334000D+01 0.2694000D+01
EXPONENTS  0.4313000D+00 0.9768000D+00 0.1625000D+00 0.5910000D-01 0.6633000D+03
EXPONENTS  0.1568000D+03 0.4998000D+02 0.1842000D+02 0.7240000D+01 0.2922000D+01
EXPONENTS  0.6633000D+03 0.1568000D+03 0.4998000D+02 0.1842000D+02 0.7240000D+01
EXPONENTS  0.2922000D+01 0.6633000D+03 0.1568000D+03 0.4998000D+02 0.1842000D+02
EXPONENTS  0.7240000D+01 0.2922000D+01 0.1568000D+03 0.4998000D+02 0.1842000D+02
EXPONENTS  0.7240000D+01 0.2922000D+01 0.3818000D+00 0.1568000D+03 0.4998000D+02
EXPONENTS  0.1842000D+02 0.7240000D+01 0.2922000D+01 0.3818000D+00 0.1568000D+03
EXPONENTS  0.4998000D+02 0.1842000D+02 0.7240000D+01 0.2922000D+01 0.3818000D+00
EXPONENTS  0.1022000D+01 0.1022000D+01 0.1022000D+01 0.1301000D+00 0.1301000D+00
EXPONENTS  0.1301000D+00 0.4190000D-01 0.4190000D-01 0.4190000D-01 0.1046000D+01
EXPONENTS  0.1046000D+01 0.1046000D+01 0.1046000D+01 0.1046000D+01 0.1046000D+01
EXPONENTS  0.3440000D+00 0.3440000D+00 0.3440000D+00 0.3440000D+00 0.3440000D+00
EXPONENTS  0.3440000D+00 0.1350000D+00 0.1350000D+00 0.1350000D+00 0.1350000D+00
EXPONENTS  0.1350000D+00 0.1350000D+00 0.7060000D+00 0.7060000D+00 0.7060000D+00
EXPONENTS  0.7060000D+00 0.7060000D+00 0.7060000D+00 0.7060000D+00 0.7060000D+00
EXPONENTS  0.7060000D+00 0.7060000D+00 0.3120000D+00 0.3120000D+00 0.3120000D+00
EXPONENTS  0.3120000D+00 0.3120000D+00 0.3120000D+00 0.3120000D+00 0.3120000D+00
EXPONENTS  0.3120000D+00 0.3120000D+00 0.1950000D+05 0.2923000D+04 0.6645000D+03
EXPONENTS  0.1875000D+03 0.6062000D+02 0.2142000D+02 0.7950000D+01 0.6645000D+03
EXPONENTS  0.1875000D+03 0.6062000D+02 0.2142000D+02 0.7950000D+01 0.8815000D+00
EXPONENTS  0.2257000D+01 0.3041000D+00 0.9158000D-01 0.4388000D+02 0.9926000D+01
EXPONENTS  0.2930000D+01 0.4388000D+02 0.9926000D+01 0.2930000D+01 0.4388000D+02
EXPONENTS  0.9926000D+01 0.2930000D+01 0.9132000D+00 0.9132000D+00 0.9132000D+00
EXPONENTS  0.2672000D+00 0.2672000D+00 0.2672000D+00 0.7361000D-01 0.7361000D-01
EXPONENTS  0.7361000D-01 0.3107000D+01 0.3107000D+01 0.3107000D+01 0.3107000D+01
EXPONENTS  0.3107000D+01 0.3107000D+01 0.8550000D+00 0.8550000D+00 0.8550000D+00
EXPONENTS  0.8550000D+00 0.8550000D+00 0.8550000D+00 0.2920000D+00 0.2920000D+00
EXPONENTS  0.2920000D+00 0.2920000D+00 0.2920000D+00 0.2920000D+00 0.1917000D+01
EXPONENTS  0.1917000D+01 0.1917000D+01 0.1917000D+01 0.1917000D+01 0.1917000D+01
EXPONENTS  0.1917000D+01 0.1917000D+01 0.1917000D+01 0.1917000D+01 0.7240000D+00
EXPONENTS  0.7240000D+00 0.7240000D+00 0.7240000D+00 0.7240000D+00 0.7240000D+00
EXPONENTS  0.7240000D+00 0.7240000D+00 0.7240000D+00 0.7240000D+00
MO    1     MO 0.0        OCC NO =    2.0000300  ORB. ENERGY =    0.000000
  0.44908134D-04  0.83717809D-04  0.14149450D-03  0.21269263D-03  0.26125480D-03
  0.22048983D-03  0.82909935D-04 -0.20411205D-07 -0.15256111D-06 -0.57015571D-06
 -0.15906456D-05 -0.21310266D-05  0.25163451D-05  0.78312996D-05 -0.28589911D-04
 -0.28492476D-05  0.13520163D-07  0.12676013D-07  0.90260762D-08  0.11239041D-03
  0.10537315D-03  0.75031959D-04  0.77496277D-05  0.72657686D-05  0.51736601D-05
  0.38802270D-07  0.36178562D-03  0.12356474D-05  0.48422289D-07  0.46290200D-03
 -0.13089491D-05  0.91367639D-09  0.92875771D-05  0.35114589D-07  0.62945564D-04
 -0.62099776D-04 -0.84578750D-06 -0.12602866D-06 -0.77030298D-07 -0.51013888D-03
  0.19282222D-03 -0.19545700D-03  0.26347766D-05 -0.89643698D-07 -0.55750823D-07
  0.99930517D-04  0.41372636D-04 -0.40612359D-04 -0.76027773D-06 -0.34265380D-07
 -0.21526042D-07 -0.65653358D-04  0.13950212D-07  0.92945063D-04 -0.11215684D-05
  0.58366457D-08  0.91520849D-04  0.25533677D-04 -0.47687280D-07 -0.37035604D-03
 -0.22168972D-04 -0.17592728D-06  0.59337541D-08 -0.25504882D-04  0.33720007D-06
 -0.10275893D-07 -0.30253620D-04  0.51417616D-04 -0.75253688D-08  0.10676827D-03
 -0.52429217D-04  0.20185922D-07 -0.39586548D-04 -0.71395970D-04 -0.10527332D-03
  0.37906296D-03  0.11269366D-02 -0.12157610D-04  0.13650312D-07  0.73197169D-04
  0.24879092D-04  0.83922489D-07  0.28890668D-03  0.27698278D-03  0.24883167D-07
  0.17281895D-03  0.23790129D-04 -0.11074667D-03  0.40872118D-04  0.69874551D-04
  0.91204439D-07  0.10301706D-06  0.29842610D-03 -0.43787533D-04 -0.12402429D-04
  0.56189962D-04  0.12936229D-07  0.37991372D-07  0.31142541D-04  0.20034640D-04
  0.36133298D-04  0.53278526D-04 -0.16984084D-03 -0.55874481D-03  0.62669341D-05
 -0.27819144D-04  0.20963105D-04 -0.11398919D-04 -0.86107706D-04  0.13346066D-03
 -0.13495634D-03 -0.41453855D-04  0.99541168D-04 -0.10746758D-04  0.94144124D-05
  0.23604186D-04 -0.33018599D-04  0.78838783D-04 -0.14912895D-03  0.41067204D-04
  0.20492579D-04  0.65416033D-05 -0.27034182D-04  0.26097961D-04  0.13480831D-04
  0.54485433D-04  0.20032898D-04  0.36130157D-04  0.53273895D-04 -0.16982636D-03
 -0.55870468D-03  0.62667841D-05  0.27817598D-04  0.20954619D-04 -0.11407499D-04
  0.86082744D-04  0.13343370D-03 -0.13497957D-03  0.41469281D-04  0.99529147D-04
 -0.10761485D-04  0.94480384D-05  0.23621019D-04 -0.33069057D-04 -0.78810020D-04
  0.14910186D-03  0.41052878D-04  0.20480667D-04  0.65465916D-05 -0.27027259D-04
 -0.26085161D-04 -0.13502390D-04  0.54498796D-04  0.42019290D-04  0.78613607D-04
  0.13582688D-03  0.22019133D-03  0.33438166D-03  0.46475905D-03  0.55256289D-03
  0.49224222D-03  0.24445790D-03  0.39355653D-04  0.41522539D-06  0.19990572D-06
  0.66685202D-05  0.23238458D-04  0.83685450D-04  0.18447416D-03  0.25968008D-03
 -0.12387586D-04 -0.33983648D-03 -0.20094318D-03  0.69082812D-09  0.83676155D-08
  0.17449780D-07  0.50042931D-07  0.25986597D-08 -0.21580939D-06 -0.55761001D-06
  0.45431439D-06 -0.12763805D-04  0.62905275D-05  0.27047561D-06  0.12457658D-02
  0.16409650D-02  0.18102412D-02  0.15035471D-02  0.79842522D-03  0.20599788D-03
  0.11610505D+02  0.15293752D+02  0.16871402D+02  0.14013021D+02  0.74413027D+01
  0.19198950D+01  0.74663703D-01  0.98349563D-01  0.10849496D+00  0.90113562D-01
  0.47852802D-01  0.12346273D-01 -0.49306099D-07  0.47665964D-06  0.67213985D-06
  0.96133778D-06 -0.48680792D-08 -0.88163742D-06 -0.45954247D-03  0.44425609D-02
  0.62644746D-02  0.89598558D-02 -0.45371449D-04 -0.82170329D-02 -0.31028186D-05
  0.29996053D-04  0.42297566D-04  0.60496709D-04 -0.30634682D-06 -0.55481188D-04
  0.82244955D-05  0.76650359D-01  0.49746515D-03 -0.69520086D-07 -0.64373026D-03
 -0.56377876D-05 -0.62170212D-08 -0.57967274D-04 -0.34404212D-06  0.13375031D-04
 -0.58429139D-05 -0.75321167D-05 -0.18041543D-06 -0.11087709D-06 -0.98145623D-03
 -0.51376986D-05  0.21749086D-05  0.29627900D-05  0.65509453D-07  0.40190654D-07
  0.35639229D-03  0.12597760D-05 -0.10593289D-05 -0.20044714D-06 -0.11453050D-07
 -0.69148998D-08 -0.61093549D-04  0.65832229D-08  0.24336944D-05  0.95022543D-07
 -0.62031625D-08  0.28583902D-05  0.35233708D-04 -0.13546506D-07 -0.10159473D-04
 -0.35518776D-04 -0.23842471D-07  0.28171544D-09  0.14688789D-04 -0.43527170D-06
  0.30291871D-08  0.14521544D-04 -0.68522412D-05 -0.38743334D-08 -0.58587911D-04
  0.81580562D-05 -0.22010130D-07 -0.79715284D-05 -0.14858943D-04 -0.25189218D-04
 -0.38139883D-04 -0.47683254D-04 -0.41016149D-04 -0.15730576D-04  0.73957867D-08
  0.97906368D-07  0.35561374D-06  0.10549215D-05  0.12155839D-05 -0.14765077D-05
 -0.37492816D-06  0.25621057D-05  0.46168734D-05 -0.27628120D-07 -0.27019698D-07
 -0.17853057D-07 -0.29086804D-03 -0.28446259D-03 -0.18795646D-03  0.17851150D-04
  0.17458034D-04  0.11535262D-04 -0.22126933D-08 -0.92840444D-05  0.13037736D-05
 -0.51223536D-08 -0.66166354D-04  0.40148542D-05 -0.19307458D-08 -0.19576180D-04
  0.64872901D-06  0.70764767D-04 -0.69715910D-04 -0.10488570D-05 -0.61614930D-07
 -0.38860152D-07 -0.13253564D-03 -0.35449891D-04  0.35142739D-04  0.30715265D-06
  0.36914505D-07  0.22866053D-07  0.10172615D-03  0.17780181D-04 -0.18169762D-04
  0.38958040D-06 -0.22357360D-07 -0.12814566D-07 -0.73521305D-04 -0.38488147D-07
 -0.70615299D-04  0.25306337D-06  0.24177806D-07 -0.70446448D-04 -0.19014311D-03
  0.91286636D-07  0.28229234D-03  0.18938392D-03  0.22289176D-06  0.12433254D-07
  0.25076058D-04  0.96470106D-08 -0.75208825D-08  0.25010645D-04  0.60276785D-04
 -0.29778880D-07 -0.10023882D-03 -0.60305726D-04 -0.75238988D-07
MO    2     MO 0.0        OCC NO =    2.0000300  ORB. ENERGY =    0.000000
 -0.24421483D-08 -0.45526564D-08 -0.76946096D-08 -0.11566433D-07 -0.14207292D-07
 -0.11990453D-07 -0.45087234D-08  0.18891469D-11  0.14120203D-10  0.52770422D-10
  0.14722126D-09  0.19723590D-09 -0.23289882D-09 -0.52119339D-09  0.75788809D-08
  0.24765370D-08  0.10974547D-03  0.10289336D-03  0.73266198D-04 -0.11444443D-07
 -0.10729892D-07 -0.76403226D-08 -0.22418484D-07 -0.21018754D-07 -0.14966605D-07
  0.36434702D-03 -0.38432347D-07 -0.62105092D-07  0.46432493D-03 -0.49745853D-07
 -0.85625331D-07  0.93868879D-05 -0.10747009D-08 -0.17014086D-08 -0.72109487D-07
 -0.17201012D-07  0.89310499D-07  0.13237195D-03 -0.50932602D-03  0.30363181D-07
  0.70737077D-07 -0.52966616D-07 -0.17770461D-07  0.38812148D-03  0.95735344D-04
 -0.77942703D-07 -0.72118249D-09 -0.11604224D-07  0.12325406D-07  0.82412942D-04
 -0.66661049D-04 -0.71603231D-08  0.92877212D-04 -0.10388651D-07  0.66666661D-07
  0.92923818D-04 -0.32439306D-09 -0.17467372D-06 -0.37155545D-03  0.31490346D-07
 -0.25326262D-07  0.51969143D-04 -0.26953143D-04  0.27841699D-08 -0.19714972D-07
 -0.26808596D-04  0.21199632D-07  0.67028030D-07  0.10766803D-03 -0.29552142D-07
 -0.78831140D-08  0.97761497D-04 -0.60566142D-09 -0.10923353D-08 -0.16106478D-08
  0.31524753D-08  0.23591908D-07 -0.53058139D-09  0.41627589D-05  0.11104286D-09
 -0.36806487D-09  0.82977051D-04 -0.60989710D-08 -0.88264605D-08  0.75422240D-04
 -0.56626804D-08 -0.12639188D-07 -0.61533532D-08 -0.35427093D-08  0.96960625D-08
  0.29559642D-04 -0.48856827D-04  0.85593332D-08  0.13562640D-07 -0.36456624D-08
 -0.99169777D-08  0.28966742D-04  0.60241703D-04 -0.12557657D-07 -0.35017151D-04
 -0.63154874D-04 -0.93121824D-04  0.31953612D-03  0.97552048D-03 -0.10350881D-04
  0.54802830D-04 -0.29246007D-04  0.20885071D-04  0.23843270D-03 -0.89451838D-04
  0.23131423D-03  0.14835207D-03 -0.42140358D-04  0.18628730D-04  0.10935233D-04
 -0.68902502D-04  0.57967269D-04 -0.10834012D-03  0.21032149D-03 -0.14937495D-03
 -0.10935659D-04 -0.37160089D-04  0.48095749D-04 -0.16504453D-04  0.38493205D-04
  0.12620873D-04  0.35018002D-04  0.63156409D-04  0.93124088D-04 -0.31955160D-03
 -0.97554656D-03  0.10351090D-04  0.54804877D-04  0.29233351D-04 -0.20904582D-04
  0.23837766D-03  0.89397293D-04 -0.23140862D-03  0.14835781D-03  0.42106965D-04
 -0.18682736D-04 -0.10886841D-04  0.68931066D-04 -0.58044225D-04 -0.10824961D-03
  0.21033389D-03  0.14936165D-03  0.10946339D-04  0.37164842D-04 -0.48111181D-04
 -0.16496490D-04  0.38448377D-04 -0.12622355D-04 -0.41396209D-07 -0.77447889D-07
 -0.13381277D-06 -0.21692623D-06 -0.32942330D-06 -0.45786739D-06 -0.54436924D-06
 -0.48494303D-06 -0.24083297D-06 -0.38772070D-07 -0.40906824D-09 -0.19451990D-09
 -0.64888584D-08 -0.22612372D-07 -0.81430814D-07 -0.17950410D-06 -0.25268383D-06
  0.12053842D-07  0.33068068D-06  0.19552941D-06 -0.38871910D-11 -0.47083375D-10
 -0.98187415D-10 -0.28158441D-09 -0.14622286D-10  0.12143286D-08  0.31375918D-08
 -0.25563621D-08  0.11674813D-07 -0.58013977D-09 -0.40767388D-09  0.11610733D+02
  0.15294052D+02  0.16871733D+02  0.14013296D+02  0.74414488D+01  0.19199327D+01
 -0.12324805D-02 -0.16234651D-02 -0.17909362D-02 -0.14875127D-02 -0.78991052D-03
 -0.20380104D-03 -0.20692792D-02 -0.27257247D-02 -0.30069011D-02 -0.24974668D-02
 -0.13262242D-02 -0.34217276D-03 -0.45949357D-03  0.44420881D-02  0.62638080D-02
  0.89589024D-02 -0.45366621D-04 -0.82161585D-02  0.48803147D-07 -0.47179743D-06
 -0.66528362D-06 -0.95153157D-06  0.48184219D-08  0.87264420D-06  0.81828443D-07
 -0.79106474D-06 -0.11154839D-05 -0.15954370D-05  0.80790684D-08  0.14631662D-05
  0.76653811D-01 -0.81374402D-05 -0.13660591D-04 -0.64334527D-03  0.68109289D-07
  0.11436690D-06 -0.57951057D-04  0.61489889D-08  0.10375471D-07 -0.17067725D-06
 -0.41265886D-08  0.17480384D-06  0.30375411D-04 -0.98040808D-03  0.99411119D-07
  0.61874790D-07  0.11978510D-08 -0.63072641D-07 -0.10082947D-04  0.35620718D-03
 -0.36548006D-07 -0.10504593D-07 -0.44970417D-09  0.10954297D-07  0.27237167D-05
 -0.61051989D-04  0.60846010D-08  0.21517205D-05 -0.24663917D-09  0.14412389D-08
  0.22410847D-05  0.12094712D-07  0.55964128D-08 -0.86962463D-05 -0.11354795D-07
 -0.99201295D-08  0.69156988D-04  0.14729289D-04 -0.15861248D-08  0.10412540D-07
  0.14619115D-04 -0.40351028D-08 -0.30644784D-07 -0.58806982D-04  0.87934770D-08
 -0.59283726D-09 -0.13548563D-04  0.59346716D-08  0.11062238D-07  0.18752958D-07
  0.28394515D-07  0.35499397D-07  0.30535848D-07  0.11711155D-07 -0.12390324D-10
 -0.16402469D-09 -0.59576753D-09 -0.17673331D-08 -0.20364945D-08  0.24736259D-08
  0.18999490D-09 -0.41540886D-08 -0.43731895D-08 -0.29129812D-03 -0.28488319D-03
 -0.18823437D-03  0.31122813D-07  0.30437431D-07  0.20111298D-07  0.45772047D-07
  0.44764062D-07  0.29577508D-07 -0.78773234D-05 -0.63111903D-09  0.29655075D-08
 -0.67384972D-04  0.83647345D-08  0.69206452D-08 -0.19535277D-04  0.21111383D-08
  0.28703505D-08 -0.40356793D-08 -0.20667885D-07  0.24703564D-07  0.14292003D-03
 -0.13193105D-03 -0.10579886D-07  0.80240192D-08  0.10289069D-07 -0.18313089D-07
 -0.71565425D-04  0.10183684D-03  0.12266702D-08 -0.73935648D-08 -0.46869416D-08
  0.12080506D-07  0.36005839D-04 -0.74621010D-04  0.27041988D-08 -0.72312371D-04
  0.91508285D-08 -0.49160217D-07 -0.72496099D-04 -0.56860115D-07  0.82847557D-07
  0.28943321D-03  0.29407629D-07  0.64633093D-07 -0.37383698D-03  0.25690678D-04
 -0.32649844D-08  0.17233800D-07  0.25747905D-04  0.17704094D-07 -0.31054811D-07
 -0.10281994D-03 -0.79091411D-08 -0.20646590D-07  0.11856433D-03
MO    3     MO 0.0        OCC NO =    2.0000210  ORB. ENERGY =    0.000000
 -0.14453766D-01 -0.26944732D-01 -0.45540268D-01 -0.68455516D-01 -0.84085341D-01
 -0.70965061D-01 -0.26684716D-01 -0.38140399D-05 -0.28507585D-04 -0.10653935D-03
 -0.29722821D-03 -0.39820386D-03  0.47020450D-03 -0.87192816D-03 -0.19343963D-02
 -0.82066267D-04  0.20837832D-06  0.19536792D-06  0.13911360D-06 -0.27385915D-05
 -0.25676036D-05 -0.18282867D-05  0.11672311D-02  0.10943534D-02  0.77924478D-03
  0.10487532D-06 -0.26758687D-05  0.60719408D-03 -0.66722198D-07  0.29288536D-05
 -0.37920027D-03  0.82389519D-09  0.14381773D-07  0.46693618D-05 -0.10617757D-03
 -0.10494492D-03  0.21112249D-03 -0.10987321D-08  0.11345458D-06 -0.19784930D-05
 -0.24110196D-04 -0.24043492D-04  0.48153688D-04 -0.54709143D-10  0.25285739D-07
  0.30858852D-05  0.11617988D-04  0.11227792D-04 -0.22845780D-04  0.11883278D-09
 -0.12173522D-07  0.68017140D-06 -0.15749598D-07  0.36162004D-04  0.77241692D-05
  0.39405987D-07 -0.10892752D-03 -0.10905526D-04  0.78428065D-08  0.44150584D-06
 -0.12266982D-04  0.38381551D-07  0.28973747D-08  0.51536063D-04 -0.85668689D-04
  0.82046294D-07 -0.15573680D-03  0.12848182D-03 -0.90738418D-07  0.11286082D-05
  0.12852425D-03  0.55618509D-07 -0.48232445D-05 -0.86989202D-05 -0.12826553D-04
  0.75285599D-03  0.23910804D-03  0.51613048D-05  0.17697258D-07  0.96269221D-04
  0.30093441D-04  0.24659400D-07  0.19820568D-03 -0.43815768D-05  0.12751342D-07
  0.44171209D-04  0.39357806D-04 -0.74568290D-04  0.53282788D-04  0.21285502D-04
  0.46278321D-07  0.44175780D-07  0.76436504D-04 -0.94157487D-05 -0.12060764D-04
  0.21476513D-04 -0.67956849D-08  0.65074253D-08 -0.34644690D-04 -0.48321084D-05
 -0.87149064D-05 -0.12850124D-04  0.75264555D-03  0.23438757D-03  0.50160777D-05
  0.82903684D-04 -0.47684120D-04  0.27651243D-04  0.17318222D-03 -0.99834618D-04
 -0.41097929D-05  0.38169577D-04 -0.21785296D-04  0.38443893D-04  0.22696662D-04
 -0.41601358D-04  0.18904696D-04 -0.11099557D-03  0.65480265D-04 -0.38206226D-04
 -0.11382574D-04 -0.10402272D-04  0.21784846D-04  0.20278863D-05 -0.30018204D-04
  0.17106666D-04 -0.48319293D-05 -0.87145835D-05 -0.12849648D-04  0.75264923D-03
  0.23438724D-03  0.50160924D-05 -0.82906299D-04 -0.47663308D-04  0.27681535D-04
 -0.17320941D-03 -0.99790943D-04 -0.40469057D-05 -0.38161319D-04 -0.21775657D-04
  0.38457702D-04  0.22701575D-04 -0.41629408D-04  0.18927833D-04  0.11094907D-03
 -0.65493753D-04 -0.38230053D-04 -0.11372379D-04 -0.10401759D-04  0.21774137D-04
 -0.20211757D-05  0.30045877D-04  0.17099673D-04 -0.15460240D+00 -0.28924459D+00
 -0.49975050D+00 -0.81015427D+00 -0.12302970D+01 -0.17099971D+01 -0.20330555D+01
 -0.18111165D+01 -0.89943875D+00 -0.14480203D+00 -0.15277469D-02 -0.72284113D-03
 -0.24112770D-01 -0.84028176D-01 -0.30259907D+00 -0.66704199D+00 -0.93897983D+00
  0.44792398D-01  0.12288182D+01  0.72659249D+00 -0.15531646D-04 -0.18812616D-03
 -0.39231728D-03 -0.11250977D-02 -0.58424755D-04  0.48519668D-02  0.12536550D-01
 -0.10214191D-01  0.46599997D-01 -0.38434708D-03 -0.13196835D-03  0.10527780D-02
  0.13867549D-02  0.15298078D-02  0.12706251D-02  0.67473720D-03  0.17408572D-03
 -0.35811478D-01 -0.47172094D-01 -0.52038204D-01 -0.43221803D-01 -0.22951977D-01
 -0.59217300D-02  0.59413071D+01  0.78260913D+01  0.86334037D+01  0.71707178D+01
  0.38078501D+01  0.98244524D+00 -0.37355129D-07  0.36112535D-06  0.50922444D-06
  0.72832566D-06 -0.36881386D-08 -0.66794332D-06  0.12067381D-05 -0.11665967D-04
 -0.16450231D-04 -0.23528182D-04  0.11914340D-06  0.21577562D-04 -0.21079287D-03
  0.20378099D-02  0.28735246D-02  0.41099004D-02 -0.20811957D-04 -0.37691663D-02
  0.73814261D-05 -0.24999437D-03  0.41653369D-01 -0.85891937D-07  0.27304370D-05
 -0.48393230D-03 -0.17314965D-08  0.95205464D-07 -0.98417233D-05 -0.67672110D-05
 -0.74772178D-05  0.14244429D-04 -0.53883648D-09  0.71679594D-08 -0.18101348D-05
 -0.11155707D-03 -0.11127782D-03  0.22283489D-03 -0.43584973D-09  0.11891922D-06
 -0.29107583D-05 -0.14278063D-04 -0.14369095D-04  0.28647158D-04 -0.13741801D-09
  0.15301037D-07 -0.64446485D-06  0.12962279D-08 -0.69579301D-05  0.54423029D-05
 -0.97940344D-08  0.21878305D-04 -0.79426486D-05  0.59053506D-08 -0.10045152D-05
 -0.83842599D-05 -0.81292271D-08  0.82373001D-08  0.17320935D-05 -0.33738168D-04
  0.11379071D-07 -0.64725154D-05  0.50583393D-04 -0.36090972D-07  0.12762349D-05
  0.50631112D-04  0.27126026D-08 -0.87938826D-03 -0.16391812D-02 -0.27787774D-02
 -0.42074447D-02 -0.52602326D-02 -0.45247433D-02 -0.17353365D-02 -0.68419407D-06
 -0.90574484D-05 -0.32898300D-04 -0.97592188D-04 -0.11245529D-03  0.13659369D-03
 -0.95959624D-04 -0.15940558D-03  0.12411344D-04  0.66795240D-06  0.65324286D-06
  0.43162517D-06  0.41564000D-05  0.40648684D-05  0.26858304D-05  0.39019520D-02
  0.38160238D-02  0.25214083D-02  0.14973491D-06  0.19540492D-05  0.87921038D-03
  0.41210741D-08 -0.55082392D-06  0.21389484D-04  0.15447773D-08  0.13004510D-06
  0.93357114D-05 -0.36337410D-04 -0.34950971D-04  0.71288381D-04  0.13305246D-08
  0.36877774D-07  0.36723753D-07  0.21441584D-04  0.20750274D-04 -0.42191858D-04
 -0.55061047D-09 -0.22024892D-07  0.28108480D-06  0.17973330D-04  0.18259889D-04
 -0.36233219D-04  0.18904247D-10 -0.18011123D-07 -0.78716897D-06 -0.96845687D-08
 -0.41555076D-05  0.46413633D-04 -0.14516037D-07  0.77215596D-05 -0.68712849D-04
  0.43569743D-07  0.47449633D-05 -0.70528052D-04  0.35343281D-09  0.57713292D-08
  0.13596665D-05 -0.25391529D-04  0.72889616D-08 -0.23835549D-05  0.37817217D-04
 -0.24602949D-07 -0.16954447D-05  0.38357370D-04 -0.21820529D-09
MO    4     MO 0.0        OCC NO =    2.0000123  ORB. ENERGY =    0.000000
  0.26825916D-01  0.50008911D-01  0.84521873D-01  0.12705214D+00  0.15606080D+00
  0.13170981D+00  0.49526327D-01 -0.14569696D-05 -0.10889945D-04 -0.40698210D-04
 -0.11354167D-03 -0.15211453D-03  0.17961890D-03  0.26462114D-02 -0.36107284D-02
 -0.42247275D-04  0.64782239D-06  0.60737467D-06  0.43248695D-06 -0.27757020D-05
 -0.26023970D-05 -0.18530617D-05  0.36696139D-02  0.34404962D-02  0.24498383D-02
  0.22829802D-06 -0.97337787D-05  0.13052661D-02 -0.74203294D-07  0.42647635D-05
 -0.41702752D-03  0.68542003D-09  0.46484619D-07  0.37045361D-05 -0.32108419D-03
 -0.31729331D-03  0.63837750D-03 -0.13868237D-08  0.34015921D-06 -0.79027838D-05
  0.85869627D-05  0.10627260D-04 -0.19214223D-04  0.16094138D-08 -0.88610777D-08
  0.86184043D-05 -0.17557099D-04 -0.18173689D-04  0.35730788D-04 -0.14033826D-09
  0.18478124D-07  0.68932355D-06  0.10678102D-07 -0.42600366D-04  0.22582932D-04
 -0.54560941D-07  0.12618258D-03 -0.31672938D-04  0.22526634D-07  0.16185149D-05
 -0.36075858D-04 -0.44929330D-07  0.12344649D-07  0.81298854D-04 -0.16373340D-03
  0.13726236D-06 -0.24655460D-03  0.24635150D-03 -0.17429630D-06  0.26580395D-05
  0.24484871D-03  0.88127482D-07 -0.90501411D-04 -0.16322302D-03 -0.24067225D-03
  0.10169376D-02  0.69074506D-03  0.44428112D-05 -0.75300825D-09 -0.57724215D-04
  0.36852756D-04  0.31183019D-07  0.29956872D-03 -0.40257581D-04  0.27725503D-07
  0.11147957D-03  0.76798103D-04 -0.14359364D-03  0.20661871D-04  0.12293177D-03
  0.67902324D-07  0.11328020D-06  0.14633422D-03 -0.14534969D-04 -0.21420968D-04
  0.35955937D-04 -0.12943969D-07  0.10057500D-07 -0.62822187D-04 -0.90225686D-04
 -0.16272574D-03 -0.23993901D-03  0.10259189D-02  0.68107855D-03  0.41798700D-05
 -0.49819821D-04  0.29342104D-04  0.31898326D-04  0.26604569D-03 -0.15358151D-03
 -0.44597979D-04  0.96109470D-04 -0.55142757D-04  0.75372810D-04 -0.15716611D-04
 -0.10005962D-03  0.11577623D-03 -0.14501408D-03  0.12137666D-03 -0.71190544D-04
 -0.19260141D-04 -0.16466647D-04  0.35726788D-04  0.51995837D-05 -0.54460459D-04
  0.31362011D-04 -0.90225981D-04 -0.16272627D-03 -0.23993979D-03  0.10259211D-02
  0.68108480D-03  0.41796756D-05  0.49838280D-04  0.29329172D-04  0.31881270D-04
 -0.26610022D-03 -0.15351377D-03 -0.44503221D-04 -0.96097433D-04 -0.55118580D-04
  0.75407332D-04 -0.15721762D-04 -0.10009592D-03  0.11581768D-03  0.14494676D-03
 -0.12130247D-03 -0.71211769D-04 -0.19242200D-04 -0.16465557D-04  0.35707757D-04
 -0.51868519D-05  0.54508223D-04  0.31350274D-04  0.91314037D-01  0.17083882D+00
  0.29517159D+00  0.47850782D+00  0.72666005D+00  0.10099891D+01  0.12007996D+01
  0.10697141D+01  0.53124262D+00  0.85525567D-01  0.90234525D-03  0.42753096D-03
  0.14261717D-01  0.49699229D-01  0.17897497D+00  0.39452805D+00  0.55536816D+00
 -0.26492871D-01 -0.72679569D+00 -0.42974974D+00  0.62780605D-05  0.76042644D-04
  0.15857892D-03  0.45477672D-03  0.23615922D-04 -0.19612178D-02 -0.50674101D-02
  0.41286872D-02 -0.28545165D-01  0.14181929D-02 -0.18175075D-03  0.17613894D-02
  0.23201618D-02  0.25595017D-02  0.21258666D-02  0.11288941D-02  0.29126059D-03
 -0.65291074D-01 -0.86003619D-01 -0.94875454D-01 -0.78801493D-01 -0.41845780D-01
 -0.10796430D-01  0.99144245D+01  0.13059616D+02  0.14406801D+02  0.11965976D+02
  0.63542655D+01  0.16394337D+01 -0.59860043D-07  0.57868838D-06  0.81601103D-06
  0.11671116D-05 -0.59100890D-08 -0.10703514D-05  0.20362318D-05 -0.19684979D-04
 -0.27757876D-04 -0.39701105D-04  0.20104081D-06  0.36409658D-04 -0.33686079D-03
  0.32565533D-02  0.45920802D-02  0.65678894D-02 -0.33258867D-04 -0.60233740D-02
  0.12890442D-04 -0.47313968D-03  0.72555705D-01 -0.54012451D-07  0.19661201D-05
 -0.30639166D-03 -0.67117653D-09  0.96126241D-07 -0.39567934D-05  0.45500260D-03
  0.45383801D-03 -0.90884061D-03  0.20637823D-08 -0.48516209D-06  0.13500027D-04
 -0.30996442D-03 -0.30934168D-03  0.61930609D-03 -0.13762426D-08  0.33039147D-06
 -0.86137801D-05  0.44296280D-05  0.42345487D-05 -0.86641766D-05 -0.94002089D-10
 -0.48455579D-08 -0.14982998D-06  0.18165730D-07 -0.14423547D-04 -0.46952995D-04
 -0.42274218D-08  0.43666614D-04  0.71028594D-04 -0.50269769D-07 -0.39597249D-06
  0.69830390D-04 -0.16223575D-07  0.15078300D-07  0.36320094D-05 -0.62578473D-04
  0.21467203D-07 -0.13057631D-04  0.93821110D-04 -0.66702104D-07  0.21616028D-05
  0.93914309D-04  0.55393534D-08 -0.63567334D-02 -0.11848962D-01 -0.20086630D-01