 clch3f_ts-wavefunction
GAUSSIAN            211 MOL ORBITALS    339 PRIMITIVES        6 NUCLEI
  C    1    (CENTRE  1)   0.00033070  0.00005480 -0.94053370  CHARGE =  6.0
  H    2    (CENTRE  2)   0.00003590 -1.98906904 -1.17300214  CHARGE =  1.0
  H    3    (CENTRE  3)  -1.72213010  0.99468570 -1.17398291  CHARGE =  1.0
  H    4    (CENTRE  4)   1.72295780  0.99424539 -1.17459707  CHARGE =  1.0
  Cl   5    (CENTRE  5)   0.00104880  0.00181792  3.10806659  CHARGE = 17.0
  F    6    (CENTRE  6)   0.01854577 -0.00174044 -4.90094425  CHARGE =  9.0
CENTRE ASSIGNMENTS    1  1  1  1  1  1  1  1  1  1  1  1  1  1  1  1  1  1  1  1
CENTRE ASSIGNMENTS    1  1  1  1  1  1  1  1  1  1  1  1  1  1  1  1  1  1  1  1
CENTRE ASSIGNMENTS    1  1  1  1  1  1  1  1  1  1  1  1  1  1  1  1  1  1  1  1
CENTRE ASSIGNMENTS    1  1  1  1  1  1  1  1  1  1  1  1  2  2  2  2  2  2  2  2
CENTRE ASSIGNMENTS    2  2  2  2  2  2  2  2  2  2  2  2  2  2  2  2  2  2  2  3
CENTRE ASSIGNMENTS    3  3  3  3  3  3  3  3  3  3  3  3  3  3  3  3  3  3  3  3
CENTRE ASSIGNMENTS    3  3  3  3  3  3  4  4  4  4  4  4  4  4  4  4  4  4  4  4
CENTRE ASSIGNMENTS    4  4  4  4  4  4  4  4  4  4  4  4  4  5  5  5  5  5  5  5
CENTRE ASSIGNMENTS    5  5  5  5  5  5  5  5  5  5  5  5  5  5  5  5  5  5  5  5
CENTRE ASSIGNMENTS    5  5  5  5  5  5  5  5  5  5  5  5  5  5  5  5  5  5  5  5
CENTRE ASSIGNMENTS    5  5  5  5  5  5  5  5  5  5  5  5  5  5  5  5  5  5  5  5
CENTRE ASSIGNMENTS    5  5  5  5  5  5  5  5  5  5  5  5  5  5  5  5  5  5  5  5
CENTRE ASSIGNMENTS    5  5  5  5  5  5  5  5  5  5  5  5  5  5  5  5  5  5  5  5
CENTRE ASSIGNMENTS    5  5  5  5  5  5  5  6  6  6  6  6  6  6  6  6  6  6  6  6
CENTRE ASSIGNMENTS    6  6  6  6  6  6  6  6  6  6  6  6  6  6  6  6  6  6  6  6
CENTRE ASSIGNMENTS    6  6  6  6  6  6  6  6  6  6  6  6  6  6  6  6  6  6  6  6
CENTRE ASSIGNMENTS    6  6  6  6  6  6  6  6  6  6  6  6  6  6  6  6  6  6  6
TYPE ASSIGNMENTS      1  1  1  1  1  1  1  1  1  1  1  1  1  1  1  1  2  2  2  3
TYPE ASSIGNMENTS      3  3  4  4  4  2  3  4  2  3  4  2  3  4  5  6  7  8  9 10
TYPE ASSIGNMENTS      5  6  7  8  9 10  5  6  7  8  9 10 11 12 13 17 14 15 18 19
TYPE ASSIGNMENTS     16 20 11 12 13 17 14 15 18 19 16 20  1  1  1  1  1  1  2  3
TYPE ASSIGNMENTS      4  2  3  4  2  3  4  5  6  7  8  9 10  5  6  7  8  9 10  1
TYPE ASSIGNMENTS      1  1  1  1  1  2  3  4  2  3  4  2  3  4  5  6  7  8  9 10
TYPE ASSIGNMENTS      5  6  7  8  9 10  1  1  1  1  1  1  2  3  4  2  3  4  2  3
TYPE ASSIGNMENTS      4  5  6  7  8  9 10  5  6  7  8  9 10  1  1  1  1  1  1  1
TYPE ASSIGNMENTS      1  1  1  1  1  1  1  1  1  1  1  1  1  1  1  1  1  1  1  1
TYPE ASSIGNMENTS      1  1  1  1  2  2  2  2  2  2  3  3  3  3  3  3  4  4  4  4
TYPE ASSIGNMENTS      4  4  2  2  2  2  2  2  3  3  3  3  3  3  4  4  4  4  4  4
TYPE ASSIGNMENTS      2  3  4  2  3  4  2  3  4  5  6  7  8  9 10  5  6  7  8  9
TYPE ASSIGNMENTS     10  5  6  7  8  9 10 11 12 13 17 14 15 18 19 16 20 11 12 13
TYPE ASSIGNMENTS     17 14 15 18 19 16 20  1  1  1  1  1  1  1  1  1  1  1  1  1
TYPE ASSIGNMENTS      1  1  1  2  2  2  3  3  3  4  4  4  2  3  4  2  3  4  2  3
TYPE ASSIGNMENTS      4  5  6  7  8  9 10  5  6  7  8  9 10  5  6  7  8  9 10 11
TYPE ASSIGNMENTS     12 13 17 14 15 18 19 16 20 11 12 13 17 14 15 18 19 16 20
EXPONENTS  0.8236000D+04 0.1235000D+04 0.2808000D+03 0.7927000D+02 0.2559000D+02
EXPONENTS  0.8997000D+01 0.3319000D+01 0.2808000D+03 0.7927000D+02 0.2559000D+02
EXPONENTS  0.8997000D+01 0.3319000D+01 0.3643000D+00 0.9059000D+00 0.1285000D+00
EXPONENTS  0.4402000D-01 0.1871000D+02 0.4133000D+01 0.1200000D+01 0.1871000D+02
EXPONENTS  0.4133000D+01 0.1200000D+01 0.1871000D+02 0.4133000D+01 0.1200000D+01
EXPONENTS  0.3827000D+00 0.3827000D+00 0.3827000D+00 0.1209000D+00 0.1209000D+00
EXPONENTS  0.1209000D+00 0.3569000D-01 0.3569000D-01 0.3569000D-01 0.1097000D+01
EXPONENTS  0.1097000D+01 0.1097000D+01 0.1097000D+01 0.1097000D+01 0.1097000D+01
EXPONENTS  0.3180000D+00 0.3180000D+00 0.3180000D+00 0.3180000D+00 0.3180000D+00
EXPONENTS  0.3180000D+00 0.1000000D+00 0.1000000D+00 0.1000000D+00 0.1000000D+00
EXPONENTS  0.1000000D+00 0.1000000D+00 0.7610000D+00 0.7610000D+00 0.7610000D+00
EXPONENTS  0.7610000D+00 0.7610000D+00 0.7610000D+00 0.7610000D+00 0.7610000D+00
EXPONENTS  0.7610000D+00 0.7610000D+00 0.2680000D+00 0.2680000D+00 0.2680000D+00
EXPONENTS  0.2680000D+00 0.2680000D+00 0.2680000D+00 0.2680000D+00 0.2680000D+00
EXPONENTS  0.2680000D+00 0.2680000D+00 0.3387000D+02 0.5095000D+01 0.1159000D+01
EXPONENTS  0.3258000D+00 0.1027000D+00 0.2526000D-01 0.1407000D+01 0.1407000D+01
EXPONENTS  0.1407000D+01 0.3880000D+00 0.3880000D+00 0.3880000D+00 0.1020000D+00
EXPONENTS  0.1020000D+00 0.1020000D+00 0.1057000D+01 0.1057000D+01 0.1057000D+01
EXPONENTS  0.1057000D+01 0.1057000D+01 0.1057000D+01 0.2470000D+00 0.2470000D+00
EXPONENTS  0.2470000D+00 0.2470000D+00 0.2470000D+00 0.2470000D+00 0.3387000D+02
EXPONENTS  0.5095000D+01 0.1159000D+01 0.3258000D+00 0.1027000D+00 0.2526000D-01
EXPONENTS  0.1407000D+01 0.1407000D+01 0.1407000D+01 0.3880000D+00 0.3880000D+00
EXPONENTS  0.3880000D+00 0.1020000D+00 0.1020000D+00 0.1020000D+00 0.1057000D+01
EXPONENTS  0.1057000D+01 0.1057000D+01 0.1057000D+01 0.1057000D+01 0.1057000D+01
EXPONENTS  0.2470000D+00 0.2470000D+00 0.2470000D+00 0.2470000D+00 0.2470000D+00
EXPONENTS  0.2470000D+00 0.3387000D+02 0.5095000D+01 0.1159000D+01 0.3258000D+00
EXPONENTS  0.1027000D+00 0.2526000D-01 0.1407000D+01 0.1407000D+01 0.1407000D+01
EXPONENTS  0.3880000D+00 0.3880000D+00 0.3880000D+00 0.1020000D+00 0.1020000D+00
EXPONENTS  0.1020000D+00 0.1057000D+01 0.1057000D+01 0.1057000D+01 0.1057000D+01
EXPONENTS  0.1057000D+01 0.1057000D+01 0.2470000D+00 0.2470000D+00 0.2470000D+00
EXPONENTS  0.2470000D+00 0.2470000D+00 0.2470000D+00 0.4561000D+06 0.6833000D+05
EXPONENTS  0.1555000D+05 0.4405000D+04 0.1439000D+04 0.5204000D+03 0.2031000D+03
EXPONENTS  0.8396000D+02 0.3620000D+02 0.1583000D+02 0.6334000D+01 0.4405000D+04
EXPONENTS  0.1439000D+04 0.5204000D+03 0.2031000D+03 0.8396000D+02 0.3620000D+02
EXPONENTS  0.1583000D+02 0.6334000D+01 0.2694000D+01 0.1439000D+04 0.2031000D+03
EXPONENTS  0.8396000D+02 0.3620000D+02 0.1583000D+02 0.6334000D+01 0.2694000D+01
EXPONENTS  0.4313000D+00 0.9768000D+00 0.1625000D+00 0.5910000D-01 0.6633000D+03
EXPONENTS  0.1568000D+03 0.4998000D+02 0.1842000D+02 0.7240000D+01 0.2922000D+01
EXPONENTS  0.6633000D+03 0.1568000D+03 0.4998000D+02 0.1842000D+02 0.7240000D+01
EXPONENTS  0.2922000D+01 0.6633000D+03 0.1568000D+03 0.4998000D+02 0.1842000D+02
EXPONENTS  0.7240000D+01 0.2922000D+01 0.1568000D+03 0.4998000D+02 0.1842000D+02
EXPONENTS  0.7240000D+01 0.2922000D+01 0.3818000D+00 0.1568000D+03 0.4998000D+02
EXPONENTS  0.1842000D+02 0.7240000D+01 0.2922000D+01 0.3818000D+00 0.1568000D+03
EXPONENTS  0.4998000D+02 0.1842000D+02 0.7240000D+01 0.2922000D+01 0.3818000D+00
EXPONENTS  0.1022000D+01 0.1022000D+01 0.1022000D+01 0.1301000D+00 0.1301000D+00
EXPONENTS  0.1301000D+00 0.4190000D-01 0.4190000D-01 0.4190000D-01 0.1046000D+01
EXPONENTS  0.1046000D+01 0.1046000D+01 0.1046000D+01 0.1046000D+01 0.1046000D+01
EXPONENTS  0.3440000D+00 0.3440000D+00 0.3440000D+00 0.3440000D+00 0.3440000D+00
EXPONENTS  0.3440000D+00 0.1350000D+00 0.1350000D+00 0.1350000D+00 0.1350000D+00
EXPONENTS  0.1350000D+00 0.1350000D+00 0.7060000D+00 0.7060000D+00 0.7060000D+00
EXPONENTS  0.7060000D+00 0.7060000D+00 0.7060000D+00 0.7060000D+00 0.7060000D+00
EXPONENTS  0.7060000D+00 0.7060000D+00 0.3120000D+00 0.3120000D+00 0.3120000D+00
EXPONENTS  0.3120000D+00 0.3120000D+00 0.3120000D+00 0.3120000D+00 0.3120000D+00
EXPONENTS  0.3120000D+00 0.3120000D+00 0.1950000D+05 0.2923000D+04 0.6645000D+03
EXPONENTS  0.1875000D+03 0.6062000D+02 0.2142000D+02 0.7950000D+01 0.6645000D+03
EXPONENTS  0.1875000D+03 0.6062000D+02 0.2142000D+02 0.7950000D+01 0.8815000D+00
EXPONENTS  0.2257000D+01 0.3041000D+00 0.9158000D-01 0.4388000D+02 0.9926000D+01
EXPONENTS  0.2930000D+01 0.4388000D+02 0.9926000D+01 0.2930000D+01 0.4388000D+02
EXPONENTS  0.9926000D+01 0.2930000D+01 0.9132000D+00 0.9132000D+00 0.9132000D+00
EXPONENTS  0.2672000D+00 0.2672000D+00 0.2672000D+00 0.7361000D-01 0.7361000D-01
EXPONENTS  0.7361000D-01 0.3107000D+01 0.3107000D+01 0.3107000D+01 0.3107000D+01
EXPONENTS  0.3107000D+01 0.3107000D+01 0.8550000D+00 0.8550000D+00 0.8550000D+00
EXPONENTS  0.8550000D+00 0.8550000D+00 0.8550000D+00 0.2920000D+00 0.2920000D+00
EXPONENTS  0.2920000D+00 0.2920000D+00 0.2920000D+00 0.2920000D+00 0.1917000D+01
EXPONENTS  0.1917000D+01 0.1917000D+01 0.1917000D+01 0.1917000D+01 0.1917000D+01
EXPONENTS  0.1917000D+01 0.1917000D+01 0.1917000D+01 0.1917000D+01 0.7240000D+00
EXPONENTS  0.7240000D+00 0.7240000D+00 0.7240000D+00 0.7240000D+00 0.7240000D+00
EXPONENTS  0.7240000D+00 0.7240000D+00 0.7240000D+00 0.7240000D+00
MO    1     MO 0.0        OCC NO =    2.0000300  ORB. ENERGY =    0.000000
 -0.25169072D-05 -0.46920220D-05 -0.79301565D-05 -0.11920504D-04 -0.14642204D-04
 -0.12357504D-04 -0.46467442D-05  0.41610208D-08  0.31101052D-07  0.11623173D-06
  0.32426844D-06  0.43443031D-06 -0.51298119D-06 -0.83267108D-06  0.35725908D-05
  0.14911702D-05  0.78957097D-04  0.74027298D-04  0.52711846D-04  0.78121544D-04
  0.73243914D-04  0.52154030D-04 -0.20700054D-05 -0.19407617D-05 -0.13819379D-05
  0.25753176D-03  0.25479770D-03  0.91648607D-06  0.32899125D-03  0.32549985D-03
 -0.15397703D-05  0.65972780D-05  0.65260080D-05 -0.19658915D-07  0.45280057D-04
 -0.44789638D-04 -0.49041902D-06  0.90664809D-04 -0.36258780D-03 -0.35870318D-03
  0.13668868D-03 -0.13614964D-03 -0.53904116D-06  0.27560710D-03  0.70044336D-04
  0.69566773D-04  0.28776609D-04 -0.29109771D-04  0.33316182D-06  0.58415458D-04
 -0.46804752D-04 -0.46249046D-04  0.65708471D-04  0.64895067D-04  0.55877014D-06
  0.65822033D-04  0.65425445D-04  0.17117040D-04 -0.26294745D-03 -0.26011064D-03
 -0.18793351D-04  0.35672800D-04 -0.19036490D-04 -0.18941106D-04 -0.33085206D-06
 -0.18666490D-04 -0.18195528D-04  0.35982803D-04  0.75775960D-04  0.75018846D-04
 -0.34990247D-04  0.71837756D-04 -0.28066148D-04 -0.50618454D-04 -0.74636880D-04
  0.25521839D-03  0.79083199D-03 -0.86798886D-05  0.32555761D-05  0.49939395D-04
  0.16823943D-04  0.59005076D-04  0.20169249D-03  0.19063478D-03  0.53794166D-04
  0.12138465D-03  0.15774584D-04 -0.76918524D-04  0.29531518D-04  0.47387006D-04
  0.21719101D-04 -0.33415275D-04  0.21016131D-03 -0.30517839D-04 -0.82966613D-05
  0.38814501D-04  0.20610356D-04  0.43437116D-04  0.21735883D-04 -0.10487669D-04
 -0.18914942D-04 -0.27890071D-04  0.94247701D-04  0.29655623D-03 -0.32913745D-05
  0.18208795D-04 -0.55908818D-05  0.64025404D-05  0.10567569D-03  0.32542432D-04
  0.71121977D-04  0.75916018D-04  0.40383289D-04  0.58384626D-05  0.14001023D-04
 -0.31751284D-04  0.17750261D-04 -0.19358781D-04  0.45484744D-04 -0.78882497D-04
  0.69519317D-05 -0.21379832D-04  0.14427900D-04  0.67244691D-05  0.36499238D-04
  0.47261758D-04  0.38745133D-04  0.69878443D-04  0.10303572D-03 -0.35663178D-03
 -0.10875822D-02  0.11782141D-04  0.59437420D-04  0.35679950D-04 -0.22880739D-04
  0.23097630D-03  0.15721944D-03 -0.26371129D-03  0.13487394D-03  0.10003280D-03
 -0.22076394D-04 -0.71946620D-06  0.66421380D-04 -0.65701913D-04 -0.13127865D-03
  0.25603258D-03  0.13390286D-03  0.22476299D-04  0.31347894D-04 -0.53824194D-04
 -0.30035779D-04  0.18626023D-04  0.28515719D-04 -0.31146501D-04 -0.58271779D-04
 -0.10068071D-03 -0.16321526D-03 -0.24785803D-03 -0.34449935D-03 -0.40958333D-03
 -0.36487106D-03 -0.18120268D-03 -0.29172099D-04 -0.30778288D-06 -0.14631284D-06
 -0.48807513D-05 -0.17008441D-04 -0.61250150D-04 -0.13501833D-03 -0.19006224D-03
  0.90665881D-05  0.24872944D-03  0.14707216D-03 -0.26851332D-08 -0.32523520D-07
 -0.67824372D-07 -0.19450849D-06 -0.10100555D-07  0.83881495D-06  0.21673367D-05
 -0.17658440D-05  0.88805446D-05 -0.95135028D-06 -0.25124346D-06  0.82534474D+01
  0.10871721D+02  0.11993210D+02  0.99612999D+01  0.52897267D+01  0.13647771D+01
  0.81663851D+01  0.10757040D+02  0.11866699D+02  0.98562223D+01  0.52339275D+01
  0.13503807D+01 -0.95063838D-02 -0.12522131D-01 -0.13813871D-01 -0.11473501D-01
 -0.60927476D-02 -0.15719607D-02 -0.32663881D-03  0.31577338D-02  0.44527343D-02
  0.63685879D-02 -0.32249633D-04 -0.58405958D-02 -0.32319249D-03  0.31244170D-02
  0.44057542D-02  0.63013939D-02 -0.31909372D-04 -0.57789726D-02  0.35295732D-06
 -0.34121643D-05 -0.48115079D-05 -0.68817290D-05  0.34848107D-07  0.63111946D-05
  0.54487870D-01  0.53913083D-01 -0.62689678D-04 -0.45758432D-03 -0.45276348D-03
  0.49400779D-06 -0.41202321D-04 -0.40767840D-04  0.72221475D-07  0.82157750D-05
 -0.91539705D-05  0.93819549D-06  0.16941825D-04 -0.69701331D-03 -0.68962653D-03
 -0.30286262D-05  0.31451429D-05 -0.11651673D-06 -0.60154477D-05  0.25300728D-03
  0.25031961D-03  0.87329622D-06 -0.95234199D-06  0.79045768D-07  0.18049750D-05
 -0.43367324D-04 -0.42905529D-04  0.16750691D-05  0.16586896D-05 -0.54841376D-07
  0.16794336D-05  0.16138316D-05  0.24799375D-04 -0.67046408D-05 -0.65899003D-05
 -0.24634851D-04  0.49903490D-04  0.10412728D-04  0.10298476D-04  0.11244332D-07
  0.10410653D-04  0.10319313D-04 -0.50591637D-05 -0.41648838D-04 -0.41214740D-04
  0.50254307D-05 -0.10273042D-04  0.39516673D-05  0.73659146D-05  0.12486866D-04
  0.18906804D-04  0.23637669D-04  0.20332635D-04  0.77980030D-05 -0.71177820D-08
 -0.94226106D-07 -0.34224636D-06 -0.10152674D-05 -0.11698906D-05  0.14210064D-05
  0.15145638D-06 -0.24087206D-05 -0.27235340D-05 -0.20697039D-03 -0.20241252D-03
 -0.13374251D-03 -0.20481894D-03 -0.20030845D-03 -0.13235226D-03 -0.47431278D-05
 -0.46386754D-05 -0.30649689D-05 -0.69410071D-05 -0.68854490D-05  0.65672100D-06
 -0.46799486D-04 -0.46306318D-04 -0.29604831D-05 -0.13883499D-04 -0.13738921D-04
 -0.37710351D-06  0.49672752D-04 -0.50450296D-04  0.77754427D-06  0.10102148D-03
 -0.93584201D-04 -0.92493846D-04 -0.25119587D-04  0.25281482D-04 -0.16189505D-06
 -0.50827206D-04  0.71993726D-04  0.71181344D-04  0.13158454D-04 -0.12531136D-04
 -0.62731820D-06  0.25889783D-04 -0.51995330D-04 -0.51418880D-04 -0.49257344D-04
 -0.49380807D-04  0.11109320D-05 -0.51947498D-04 -0.49167698D-04 -0.13631840D-03
  0.19971953D-03  0.19731012D-03  0.13298561D-03 -0.27144331D-03  0.17523239D-04
  0.17532712D-04 -0.52578789D-06  0.18352365D-04  0.17481244D-04  0.43611676D-04
 -0.70922081D-04 -0.70079381D-04 -0.42034313D-04  0.86306580D-04
MO    2     MO 0.0        OCC NO =    2.0000300  ORB. ENERGY =    0.000000
 -0.24486377D-05 -0.45647541D-05 -0.77150562D-05 -0.11597169D-04 -0.14245044D-04
 -0.12022315D-04 -0.45207043D-05  0.41278516D-08  0.30853133D-07  0.11530520D-06
  0.32168356D-06  0.43096729D-06 -0.50889201D-06 -0.81855908D-06  0.35373038D-05
  0.14823079D-05  0.78102443D-04  0.73226005D-04  0.52141278D-04 -0.78934108D-04
 -0.74005743D-04 -0.52696498D-04 -0.19874698D-05 -0.18633793D-05 -0.13268371D-05
  0.25599159D-03 -0.25870234D-03  0.11436710D-05  0.32669312D-03 -0.33015593D-03
 -0.12622624D-05  0.66093393D-05 -0.66781177D-05 -0.14124884D-07 -0.45740288D-04
  0.46547108D-04 -0.80681983D-06  0.91091093D-04 -0.35837909D-03  0.36213645D-03
 -0.13783157D-03  0.13830353D-03 -0.47195413D-06  0.27349955D-03  0.68096610D-04
 -0.69088441D-04 -0.29348664D-04  0.29059913D-04  0.28875028D-06  0.57793162D-04
 -0.46817339D-04  0.47254691D-04  0.65459147D-04 -0.66247248D-04  0.32708511D-06
  0.65376933D-04 -0.65742668D-04 -0.18079394D-04 -0.26175437D-03  0.26448441D-03
  0.17098139D-04  0.34242201D-04 -0.18875985D-04  0.18999739D-04 -0.26293128D-06
 -0.19187171D-04  0.19668173D-04 -0.35327328D-04  0.75815125D-04 -0.76667391D-04
  0.36116122D-04  0.70906381D-04  0.28636073D-04  0.51646336D-04  0.76152493D-04
 -0.26444129D-03 -0.80038033D-03  0.84578841D-05  0.31484840D-05 -0.51570375D-04
 -0.17271393D-04  0.59020174D-04 -0.20637431D-03 -0.19236263D-03  0.52988908D-04
 -0.12259511D-03 -0.15643553D-04  0.79108843D-04 -0.30797714D-04 -0.48311128D-04
  0.21394803D-04 -0.32861488D-04 -0.21089841D-03  0.31005462D-04  0.86711655D-05
 -0.39676628D-04  0.20412399D-04  0.43209685D-04 -0.22421290D-04 -0.38712087D-04
 -0.69818843D-04 -0.10294784D-03  0.35332433D-03  0.10860586D-02 -0.11622804D-04
  0.59476808D-04 -0.35659110D-04  0.23791676D-04  0.23000098D-03 -0.15858740D-03
  0.25984343D-03  0.13419657D-03 -0.10043570D-03  0.21064187D-04  0.78055653D-06
 -0.66172335D-04  0.65391778D-04 -0.13216382D-03  0.25426628D-03 -0.13240154D-03
 -0.22437985D-04 -0.31022081D-04  0.53460066D-04 -0.30138841D-04  0.17681945D-04
 -0.28908770D-04  0.10269287D-04  0.18521083D-04  0.27309326D-04 -0.95978842D-04
 -0.28587003D-03  0.29768115D-05  0.18348619D-04  0.54127962D-05 -0.60983232D-05
  0.10425568D-03 -0.32480193D-04 -0.69070342D-04  0.74355324D-04 -0.41306246D-04
 -0.56555957D-05 -0.13760256D-04  0.31179387D-04 -0.17419131D-04 -0.19676990D-04
  0.42702956D-04  0.76471372D-04 -0.69990369D-05  0.21263560D-04 -0.14264523D-04
  0.71831660D-05  0.36657231D-04 -0.47250858D-04 -0.31012673D-04 -0.58021402D-04
 -0.10024811D-03 -0.16251397D-03 -0.24679306D-03 -0.34301913D-03 -0.40782347D-03
 -0.36330331D-03 -0.18042411D-03 -0.29046755D-04 -0.30646042D-06 -0.14567933D-06
 -0.48596185D-05 -0.16934798D-04 -0.60984949D-04 -0.13443373D-03 -0.18923930D-03
  0.90273315D-05  0.24765249D-03  0.14643537D-03 -0.26804289D-08 -0.32466540D-07
 -0.67705547D-07 -0.19416772D-06 -0.10082859D-07  0.83734538D-06  0.21635396D-05
 -0.17627503D-05  0.88426707D-05 -0.93205142D-06 -0.24638187D-06  0.81663834D+01
  0.10757037D+02  0.11866696D+02  0.98562202D+01  0.52339264D+01  0.13503804D+01
 -0.82534489D+01 -0.10871723D+02 -0.11993212D+02 -0.99613018D+01 -0.52897276D+01
 -0.13647774D+01 -0.22921467D-02 -0.30192934D-02 -0.33307532D-02 -0.27664513D-02
 -0.14690624D-02 -0.37902579D-03 -0.32321918D-03  0.31246751D-02  0.44061181D-02
  0.63019144D-02 -0.31912007D-04 -0.57794499D-02  0.32666440D-03 -0.31579812D-02
 -0.44530832D-02 -0.63690869D-02  0.32252160D-04  0.58410534D-02  0.67360377D-07
 -0.65119678D-06 -0.91825544D-06 -0.13133482D-05  0.66506103D-08  0.12044642D-05
  0.53914044D-01 -0.54488829D-01 -0.15059150D-04 -0.45252350D-03  0.45735409D-03
  0.90014325D-07 -0.40762726D-04  0.41197483D-04  0.35986098D-07 -0.93204947D-05
  0.89916170D-05  0.32887769D-06  0.17538294D-04 -0.69040379D-03  0.69773040D-03
  0.31233939D-05 -0.32270207D-05  0.10362684D-06 -0.60704722D-05  0.25093399D-03
 -0.25359005D-03 -0.90943123D-06  0.86841781D-06  0.41013414D-07  0.17220150D-05
 -0.43004873D-04  0.43459189D-04  0.16539788D-05 -0.16491752D-05 -0.60821045D-07
  0.16926949D-05 -0.17336252D-05 -0.24667016D-04 -0.66546313D-05  0.66811508D-05
  0.24849479D-04  0.49012164D-04  0.10344925D-04 -0.10461890D-04 -0.24477076D-07
  0.10338235D-04 -0.10433512D-04  0.50441905D-05 -0.41373011D-04  0.41819182D-04
 -0.49707592D-05 -0.10005105D-04  0.39251432D-05  0.73164736D-05  0.12403053D-04
  0.18779899D-04  0.23479010D-04  0.20196159D-04  0.77456618D-05 -0.71592685D-08
 -0.94775310D-07 -0.34424117D-06 -0.10211849D-05 -0.11767094D-05  0.14292888D-05
  0.14965319D-06 -0.24204562D-05 -0.27125282D-05 -0.20463054D-03 -0.20012420D-03
 -0.13223052D-03  0.20683980D-03  0.20228481D-03  0.13365813D-03 -0.48711419D-05
 -0.47638704D-05 -0.31476906D-05 -0.51986468D-05  0.52724522D-05  0.65800403D-06
 -0.47603058D-04  0.48108524D-04 -0.30088123D-05 -0.13768126D-04  0.13916457D-04
 -0.38741603D-06 -0.50529983D-04  0.49827092D-04  0.70289087D-06  0.99282484D-04
 -0.93528240D-04  0.94423378D-04  0.25143913D-04 -0.25042110D-04 -0.10180290D-06
 -0.49622211D-04  0.71994159D-04 -0.72709026D-04 -0.12278536D-04  0.12957985D-04
 -0.67944829D-06  0.24934801D-04 -0.52758642D-04  0.53291831D-04 -0.51795208D-04
  0.51556726D-04  0.13200386D-05 -0.49365841D-04  0.51960044D-04  0.12992681D-03
  0.20475146D-03 -0.20663022D-03 -0.13388693D-03 -0.26069910D-03  0.18364869D-04
 -0.18320576D-04 -0.60063716D-06  0.17619486D-04 -0.18431946D-04 -0.40900506D-04
 -0.72714094D-04  0.73393674D-04  0.42702417D-04  0.82595007D-04
MO    3     MO 0.0        OCC NO =    2.0000210  ORB. ENERGY =    0.000000
 -0.14454744D-01 -0.26946555D-01 -0.45543350D-01 -0.68460149D-01 -0.84091031D-01
 -0.70969864D-01 -0.26686522D-01 -0.38142876D-05 -0.28509437D-04 -0.10654628D-03
 -0.29724752D-03 -0.39822972D-03  0.47023505D-03 -0.87197838D-03 -0.19345504D-02
 -0.82091163D-04  0.27436285D-06  0.25723261D-06  0.18316494D-06  0.50715276D-06
  0.47548795D-06  0.33857575D-06  0.11672416D-02  0.10943632D-02  0.77925179D-03
 -0.12429720D-06  0.26541847D-06  0.60718862D-03  0.78762259D-06 -0.16814481D-06
 -0.37921622D-03 -0.51446041D-08  0.18520790D-08  0.46684841D-05 -0.10555749D-03
 -0.10555902D-03  0.21111651D-03 -0.64703547D-07  0.60689949D-06  0.27144457D-06
 -0.24079266D-04 -0.24080084D-04  0.48159351D-04  0.39200312D-06 -0.12603081D-05
  0.66734579D-07  0.11426105D-04  0.11426909D-04 -0.22853014D-04  0.10488125D-06
  0.60516309D-08 -0.30416088D-07  0.65897002D-07  0.36270343D-04  0.77207368D-05
  0.12108213D-06 -0.10883005D-03 -0.11534741D-04 -0.31877314D-06  0.19024763D-07
 -0.11627469D-04 -0.44173875D-06 -0.13509845D-06  0.51881210D-04 -0.85669300D-04
 -0.56105268D-07 -0.15541882D-03  0.12857207D-03  0.46140061D-06 -0.22481259D-06
  0.12843583D-03 -0.32318809D-06 -0.48280893D-05 -0.87076579D-05 -0.12839437D-04
  0.75279333D-03  0.23596651D-03  0.50650432D-05 -0.41648064D-07  0.95868321D-04
  0.28429354D-04  0.33135947D-06  0.19934721D-03 -0.42492228D-05  0.15718548D-06
  0.44037522D-04  0.38734780D-04 -0.73923302D-04  0.54244328D-04  0.19678973D-04
  0.78885702D-07  0.33317715D-06  0.76007131D-04 -0.96546420D-05 -0.12044937D-04
  0.21699579D-04  0.10838739D-06 -0.95021876D-07 -0.34559037D-04 -0.48012642D-05
 -0.86592777D-05 -0.12768100D-04  0.75314315D-03  0.23754598D-03  0.50809792D-05
  0.83124742D-04 -0.48024319D-04  0.28393826D-04  0.17298841D-03 -0.99731183D-04
 -0.48213831D-05  0.38400128D-04 -0.22073345D-04  0.38736017D-04  0.22207639D-04
 -0.41980647D-04  0.19773007D-04 -0.11114077D-03  0.65551909D-04 -0.37588943D-04
 -0.11392319D-04 -0.10284770D-04  0.21677089D-04  0.20019502D-05 -0.30126942D-04
  0.17374166D-04 -0.48543749D-05 -0.87550650D-05 -0.12909338D-04  0.75245082D-03
  0.23440032D-03  0.50502202D-05 -0.82905592D-04 -0.47807363D-04  0.28591617D-04
 -0.17229178D-03 -0.99623273D-04 -0.34334230D-05 -0.37845293D-04 -0.21915094D-04
  0.38793346D-04  0.22143338D-04 -0.41835840D-04  0.19692503D-04  0.11073968D-03
 -0.66236302D-04 -0.38335607D-04 -0.11479094D-04 -0.10195977D-04  0.21675071D-04
 -0.20857724D-05  0.29785624D-04  0.17271405D-04 -0.15460253D+00 -0.28924484D+00
 -0.49975092D+00 -0.81015496D+00 -0.12302981D+01 -0.17099985D+01 -0.20330572D+01
 -0.18111180D+01 -0.89943951D+00 -0.14480215D+00 -0.15277482D-02 -0.72284174D-03
 -0.24112790D-01 -0.84028247D-01 -0.30259932D+00 -0.66704255D+00 -0.93898062D+00
  0.44792436D-01  0.12288192D+01  0.72659311D+00 -0.15531728D-04 -0.18812715D-03
 -0.39231935D-03 -0.11251036D-02 -0.58425063D-04  0.48519923D-02  0.12536616D-01
 -0.10214245D-01  0.46600020D-01 -0.38429925D-03 -0.13194649D-03  0.18554895D-02
  0.24441137D-02  0.26962400D-02  0.22394385D-02  0.11892040D-02  0.30682084D-03
  0.25952798D-02  0.34185906D-02  0.37712405D-02  0.31323106D-02  0.16633438D-02
  0.42915140D-03  0.59413976D+01  0.78262106D+01  0.86335353D+01  0.71708271D+01
  0.38079082D+01  0.98246021D+00 -0.56158725D-07  0.54290642D-06  0.76555473D-06
  0.10949458D-05 -0.55446513D-08 -0.10041685D-05 -0.92081376D-07  0.89018350D-06
  0.12552517D-05  0.17953419D-05 -0.90913588D-08 -0.16464979D-05 -0.21079663D-03
  0.20378462D-02  0.28735758D-02  0.41099736D-02 -0.20812328D-04 -0.37692334D-02
  0.13354870D-04  0.18193149D-04  0.41654013D-01 -0.24986868D-06 -0.21054181D-06
 -0.48395952D-03  0.20102313D-08 -0.43069073D-08 -0.98425795D-05 -0.71323401D-05
 -0.71317840D-05  0.14264124D-04 -0.14247957D-06  0.13945547D-06  0.19417384D-07
 -0.11142167D-03 -0.11142195D-03  0.22284362D-03  0.44056118D-07  0.35149295D-06
  0.29066015D-06 -0.14325422D-04 -0.14325371D-04  0.28650793D-04  0.17798034D-08
  0.13389565D-06  0.37047686D-07 -0.76691651D-07 -0.72133467D-05  0.54463328D-05
 -0.87632365D-07  0.21626873D-04 -0.81789400D-05  0.31770732D-06  0.13166886D-07
 -0.81600583D-05  0.15293089D-06  0.65188274D-07  0.20731462D-05 -0.33741043D-04
  0.68281776D-07 -0.61318904D-05  0.50614242D-04 -0.26384660D-06 -0.87548239D-07
  0.50608887D-04 -0.87032718D-07 -0.87944850D-03 -0.16392935D-02 -0.27789677D-02
 -0.42077330D-02 -0.52605930D-02 -0.45250533D-02 -0.17354553D-02 -0.68421078D-06
 -0.90576695D-05 -0.32899104D-04 -0.97594571D-04 -0.11245803D-03  0.13659703D-03
 -0.95962949D-04 -0.15938546D-03  0.12436155D-04 -0.21425221D-04 -0.20953398D-04
 -0.13844796D-04  0.17931496D-05  0.17536612D-05  0.11587181D-05  0.39018052D-02
  0.38158802D-02  0.25213134D-02 -0.55960630D-05  0.40391612D-06  0.87918079D-03
  0.34893976D-06  0.91218987D-08  0.21398552D-04 -0.10393727D-06  0.47938971D-08
  0.93387211D-05 -0.35637498D-04 -0.35639807D-04  0.71277305D-04  0.75730587D-06
 -0.11615337D-05  0.10819409D-06  0.21092068D-04  0.21092404D-04 -0.42184472D-04
 -0.33451749D-06  0.45364246D-06 -0.61850674D-07  0.18113577D-04  0.18117767D-04
 -0.36231344D-04  0.68071565D-07  0.11240966D-05 -0.50713268D-07  0.12950713D-05
 -0.30061954D-05  0.46408035D-04  0.12913086D-05  0.88677055D-05 -0.69588054D-04
 -0.51765225D-05  0.15088072D-06 -0.69636050D-04  0.13841460D-05 -0.53708628D-06
  0.95513491D-06 -0.25388201D-04 -0.53591748D-06 -0.27872500D-05  0.38072549D-04
  0.21471763D-05 -0.78154716D-07  0.38092053D-04 -0.45207107D-06
MO    4     MO 0.0        OCC NO =    2.0000123  ORB. ENERGY =    0.000000
  0.26825114D-01  0.50007417D-01  0.84519348D-01  0.12704834D+00  0.15605614D+00
  0.13170587D+00  0.49524848D-01 -0.14574095D-05 -0.10893233D-04 -0.40710499D-04
 -0.11357595D-03 -0.15216046D-03  0.17967314D-03  0.26462252D-02 -0.36110789D-02
 -0.42308997D-04 -0.28427601D-05 -0.26652683D-05 -0.18978298D-05  0.15992093D-05
  0.14993604D-05  0.10676339D-05  0.36697358D-02  0.34406106D-02  0.24499197D-02
  0.15941785D-05  0.57149001D-06  0.13052328D-02  0.85256012D-06 -0.18161480D-06
 -0.41705282D-03  0.20494324D-07  0.14045388D-08  0.37026928D-05 -0.31918180D-03
 -0.31919273D-03  0.63837453D-03  0.42145233D-07  0.14599673D-06  0.83653384D-06
  0.95950263D-05  0.95970751D-05 -0.19192101D-04  0.13938302D-05 -0.14361715D-05
 -0.31272423D-07 -0.17856406D-04 -0.17855686D-04  0.35712092D-04  0.52133431D-07
 -0.42183090D-06  0.47878470D-07  0.24652770D-06 -0.42204475D-04  0.22565689D-04
  0.18205566D-06  0.12655974D-03 -0.33908209D-04 -0.92163875D-06  0.53689892D-07
 -0.33788858D-04 -0.16062743D-06 -0.11869858D-06  0.82087453D-04 -0.16373359D-03
  0.62420094D-08 -0.24583718D-03  0.24570772D-03  0.34985374D-06 -0.42517913D-06
  0.24549306D-03 -0.55115664D-06 -0.90318905D-04 -0.16289386D-03 -0.24018691D-03
  0.10231174D-02  0.68432329D-03  0.42694346D-05 -0.12200961D-06 -0.57753865D-04
  0.33549565D-04  0.53028730D-06  0.30468001D-03 -0.43219963D-04  0.84607483D-07
  0.11105996D-03  0.75812687D-04 -0.14239707D-03  0.24269515D-04  0.11812756D-03
  0.58888440D-07  0.39144596D-07  0.14267024D-03 -0.14796998D-04 -0.21044178D-04
  0.35841176D-04  0.15581213D-06 -0.22860864D-07 -0.62802030D-04 -0.90248974D-04
 -0.16276774D-03 -0.24000094D-03  0.10255731D-02  0.68519274D-03  0.43730764D-05
 -0.49636492D-04  0.28614691D-04  0.33642942D-04  0.26502137D-03 -0.15279411D-03
 -0.43722353D-04  0.96301518D-04 -0.55543851D-04  0.75902819D-04 -0.17474067D-04
 -0.10108590D-03  0.11855996D-03 -0.14478876D-03  0.12317441D-03 -0.70892483D-04
 -0.19329269D-04 -0.16322270D-04  0.35651539D-04  0.53203472D-05 -0.54329711D-04
  0.31411968D-04 -0.90385780D-04 -0.16301448D-03 -0.24036475D-03  0.10206672D-02
  0.68345414D-03  0.41670267D-05  0.50417845D-04  0.29181123D-04  0.33387471D-04
 -0.26271510D-03 -0.15194019D-03 -0.42316842D-04 -0.95999041D-04 -0.55418009D-04
  0.75869161D-04 -0.17427960D-04 -0.10047000D-03  0.11789796D-03  0.14366471D-03
 -0.12393369D-03 -0.71314646D-04 -0.19594732D-04 -0.16352162D-04  0.35946894D-04
 -0.54070533D-05  0.54531082D-04  0.31527069D-04  0.91313772D-01  0.17083832D+00
  0.29517073D+00  0.47850643D+00  0.72665794D+00  0.10099862D+01  0.12007962D+01
  0.10697109D+01  0.53124108D+00  0.85525319D-01  0.90234263D-03  0.42752978D-03
  0.14261678D-01  0.49699092D-01  0.17897448D+00  0.39452696D+00  0.55536663D+00
 -0.26492798D-01 -0.72679368D+00 -0.42974855D+00  0.62778963D-05  0.76040655D-04
  0.15857477D-03  0.45476483D-03  0.23615304D-04 -0.19611665D-02 -0.50672776D-02
  0.41285793D-02 -0.28545106D-01  0.14183061D-02 -0.18170510D-03  0.85940266D-02
  0.11320343D-01  0.12488111D-01  0.10372354D-01  0.55080077D-02  0.14210948D-02
  0.43138010D-02  0.56822851D-02  0.62684499D-02  0.52064385D-02  0.27647633D-02
  0.71332338D-03  0.99146463D+01  0.13059909D+02  0.14407123D+02  0.11966244D+02
  0.63544076D+01  0.16394704D+01 -0.27015530D-06  0.26116876D-05  0.36827521D-05
  0.52673097D-05 -0.26672915D-07 -0.48306198D-05 -0.14652594D-06  0.14165185D-05
  0.19974389D-05  0.28568660D-05 -0.14466767D-07 -0.26200156D-05 -0.33686732D-03
  0.32566165D-02  0.45921692D-02  0.65680167D-02 -0.33259512D-04 -0.60234908D-02
  0.62218480D-04  0.31569083D-04  0.72557453D-01  0.43490520D-07 -0.13562897D-06
 -0.30643810D-03  0.83445630D-08 -0.17494899D-08 -0.39586957D-05  0.45444888D-03
  0.45444957D-03 -0.90889845D-03 -0.17012054D-06 -0.19981247D-05 -0.11873934D-05
 -0.30966977D-03 -0.30967017D-03  0.61933995D-03  0.59231753D-07  0.11076517D-05
  0.80945793D-06  0.43300901D-05  0.43302330D-05 -0.86603231D-05 -0.12935439D-07
 -0.98091314D-07 -0.10302159D-07 -0.41084865D-07 -0.14494838D-04 -0.46949156D-04
 -0.63289798D-07  0.43605577D-04  0.70404673D-04  0.18654439D-06 -0.12106371D-06
  0.70442796D-04 -0.68466575D-07  0.68799135D-07  0.42138208D-05 -0.62583147D-04
  0.75163118D-07 -0.12476929D-04  0.93880183D-04 -0.28156052D-06 -0.16453335D-06
  0.93869259D-04 -0.14087784D-07 -0.63569913D-02 -0.11849443D-01 -0.20087445D-01