 Entering Gaussian System, Link 0=/home/bruns/programas/chemistry/gaussian/g09/g09
 Input=GAUSSIAN.com
 Output=GAUSSIAN.log
 Initial command:
 /home/bruns/programas/chemistry/gaussian/g09/l1.exe /home/bruns/programas/chemistry/gaussian/work/Gau-72135.inp -scrdir=/home/bruns/programas/chemistry/gaussian/work/
 Entering Link 1 = /home/bruns/programas/chemistry/gaussian/g09/l1.exe PID=     72137.
  
 Copyright (c) 1988,1990,1992,1993,1995,1998,2003,2009,2010,
            Gaussian, Inc.  All Rights Reserved.
  
 This is part of the Gaussian(R) 09 program.  It is based on
 the Gaussian(R) 03 system (copyright 2003, Gaussian, Inc.),
 the Gaussian(R) 98 system (copyright 1998, Gaussian, Inc.),
 the Gaussian(R) 94 system (copyright 1995, Gaussian, Inc.),
 the Gaussian 92(TM) system (copyright 1992, Gaussian, Inc.),
 the Gaussian 90(TM) system (copyright 1990, Gaussian, Inc.),
 the Gaussian 88(TM) system (copyright 1988, Gaussian, Inc.),
 the Gaussian 86(TM) system (copyright 1986, Carnegie Mellon
 University), and the Gaussian 82(TM) system (copyright 1983,
 Carnegie Mellon University). Gaussian is a federally registered
 trademark of Gaussian, Inc.
  
 This software contains proprietary and confidential information,
 including trade secrets, belonging to Gaussian, Inc.
  
 This software is provided under written license and may be
 used, copied, transmitted, or stored only in accord with that
 written license.
  
 The following legend is applicable only to US Government
 contracts under FAR:
  
                    RESTRICTED RIGHTS LEGEND
  
 Use, reproduction and disclosure by the US Government is
 subject to restrictions as set forth in subparagraphs (a)
 and (c) of the Commercial Computer Software - Restricted
 Rights clause in FAR 52.227-19.
  
 Gaussian, Inc.
 340 Quinnipiac St., Bldg. 40, Wallingford CT 06492
  
  
 ---------------------------------------------------------------
 Warning -- This program may not be used in any manner that
 competes with the business of Gaussian, Inc. or will provide
 assistance to any competitor of Gaussian, Inc.  The licensee
 of this program is prohibited from giving any competitor of
 Gaussian, Inc. access to this program.  By using this program,
 the user acknowledges that Gaussian, Inc. is engaged in the
 business of creating and licensing software in the field of
 computational chemistry and represents and warrants to the
 licensee that it is not a competitor of Gaussian, Inc. and that
 it will not use this program in any manner prohibited above.
 ---------------------------------------------------------------
  

 Cite this work as:
 Gaussian 09, Revision B.01,
 M. J. Frisch, G. W. Trucks, H. B. Schlegel, G. E. Scuseria, 
 M. A. Robb, J. R. Cheeseman, G. Scalmani, V. Barone, B. Mennucci, 
 G. A. Petersson, H. Nakatsuji, M. Caricato, X. Li, H. P. Hratchian, 
 A. F. Izmaylov, J. Bloino, G. Zheng, J. L. Sonnenberg, M. Hada, 
 M. Ehara, K. Toyota, R. Fukuda, J. Hasegawa, M. Ishida, T. Nakajima, 
 Y. Honda, O. Kitao, H. Nakai, T. Vreven, J. A. Montgomery, Jr., 
 J. E. Peralta, F. Ogliaro, M. Bearpark, J. J. Heyd, E. Brothers, 
 K. N. Kudin, V. N. Staroverov, T. Keith, R. Kobayashi, J. Normand, 
 K. Raghavachari, A. Rendell, J. C. Burant, S. S. Iyengar, J. Tomasi, 
 M. Cossi, N. Rega, J. M. Millam, M. Klene, J. E. Knox, J. B. Cross, 
 V. Bakken, C. Adamo, J. Jaramillo, R. Gomperts, R. E. Stratmann, 
 O. Yazyev, A. J. Austin, R. Cammi, C. Pomelli, J. W. Ochterski, 
 R. L. Martin, K. Morokuma, V. G. Zakrzewski, G. A. Voth, 
 P. Salvador, J. J. Dannenberg, S. Dapprich, A. D. Daniels, 
 O. Farkas, J. B. Foresman, J. V. Ortiz, J. Cioslowski, 
 and D. J. Fox, Gaussian, Inc., Wallingford CT, 2010.
 
 ******************************************
 Gaussian 09:  EM64L-G09RevB.01 12-Aug-2010
                23-Aug-2020 
 ******************************************
 %nproc=8
 Will use up to    8 processors via shared memory.
 %mem=8GB
 -----------------------------------------------------
 # QCISD aug-cc-pvtz nosymm density=current output=wfn
 -----------------------------------------------------
 1/30=1,38=1/1;
 2/12=2,15=1,17=6,18=5,40=1/2;
 3/5=16,6=1,7=10,11=9,16=1,25=1,30=1,71=1/1,2,3;
 4//1;
 5/5=2,38=5/2;
 8/6=4,9=120000,10=1/1,4;
 9/5=8,15=1/13;
 11/28=-7,31=1,32=3,42=3/11;
 10/5=6,13=10,31=1/2;
 6/7=2,8=2,9=2,10=2,22=-1,31=1/1;
 99/5=1,6=1100,9=1/99;
 ----------------------
 clch3f_ts-wavefunction
 ----------------------
 Symbolic Z-matrix:
 Charge = -1 Multiplicity = 1
 C                     0.01018   0.00003  -0.49771 
 H                     0.00002  -1.05257  -0.62073 
 H                    -0.91131   0.52637  -0.62125 
 H                     0.91175   0.52613  -0.62157 
 Cl                    0.00056   0.00096   1.64472 
 F                    -0.00019  -0.00092  -2.59347 
 
                          Input orientation:                          
 ---------------------------------------------------------------------
 Center     Atomic      Atomic             Coordinates (Angstroms)
 Number     Number       Type             X           Y           Z
 ---------------------------------------------------------------------
      1          6           0        0.010175    0.000029   -0.497709
      2          1           0        0.000019   -1.052570   -0.620726
      3          1           0       -0.911312    0.526365   -0.621245
      4          1           0        0.911750    0.526132   -0.621570
      5         17           0        0.000555    0.000962    1.644718
      6          9           0       -0.000186   -0.000921   -2.593468
 ---------------------------------------------------------------------
                    Distance matrix (angstroms):
                    1          2          3          4          5
     1  C    0.000000
     2  H    1.059812   0.000000
     3  H    1.068377   1.823063   0.000000
     4  H    1.051172   1.823062   1.823062   0.000000
     5  Cl   2.142449   2.498433   2.498427   2.498428   0.000000
     6  F    2.095785   2.235548   2.235586   2.235575   4.238186
                    6
     6  F    0.000000
 Symmetry turned off by external request.
 Stoichiometry    CH3ClF(1-)
 Framework group  C1[X(CH3ClF)]
 Deg. of freedom    12
 Full point group                 C1      NOp   1
 Rotational constants (GHZ):    150.8352018      2.2147223      2.2147128
 Standard basis: Aug-CC-pVTZ (5D, 7F)
 Integral buffers will be    131072 words long.
 Raffenetti 1 integral format.
 Two-electron integral symmetry is turned off.
   211 basis functions,   339 primitive gaussians,   244 cartesian basis functions
    18 alpha electrons       18 beta electrons
       nuclear repulsion energy        84.9840503301 Hartrees.
 NAtoms=    6 NActive=    6 NUniq=    6 SFac= 1.00D+00 NAtFMM=   50 NAOKFM=F Big=F
 One-electron integrals computed using PRISM.
 NBasis=   211 RedAO= T  NBF=   211
 NBsUse=   211 1.00D-06 NBFU=   211
 Harris functional with IExCor=  205 diagonalized for initial guess.
 ExpMin= 2.53D-02 ExpMax= 4.56D+05 ExpMxC= 1.44D+03 IAcc=3 IRadAn=         0 AccDes= 0.00D+00
 HarFok:  IExCor=  205 AccDes= 0.00D+00 IRadAn=         0 IDoV= 1
 ScaDFX=  1.000000  1.000000  1.000000  1.000000
 FoFCou: FMM=F IPFlag=           0 FMFlag=      100000 FMFlg1=           0
         NFxFlg=           0 DoJE=T BraDBF=F KetDBF=T FulRan=T
         Omega=  0.000000  0.000000  1.000000  0.000000  0.000000 ICntrl=     500 IOpCl=  0
         NMat0=    1 NMatS0=    1 NMatT0=    0 NMatD0=    1 NMtDS0=    0 NMtDT0=    0
         I1Cent=           4 NGrid=           0.
 Symmetry not used in FoFCou.
 Requested convergence on RMS density matrix=1.00D-08 within 128 cycles.
 Requested convergence on MAX density matrix=1.00D-06.
 Requested convergence on             energy=1.00D-06.
 No special actions if energy rises.
 Keep R1 ints in memory in canonical form, NReq=454274131.
 SCF Done:  E(RHF) =  -598.616988001     A.U. after   12 cycles
             Convg  =    0.9416D-08             -V/T =  2.0001
 ExpMin= 2.53D-02 ExpMax= 4.56D+05 ExpMxC= 1.44D+03 IAcc=3 IRadAn=         5 AccDes= 0.00D+00
 HarFok:  IExCor=  205 AccDes= 0.00D+00 IRadAn=         5 IDoV=-2
 ScaDFX=  1.000000  1.000000  1.000000  1.000000
 DSYEVD returned Info=          93 IAlg= 4 N=    46 NDim=    46 NE2=    21472034 trying DSYEV.
 Range of M.O.s used for correlation:     8   211
 NBasis=   211 NAE=    18 NBE=    18 NFC=     7 NFV=     0
 NROrb=    204 NOA=    11 NOB=    11 NVA=   193 NVB=   193

 **** Warning!!: The largest alpha MO coefficient is  0.34975902D+02

 Semi-Direct transformation.
 ModeAB=           2 MOrb=            11 LenV=    1072528236
 LASXX=     44979418 LTotXX=    44979418 LenRXX=    44979418
 LTotAB=    45631872 MaxLAS=    67073160 LenRXY=    67073160
 NonZer=    89958836 LenScr=   135708672 LnRSAI=           0
 LnScr1=           0 LExtra=           0 Total=    247761250
 MaxDsk=          -1 SrtSym=           F ITran=            4
 JobTyp=0 Pass  1:  I=   1 to  11.
 (rs|ai) integrals will be sorted in core.
 Spin components of T(2) and E(2):
     alpha-alpha T2 =       0.2567418701D-01 E2=     -0.8208294563D-01
     alpha-beta  T2 =       0.1452608858D+00 E2=     -0.5099830885D+00
     beta-beta   T2 =       0.2567418701D-01 E2=     -0.8208294563D-01
 ANorm=    0.1093896366D+01
 E2 =    -0.6741489798D+00 EUMP2 =    -0.59929113698083D+03
 R2 and R3 integrals will be kept in memory, NReq=   900794930.
 Iterations=  50 Convergence= 0.100D-07
 Iteration Nr.   1
 **********************
 DD1Dir will call FoFMem   1 times, MxPair=       132
 NAB=    66 NAA=     0 NBB=     0.
 MP4(R+Q)=  0.14439554D-01
 E3=       -0.18700927D-01        EUMP3=      -0.59930983791D+03
 E4(DQ)=   -0.45163871D-03        UMP4(DQ)=   -0.59931028955D+03
 E4(SDQ)=  -0.98185193D-02        UMP4(SDQ)=  -0.59931965643D+03
 DE(Corr)= -0.67841035     E(Corr)=     -599.29539835    
 NORM(A)=   0.10996883D+01
 Iteration Nr.   2
 **********************
 DD1Dir will call FoFMem   1 times, MxPair=       132
 NAB=    66 NAA=     0 NBB=     0.
 DE(Corr)= -0.70061149     E(CORR)=     -599.31759949     Delta=-2.22D-02
 NORM(A)=   0.11070435D+01
 Iteration Nr.   3
 **********************
 DD1Dir will call FoFMem   1 times, MxPair=       132
 NAB=    66 NAA=     0 NBB=     0.
 DE(Corr)= -0.69821444     E(CORR)=     -599.31520245     Delta= 2.40D-03
 NORM(A)=   0.11110292D+01
 Iteration Nr.   4
 **********************
 DD1Dir will call FoFMem   1 times, MxPair=       132
 NAB=    66 NAA=     0 NBB=     0.
 DE(Corr)= -0.70127391     E(CORR)=     -599.31826191     Delta=-3.06D-03
 NORM(A)=   0.11131332D+01
 Iteration Nr.   5
 **********************
 DD1Dir will call FoFMem   1 times, MxPair=       132
 NAB=    66 NAA=     0 NBB=     0.
 DE(Corr)= -0.70186896     E(CORR)=     -599.31885696     Delta=-5.95D-04
 NORM(A)=   0.11141644D+01
 Iteration Nr.   6
 **********************
 DD1Dir will call FoFMem   1 times, MxPair=       132
 NAB=    66 NAA=     0 NBB=     0.
 DE(Corr)= -0.70201577     E(CORR)=     -599.31900377     Delta=-1.47D-04
 NORM(A)=   0.11144904D+01
 Iteration Nr.   7
 **********************
 DD1Dir will call FoFMem   1 times, MxPair=       132
 NAB=    66 NAA=     0 NBB=     0.
 DE(Corr)= -0.70204549     E(CORR)=     -599.31903350     Delta=-2.97D-05
 NORM(A)=   0.11145215D+01
 Iteration Nr.   8
 **********************
 DD1Dir will call FoFMem   1 times, MxPair=       132
 NAB=    66 NAA=     0 NBB=     0.
 DE(Corr)= -0.70205938     E(CORR)=     -599.31904738     Delta=-1.39D-05
 NORM(A)=   0.11145393D+01
 Iteration Nr.   9
 **********************
 DD1Dir will call FoFMem   1 times, MxPair=       132
 NAB=    66 NAA=     0 NBB=     0.
 DE(Corr)= -0.70203616     E(CORR)=     -599.31902416     Delta= 2.32D-05
 NORM(A)=   0.11145425D+01
 Iteration Nr.  10
 **********************
 DD1Dir will call FoFMem   1 times, MxPair=       132
 NAB=    66 NAA=     0 NBB=     0.
 DE(Corr)= -0.70205546     E(CORR)=     -599.31904346     Delta=-1.93D-05
 NORM(A)=   0.11145427D+01
 Iteration Nr.  11
 **********************
 DD1Dir will call FoFMem   1 times, MxPair=       132
 NAB=    66 NAA=     0 NBB=     0.
 DE(Corr)= -0.70204626     E(CORR)=     -599.31903427     Delta= 9.19D-06
 NORM(A)=   0.11145456D+01
 Iteration Nr.  12
 **********************
 DD1Dir will call FoFMem   1 times, MxPair=       132
 NAB=    66 NAA=     0 NBB=     0.
 DE(Corr)= -0.70205002     E(CORR)=     -599.31903802     Delta=-3.75D-06
 NORM(A)=   0.11145460D+01
 Iteration Nr.  13
 **********************
 DD1Dir will call FoFMem   1 times, MxPair=       132
 NAB=    66 NAA=     0 NBB=     0.
 DE(Corr)= -0.70205059     E(CORR)=     -599.31903859     Delta=-5.67D-07
 NORM(A)=   0.11145467D+01
 Iteration Nr.  14
 **********************
 DD1Dir will call FoFMem   1 times, MxPair=       132
 NAB=    66 NAA=     0 NBB=     0.
 DE(Corr)= -0.70205081     E(CORR)=     -599.31903881     Delta=-2.24D-07
 NORM(A)=   0.11145468D+01
 Iteration Nr.  15
 **********************
 DD1Dir will call FoFMem   1 times, MxPair=       132
 NAB=    66 NAA=     0 NBB=     0.
 DE(Corr)= -0.70205072     E(CORR)=     -599.31903872     Delta= 9.05D-08
 NORM(A)=   0.11145468D+01
 Iteration Nr.  16
 **********************
 DD1Dir will call FoFMem   1 times, MxPair=       132
 NAB=    66 NAA=     0 NBB=     0.
 DE(Corr)= -0.70205092     E(CORR)=     -599.31903892     Delta=-2.03D-07
 NORM(A)=   0.11145466D+01
 Iteration Nr.  17
 **********************
 DD1Dir will call FoFMem   1 times, MxPair=       132
 NAB=    66 NAA=     0 NBB=     0.
 DE(Corr)= -0.70205079     E(CORR)=     -599.31903879     Delta= 1.31D-07
 NORM(A)=   0.11145465D+01
 Iteration Nr.  18
 **********************
 DD1Dir will call FoFMem   1 times, MxPair=       132
 NAB=    66 NAA=     0 NBB=     0.
 DE(Corr)= -0.70205083     E(CORR)=     -599.31903883     Delta=-3.67D-08
 NORM(A)=   0.11145463D+01
 Iteration Nr.  19
 **********************
 DD1Dir will call FoFMem   1 times, MxPair=       132
 NAB=    66 NAA=     0 NBB=     0.
 DE(Corr)= -0.70205078     E(CORR)=     -599.31903878     Delta= 5.28D-08
 NORM(A)=   0.11145462D+01
 Iteration Nr.  20
 **********************
 DD1Dir will call FoFMem   1 times, MxPair=       132
 NAB=    66 NAA=     0 NBB=     0.
 DE(Corr)= -0.70205078     E(CORR)=     -599.31903878     Delta=-2.71D-09
 NORM(A)=   0.11145462D+01
 Iteration Nr.  21
 **********************
 DD1Dir will call FoFMem   1 times, MxPair=       132
 NAB=    66 NAA=     0 NBB=     0.
 DE(Corr)= -0.70205076     E(CORR)=     -599.31903876     Delta= 1.91D-08
 NORM(A)=   0.11145461D+01
 Iteration Nr.  22
 **********************
 DD1Dir will call FoFMem   1 times, MxPair=       132
 NAB=    66 NAA=     0 NBB=     0.
 DE(Corr)= -0.70205076     E(CORR)=     -599.31903876     Delta= 3.30D-09
 NORM(A)=   0.11145461D+01
 Iteration Nr.  23
 **********************
 DD1Dir will call FoFMem   1 times, MxPair=       132
 NAB=    66 NAA=     0 NBB=     0.
 DE(Corr)= -0.70205075     E(CORR)=     -599.31903875     Delta= 5.11D-09
 NORM(A)=   0.11145461D+01
 Iteration Nr.  24
 **********************
 DD1Dir will call FoFMem   1 times, MxPair=       132
 NAB=    66 NAA=     0 NBB=     0.
 DE(Corr)= -0.70205075     E(CORR)=     -599.31903875     Delta=-1.58D-09
 NORM(A)=   0.11145461D+01
 Iteration Nr.  25
 **********************
 DD1Dir will call FoFMem   1 times, MxPair=       132
 NAB=    66 NAA=     0 NBB=     0.
 DE(Corr)= -0.70205075     E(CORR)=     -599.31903875     Delta= 4.53D-09
 NORM(A)=   0.11145461D+01
 Iteration Nr.  26
 **********************
 DD1Dir will call FoFMem   1 times, MxPair=       132
 NAB=    66 NAA=     0 NBB=     0.
 DE(Corr)= -0.70205075     E(CORR)=     -599.31903875     Delta=-4.45D-09
 NORM(A)=   0.11145461D+01
 Iteration Nr.  27
 **********************
 DD1Dir will call FoFMem   1 times, MxPair=       132
 NAB=    66 NAA=     0 NBB=     0.
 DE(Corr)= -0.70205075     E(CORR)=     -599.31903875     Delta= 4.42D-09
 NORM(A)=   0.11145461D+01
 Iteration Nr.  28
 **********************
 DD1Dir will call FoFMem   1 times, MxPair=       132
 NAB=    66 NAA=     0 NBB=     0.
 DE(Corr)= -0.70205075     E(CORR)=     -599.31903875     Delta=-4.42D-09
 NORM(A)=   0.11145461D+01
 Largest amplitude= 6.61D-02

 Z-AMPLITUDE ITERATIONS

 Iteration Nr.   1
 **********************
 DD1Dir will call FoFMem   1 times, MxPair=       132
 NAB=    66 NAA=     0 NBB=     0.
 DE(Z)  -0.68265739D+00          E(Z)=    -0.59929964539D+03
 NORM(A)=   0.11143029D+01
 Iteration Nr.   2
 **********************
 DD1Dir will call FoFMem   1 times, MxPair=       132
 NAB=    66 NAA=     0 NBB=     0.
 DE(Z)  -0.68263067D+00          E(Z)=    -0.59929961867D+03
 NORM(A)=   0.11147326D+01
 Iteration Nr.   3
 **********************
 DD1Dir will call FoFMem   1 times, MxPair=       132
 NAB=    66 NAA=     0 NBB=     0.
 DE(Z)  -0.68267511D+00          E(Z)=    -0.59929966311D+03
 NORM(A)=   0.11140684D+01
 Iteration Nr.   4
 **********************
 DD1Dir will call FoFMem   1 times, MxPair=       132
 NAB=    66 NAA=     0 NBB=     0.
 DE(Z)  -0.68260961D+00          E(Z)=    -0.59929959761D+03
 NORM(A)=   0.11152766D+01
 Iteration Nr.   5
 **********************
 DD1Dir will call FoFMem   1 times, MxPair=       132
 NAB=    66 NAA=     0 NBB=     0.
 DE(Z)  -0.68272851D+00          E(Z)=    -0.59929971651D+03
 NORM(A)=   0.11078899D+01
 Iteration Nr.   6
 **********************
 DD1Dir will call FoFMem   1 times, MxPair=       132
 NAB=    66 NAA=     0 NBB=     0.
 DE(Z)  -0.68198827D+00          E(Z)=    -0.59929897627D+03
 NORM(A)=   0.11078833D+01
 Iteration Nr.   7
 **********************
 DD1Dir will call FoFMem   1 times, MxPair=       132
 NAB=    66 NAA=     0 NBB=     0.
 DE(Z)  -0.68199091D+00          E(Z)=    -0.59929897891D+03
 NORM(A)=   0.11078786D+01
 Iteration Nr.   8
 **********************
 DD1Dir will call FoFMem   1 times, MxPair=       132
 NAB=    66 NAA=     0 NBB=     0.
 DE(Z)  -0.68198840D+00          E(Z)=    -0.59929897640D+03
 NORM(A)=   0.11078759D+01
 Iteration Nr.   9
 **********************
 DD1Dir will call FoFMem   1 times, MxPair=       132
 NAB=    66 NAA=     0 NBB=     0.
 DE(Z)  -0.68198872D+00          E(Z)=    -0.59929897672D+03
 NORM(A)=   0.11078747D+01
 Iteration Nr.  10
 **********************
 DD1Dir will call FoFMem   1 times, MxPair=       132
 NAB=    66 NAA=     0 NBB=     0.
 DE(Z)  -0.68198856D+00          E(Z)=    -0.59929897656D+03
 NORM(A)=   0.11078743D+01
 Iteration Nr.  11
 **********************
 DD1Dir will call FoFMem   1 times, MxPair=       132
 NAB=    66 NAA=     0 NBB=     0.
 DE(Z)  -0.68198853D+00          E(Z)=    -0.59929897653D+03
 NORM(A)=   0.11078742D+01
 Iteration Nr.  12
 **********************
 DD1Dir will call FoFMem   1 times, MxPair=       132
 NAB=    66 NAA=     0 NBB=     0.
 DE(Z)  -0.68198857D+00          E(Z)=    -0.59929897657D+03
 NORM(A)=   0.11078743D+01
 Iteration Nr.  13
 **********************
 DD1Dir will call FoFMem   1 times, MxPair=       132
 NAB=    66 NAA=     0 NBB=     0.
 DE(Z)  -0.68198861D+00          E(Z)=    -0.59929897661D+03
 NORM(A)=   0.11078743D+01
 Iteration Nr.  14
 **********************
 DD1Dir will call FoFMem   1 times, MxPair=       132
 NAB=    66 NAA=     0 NBB=     0.
 DE(Z)  -0.68198858D+00          E(Z)=    -0.59929897658D+03
 NORM(A)=   0.11078744D+01
 Iteration Nr.  15
 **********************
 DD1Dir will call FoFMem   1 times, MxPair=       132
 NAB=    66 NAA=     0 NBB=     0.
 DE(Z)  -0.68198861D+00          E(Z)=    -0.59929897661D+03
 NORM(A)=   0.11078744D+01
 Iteration Nr.  16
 **********************
 DD1Dir will call FoFMem   1 times, MxPair=       132
 NAB=    66 NAA=     0 NBB=     0.
 DE(Z)  -0.68198861D+00          E(Z)=    -0.59929897661D+03
 NORM(A)=   0.11078744D+01
 Iteration Nr.  17
 **********************
 DD1Dir will call FoFMem   1 times, MxPair=       132
 NAB=    66 NAA=     0 NBB=     0.
 DE(Z)  -0.68198861D+00          E(Z)=    -0.59929897661D+03
 NORM(A)=   0.11078743D+01
 Iteration Nr.  18
 **********************
 DD1Dir will call FoFMem   1 times, MxPair=       132
 NAB=    66 NAA=     0 NBB=     0.
 DE(Z)  -0.68198861D+00          E(Z)=    -0.59929897661D+03
 NORM(A)=   0.11078743D+01
 Iteration Nr.  19
 **********************
 DD1Dir will call FoFMem   1 times, MxPair=       132
 NAB=    66 NAA=     0 NBB=     0.
 DE(Z)  -0.68198861D+00          E(Z)=    -0.59929897661D+03
 NORM(A)=   0.11078743D+01
 Iteration Nr.  20
 **********************
 DD1Dir will call FoFMem   1 times, MxPair=       132
 NAB=    66 NAA=     0 NBB=     0.
 DE(Z)  -0.68198861D+00          E(Z)=    -0.59929897661D+03
 NORM(A)=   0.11078743D+01
 Discarding MO integrals.
          Differentiating once with respect to electric field.
                with respect to dipole field.
          Electric field/nuclear overlap derivatives assumed to be zero.
          Keep R1 ints in memory in canonical form, NReq=448662239.
          There are     1 degrees of freedom in the 1st order CPHF.  IDoFFX=0.
 LinEq1:  Iter=  0 NonCon=     1 RMS=3.11D-03 Max=1.20D-01
 AX will form     1 AO Fock derivatives at one time.
 LinEq1:  Iter=  1 NonCon=     1 RMS=6.94D-04 Max=9.61D-03
 LinEq1:  Iter=  2 NonCon=     1 RMS=2.30D-04 Max=5.72D-03
 LinEq1:  Iter=  3 NonCon=     1 RMS=9.49D-05 Max=1.45D-03
 LinEq1:  Iter=  4 NonCon=     1 RMS=3.84D-05 Max=4.10D-04
 LinEq1:  Iter=  5 NonCon=     1 RMS=1.06D-05 Max=2.26D-04
 LinEq1:  Iter=  6 NonCon=     1 RMS=2.42D-06 Max=4.22D-05
 LinEq1:  Iter=  7 NonCon=     1 RMS=6.06D-07 Max=9.15D-06
 LinEq1:  Iter=  8 NonCon=     1 RMS=1.49D-07 Max=1.80D-06
 LinEq1:  Iter=  9 NonCon=     1 RMS=3.04D-08 Max=7.48D-07
 LinEq1:  Iter= 10 NonCon=     1 RMS=6.55D-09 Max=8.89D-08
 LinEq1:  Iter= 11 NonCon=     1 RMS=1.05D-09 Max=1.14D-08
 LinEq1:  Iter= 12 NonCon=     1 RMS=1.69D-10 Max=2.85D-09
 LinEq1:  Iter= 13 NonCon=     0 RMS=2.41D-11 Max=3.21D-10
 Linear equations converged to 1.000D-10 1.000D-09 after    13 iterations.
 End of Minotr Frequency-dependent properties file   721 does not exist.
 End of Minotr Frequency-dependent properties file   722 does not exist.

 **********************************************************************

            Population analysis using the QCI/CC density.

 **********************************************************************

     Natural Orbital Coefficients:
                           1         2         3         4         5
     Eigenvalues --     2.00003   2.00003   2.00002   2.00001   2.00001
   1 1   C  1S          0.00011  -0.00011  -0.04329   0.08036   0.97619
   2        2S          0.00002  -0.00002   0.00131   0.00050  -0.01332
   3        3S          0.00002  -0.00002  -0.00132   0.00400   0.03985
   4        4S         -0.00019   0.00018  -0.01264  -0.02360   0.00312
   5        5S         -0.00006   0.00005  -0.00120  -0.00062  -0.00061
   6        6PX         0.00004  -0.00004   0.00000   0.00000  -0.00005
   7        6PY        -0.00004  -0.00004   0.00000   0.00000   0.00000
   8        6PZ         0.00000   0.00000   0.00053   0.00168   0.00087
   9        7PX         0.00057  -0.00063  -0.00005  -0.00011   0.00004
  10        7PY        -0.00057  -0.00063   0.00000   0.00000   0.00000
  11        7PZ         0.00001  -0.00001   0.00142   0.00304  -0.00091
  12        8PX         0.00317  -0.00328   0.00001  -0.00006   0.00003
  13        8PY        -0.00315  -0.00331   0.00000   0.00000   0.00000
  14        8PZ         0.00000   0.00000  -0.00373  -0.00410  -0.00309
  15        9PX         0.00030  -0.00029  -0.00001  -0.00001   0.00000
  16        9PY        -0.00030  -0.00029   0.00000   0.00000   0.00000
  17        9PZ         0.00000   0.00000   0.00021   0.00017  -0.00049
  18       10D 0        0.00000   0.00000   0.00011   0.00033  -0.00057
  19       10D+1       -0.00011   0.00011   0.00000   0.00000   0.00000
  20       10D-1        0.00011   0.00011   0.00000   0.00000   0.00000
  21       10D+2       -0.00003  -0.00003   0.00000   0.00000   0.00000
  22       10D-2        0.00003  -0.00003   0.00000   0.00000   0.00002
  23       11D 0        0.00003  -0.00003   0.00022  -0.00009  -0.00029
  24       11D+1        0.00018  -0.00018   0.00002   0.00004  -0.00002
  25       11D-1       -0.00018  -0.00018   0.00000   0.00000   0.00000
  26       11D+2       -0.00070  -0.00073   0.00000   0.00000   0.00000
  27       11D-2        0.00071  -0.00072  -0.00003  -0.00007   0.00001
  28       12D 0       -0.00007   0.00007  -0.00078   0.00122  -0.00236
  29       12D+1       -0.00091   0.00094   0.00002   0.00002  -0.00003
  30       12D-1        0.00090   0.00095   0.00000   0.00000   0.00000
  31       12D+2       -0.00113  -0.00116   0.00000   0.00000   0.00000
  32       12D-2        0.00114  -0.00115   0.00001  -0.00004  -0.00001
  33       13F 0        0.00000   0.00000   0.00001   0.00003   0.00019
  34       13F+1       -0.00013   0.00014   0.00000   0.00000   0.00000
  35       13F-1        0.00013   0.00014   0.00000   0.00000   0.00000
  36       13F+2       -0.00001  -0.00001   0.00000   0.00000   0.00000
  37       13F-2        0.00001  -0.00001   0.00000   0.00000  -0.00001
  38       13F+3        0.00000   0.00000   0.00000   0.00000   0.00000
  39       13F-3        0.00000   0.00000  -0.00006   0.00007   0.00090
  40       14F 0        0.00000   0.00000  -0.00113  -0.00215  -0.00019
  41       14F+1        0.00040  -0.00041   0.00000   0.00001   0.00001
  42       14F-1       -0.00040  -0.00042   0.00000   0.00000   0.00000
  43       14F+2       -0.00025  -0.00023   0.00000   0.00000   0.00000
  44       14F-2        0.00025  -0.00023   0.00001   0.00002   0.00000
  45       14F+3        0.00001   0.00001   0.00000   0.00000   0.00000
  46       14F-3       -0.00004   0.00004  -0.00086  -0.00136  -0.00191
  47 2   H  1S          0.00011   0.00011  -0.00002  -0.00035  -0.00135
  48        2S         -0.00074  -0.00095   0.00245   0.00332  -0.00067
  49        3S         -0.00602  -0.00629   0.00182   0.00529  -0.00434
  50        4S          0.00019   0.00019   0.00011   0.00009  -0.00013
  51        5PX         0.00000   0.00000   0.00000   0.00000  -0.00001
  52        5PY        -0.00002  -0.00002   0.00004  -0.00003  -0.00048
  53        5PZ        -0.00001  -0.00001   0.00001   0.00002  -0.00009
  54        6PX         0.00013  -0.00014   0.00001   0.00001   0.00002
  55        6PY        -0.00044  -0.00049   0.00046   0.00070  -0.00080
  56        6PZ        -0.00044  -0.00044  -0.00001  -0.00010   0.00024
  57        7PX         0.00062  -0.00068   0.00002  -0.00001  -0.00001
  58        7PY        -0.00144  -0.00153   0.00054   0.00135  -0.00102
  59        7PZ        -0.00020  -0.00019   0.00047   0.00092  -0.00006
  60        8D 0       -0.00003  -0.00003   0.00001   0.00007   0.00014
  61        8D+1       -0.00001   0.00001   0.00000   0.00000   0.00000
  62        8D-1       -0.00007  -0.00007   0.00002   0.00005  -0.00004
  63        8D+2        0.00003   0.00004  -0.00004  -0.00005   0.00028
  64        8D-2        0.00001  -0.00001   0.00000   0.00000  -0.00001
  65        9D 0       -0.00026  -0.00029   0.00015   0.00025   0.00063
  66        9D+1        0.00018  -0.00017   0.00000   0.00000   0.00001
  67        9D-1       -0.00009  -0.00009  -0.00014  -0.00025   0.00001
  68        9D+2        0.00009   0.00010   0.00001   0.00003  -0.00010
  69        9D-2        0.00008  -0.00009   0.00000  -0.00001   0.00000
  70 3   H  1S         -0.00015   0.00004  -0.00002  -0.00035  -0.00129
  71        2S          0.00117  -0.00038   0.00239   0.00320  -0.00054
  72        3S          0.00823  -0.00226   0.00178   0.00507  -0.00418
  73        4S         -0.00025   0.00007   0.00010   0.00008  -0.00012
  74        5PX         0.00003  -0.00001   0.00004  -0.00003  -0.00041
  75        5PY        -0.00002   0.00000  -0.00002   0.00001   0.00023
  76        5PZ         0.00001   0.00000   0.00001   0.00001  -0.00008
  77        6PX         0.00052  -0.00025   0.00039   0.00058  -0.00063
  78        6PY        -0.00036  -0.00007  -0.00022  -0.00033   0.00037
  79        6PZ         0.00061  -0.00016   0.00000  -0.00008   0.00023
  80        7PX         0.00163  -0.00093   0.00045   0.00113  -0.00083
  81        7PY        -0.00119  -0.00050  -0.00025  -0.00066   0.00047
  82        7PZ         0.00028  -0.00007   0.00048   0.00092  -0.00007
  83        8D 0        0.00004  -0.00001   0.00001   0.00007   0.00014
  84        8D+1        0.00008  -0.00001   0.00002   0.00004  -0.00004
  85        8D-1       -0.00004   0.00002  -0.00001  -0.00002   0.00002
  86        8D+2        0.00002  -0.00002   0.00002   0.00002  -0.00015
  87        8D-2       -0.00004   0.00001  -0.00003  -0.00004   0.00025
  88        9D 0        0.00038  -0.00011   0.00015   0.00025   0.00061
  89        9D+1        0.00008  -0.00014  -0.00012  -0.00022   0.00001
  90        9D-1       -0.00011  -0.00019   0.00007   0.00013   0.00000
  91        9D+2        0.00004  -0.00012  -0.00001  -0.00002   0.00005
  92        9D-2       -0.00012  -0.00003   0.00001   0.00003  -0.00010
  93 4   H  1S          0.00004  -0.00015  -0.00001  -0.00036  -0.00140
  94        2S         -0.00024   0.00114   0.00250   0.00346  -0.00079
  95        3S         -0.00224   0.00858   0.00187   0.00552  -0.00450
  96        4S          0.00007  -0.00027   0.00012   0.00010  -0.00014
  97        5PX         0.00001  -0.00003  -0.00004   0.00002   0.00042
  98        5PY         0.00000  -0.00002  -0.00002   0.00001   0.00025
  99        5PZ         0.00000   0.00001   0.00001   0.00002  -0.00009
 100        6PX         0.00023  -0.00053  -0.00040  -0.00063   0.00076
 101        6PY        -0.00008  -0.00037  -0.00024  -0.00037   0.00043
 102        6PZ        -0.00016   0.00059  -0.00002  -0.00012   0.00025
 103        7PX         0.00089  -0.00164  -0.00048  -0.00121   0.00093
 104        7PY        -0.00050  -0.00125  -0.00028  -0.00070   0.00054
 105        7PZ        -0.00007   0.00024   0.00047   0.00093  -0.00005
 106        8D 0       -0.00001   0.00004   0.00001   0.00006   0.00013
 107        8D+1        0.00001  -0.00008  -0.00002  -0.00004   0.00003
 108        8D-1        0.00002  -0.00004  -0.00001  -0.00002   0.00002
 109        8D+2       -0.00001   0.00002   0.00002   0.00003  -0.00013
 110        8D-2       -0.00001   0.00004   0.00004   0.00005  -0.00024
 111        9D 0       -0.00009   0.00037   0.00015   0.00025   0.00065
 112        9D+1        0.00015  -0.00007   0.00012   0.00023   0.00000
 113        9D-1       -0.00020  -0.00012   0.00007   0.00013  -0.00001
 114        9D+2       -0.00011   0.00003   0.00000  -0.00001   0.00004
 115        9D-2        0.00003   0.00012   0.00000  -0.00002   0.00007
 116 5   Cl 1S          0.00015  -0.00015  -0.25060   0.14799  -0.02283
 117        2S         -0.00053   0.00052   0.84592  -0.50026   0.07827
 118        3S          0.00001  -0.00001  -0.02309   0.00933  -0.00239
 119        4S         -0.00004   0.00004   0.06655  -0.04076   0.00643
 120        5S          0.00007  -0.00006  -0.00211   0.00777   0.00350
 121        6S          0.00002  -0.00002  -0.00155  -0.00213   0.00300
 122        7PX         0.69423  -0.69004  -0.00322  -0.00680   0.00027
 123        7PY        -0.69007  -0.69425   0.00021   0.00035  -0.00002
 124        7PZ         0.00562  -0.00501   0.50084   0.83587  -0.04720
 125        8PX        -0.01358   0.01350   0.00005   0.00010  -0.00001
 126        8PY         0.01350   0.01358   0.00000  -0.00001   0.00000
 127        8PZ        -0.00012   0.00011  -0.00878  -0.01404   0.00011
 128        9PX         0.03711  -0.03690  -0.00018  -0.00040   0.00002
 129        9PY        -0.03689  -0.03712   0.00001   0.00002   0.00000
 130        9PZ         0.00030  -0.00027   0.02844   0.04954  -0.00268
 131       10PX        -0.00411   0.00406   0.00003   0.00002   0.00004
 132       10PY         0.00408   0.00409   0.00000   0.00000   0.00000
 133       10PZ        -0.00006   0.00005  -0.00434  -0.00275  -0.00346
 134       11PX        -0.00152   0.00151   0.00001   0.00001   0.00001
 135       11PY         0.00151   0.00152   0.00000   0.00000   0.00000
 136       11PZ        -0.00001   0.00001  -0.00036  -0.00015  -0.00053
 137       12D 0        0.00000   0.00000   0.00001  -0.00051  -0.00017
 138       12D+1       -0.00023   0.00022   0.00000   0.00000   0.00000
 139       12D-1        0.00022   0.00023   0.00000   0.00000   0.00000
 140       12D+2        0.00000  -0.00001   0.00000   0.00000   0.00000
 141       12D-2        0.00000  -0.00001   0.00000   0.00000   0.00000
 142       13D 0        0.00001  -0.00001   0.00088   0.00244   0.00042
 143       13D+1        0.00057  -0.00057  -0.00001  -0.00002   0.00000
 144       13D-1       -0.00057  -0.00058   0.00000   0.00000   0.00000
 145       13D+2        0.00001   0.00002   0.00000   0.00000   0.00000
 146       13D-2       -0.00001   0.00002   0.00000   0.00000   0.00000
 147       14D 0        0.00000   0.00000   0.00058  -0.00018   0.00080
 148       14D+1       -0.00050   0.00051  -0.00001   0.00000  -0.00002
 149       14D-1        0.00050   0.00051   0.00000   0.00000   0.00000
 150       14D+2       -0.00002  -0.00002   0.00000   0.00000   0.00000
 151       14D-2        0.00002  -0.00002   0.00000   0.00000   0.00000
 152       15F 0        0.00000   0.00000   0.00001  -0.00007  -0.00003
 153       15F+1        0.00000   0.00000   0.00000   0.00000   0.00000
 154       15F-1        0.00000   0.00000   0.00000   0.00000   0.00000
 155       15F+2       -0.00002  -0.00002   0.00000   0.00000   0.00000
 156       15F-2        0.00002  -0.00002   0.00000   0.00000   0.00000
 157       15F+3        0.00000   0.00000   0.00000   0.00000   0.00000
 158       15F-3        0.00000   0.00000   0.00001   0.00003   0.00000
 159       16F 0        0.00000   0.00000  -0.00032  -0.00058  -0.00031
 160       16F+1       -0.00016   0.00016   0.00001   0.00001   0.00000
 161       16F-1        0.00016   0.00016   0.00000   0.00000   0.00000
 162       16F+2        0.00003   0.00002   0.00000   0.00000   0.00000
 163       16F-2       -0.00003   0.00002   0.00000   0.00000   0.00000
 164       16F+3        0.00000   0.00000   0.00000   0.00000   0.00000
 165       16F-3        0.00000   0.00000  -0.00002  -0.00005   0.00002
 166 6   F  1S         -0.00002   0.00002  -0.00144  -0.01042  -0.04974
 167        2S         -0.00001   0.00001   0.00020   0.00043   0.00080
 168        3S          0.00000   0.00000  -0.00007  -0.00045  -0.00202
 169        4S          0.00002  -0.00002  -0.00055  -0.00105   0.00056
 170        5S          0.00007  -0.00007   0.00010  -0.00168   0.00178
 171        6PX        -0.00003   0.00003   0.00000   0.00001   0.00000
 172        6PY         0.00003   0.00003   0.00000   0.00000   0.00000
 173        6PZ         0.00000   0.00000   0.00058   0.00111   0.00011
 174        7PX        -0.00001   0.00000   0.00000   0.00001   0.00000
 175        7PY         0.00001   0.00000   0.00000   0.00000   0.00000
 176        7PZ         0.00000   0.00000   0.00069   0.00132   0.00002
 177        8PX        -0.00017   0.00017   0.00000  -0.00001   0.00000
 178        8PY         0.00017   0.00018   0.00000   0.00000   0.00000
 179        8PZ         0.00002  -0.00002   0.00008   0.00017   0.00048
 180        9PX        -0.00026   0.00025   0.00000   0.00000   0.00001
 181        9PY         0.00025   0.00025   0.00000   0.00000   0.00000
 182        9PZ         0.00002  -0.00002   0.00017  -0.00009   0.00071
 183       10D 0        0.00000   0.00000   0.00001   0.00001  -0.00002
 184       10D+1        0.00000   0.00000   0.00000   0.00000   0.00000
 185       10D-1        0.00000   0.00000   0.00000   0.00000   0.00000
 186       10D+2        0.00000   0.00000   0.00000   0.00000   0.00000
 187       10D-2        0.00000   0.00000   0.00000   0.00000   0.00000
 188       11D 0        0.00000   0.00000  -0.00003  -0.00010   0.00001
 189       11D+1        0.00003  -0.00003   0.00000   0.00000   0.00000
 190       11D-1       -0.00003  -0.00003   0.00000   0.00000   0.00000
 191       11D+2        0.00002   0.00002   0.00000   0.00000   0.00000
 192       11D-2       -0.00002   0.00002   0.00000   0.00000   0.00000
 193       12D 0        0.00000   0.00000  -0.00019  -0.00012   0.00011
 194       12D+1       -0.00016   0.00016   0.00000  -0.00001   0.00000
 195       12D-1        0.00016   0.00016   0.00000   0.00000   0.00000
 196       12D+2       -0.00008  -0.00008   0.00000   0.00000   0.00000
 197       12D-2        0.00008  -0.00008   0.00000   0.00000   0.00000
 198       13F 0        0.00000   0.00000   0.00001  -0.00001  -0.00004
 199       13F+1        0.00001  -0.00001   0.00000   0.00000   0.00000
 200       13F-1       -0.00001  -0.00001   0.00000   0.00000   0.00000
 201       13F+2        0.00001   0.00001   0.00000   0.00000   0.00000
 202       13F-2       -0.00001   0.00001   0.00000   0.00000   0.00000
 203       13F+3        0.00000   0.00000   0.00000   0.00000   0.00000
 204       13F-3        0.00000   0.00000   0.00000   0.00000   0.00000
 205       14F 0        0.00000   0.00000  -0.00004   0.00002   0.00013
 206       14F+1       -0.00004   0.00004   0.00000   0.00000   0.00000
 207       14F-1        0.00004   0.00004   0.00000   0.00000   0.00000
 208       14F+2       -0.00003  -0.00003   0.00000   0.00000   0.00000
 209       14F-2        0.00003  -0.00003   0.00000   0.00000   0.00000
 210       14F+3        0.00000   0.00000   0.00000   0.00000   0.00000
 211       14F-3        0.00000   0.00000   0.00000   0.00000  -0.00001
                           6         7         8         9        10
     Eigenvalues --     2.00000   2.00000   1.98361   1.97543   1.96949
   1 1   C  1S          0.05037  -0.00046   0.01542  -0.07340  -0.14369
   2        2S         -0.00012  -0.00001  -0.04201   0.19915   0.39720
   3        3S          0.00229  -0.00003  -0.01040   0.04621   0.09613
   4        4S         -0.00698   0.00016   0.00555   0.07913   0.19087
   5        5S         -0.00016   0.00010   0.00785  -0.00689  -0.02885
   6        6PX         0.00000   0.00000  -0.00013   0.00139   0.00576
   7        6PY         0.00000   0.00000   0.00000   0.00004   0.00020
   8        6PZ         0.00004   0.00000   0.00646   0.01033  -0.02723
   9        7PX        -0.00003   0.00000  -0.00014   0.00167   0.00712
  10        7PY         0.00000   0.00000   0.00000   0.00005   0.00025
  11        7PZ        -0.00075   0.00000   0.00706   0.01789  -0.03247
  12        8PX         0.00004   0.00000  -0.00013   0.00171   0.00568
  13        8PY         0.00000   0.00000   0.00001   0.00002   0.00015
  14        8PZ         0.00519   0.00009   0.01660   0.00589  -0.02271
  15        9PX         0.00000   0.00000  -0.00004   0.00010   0.00045
  16        9PY         0.00000   0.00000   0.00000   0.00000   0.00000
  17        9PZ         0.00011   0.00001  -0.00071   0.00033  -0.00406
  18       10D 0        0.00004   0.00000   0.00051  -0.00214  -0.00956
  19       10D+1        0.00000   0.00000   0.00000  -0.00005  -0.00009
  20       10D-1        0.00000   0.00000   0.00000   0.00000  -0.00001
  21       10D+2        0.00000   0.00000   0.00000   0.00000   0.00001
  22       10D-2        0.00000   0.00000  -0.00003   0.00019   0.00058
  23       11D 0       -0.00023  -0.00002  -0.00529   0.00462  -0.01877
  24       11D+1       -0.00001   0.00000  -0.00008  -0.00015  -0.00006
  25       11D-1        0.00000   0.00000   0.00000   0.00000  -0.00002
  26       11D+2        0.00000   0.00000   0.00000   0.00000   0.00002
  27       11D-2       -0.00001   0.00000  -0.00003   0.00053   0.00155
  28       12D 0        0.00027   0.00008   0.00206  -0.00841  -0.01667
  29       12D+1       -0.00002   0.00000  -0.00001  -0.00006  -0.00006
  30       12D-1        0.00000   0.00000   0.00000  -0.00001  -0.00002
  31       12D+2        0.00000   0.00000   0.00000   0.00000   0.00001
  32       12D-2        0.00002   0.00000   0.00012   0.00034   0.00087
  33       13F 0       -0.00007   0.00000   0.00000   0.00242   0.00064
  34       13F+1        0.00000   0.00000   0.00000   0.00001   0.00002
  35       13F-1        0.00000   0.00000   0.00000   0.00000   0.00000
  36       13F+2        0.00000   0.00000   0.00000   0.00000   0.00000
  37       13F-2        0.00000   0.00000   0.00000  -0.00001  -0.00001
  38       13F+3        0.00000   0.00000   0.00000   0.00000   0.00000
  39       13F-3        0.00001   0.00000  -0.00014   0.00194   0.00397
  40       14F 0        0.00127  -0.00001   0.00471   0.00261  -0.00198
  41       14F+1        0.00001   0.00000   0.00006  -0.00008  -0.00013
  42       14F-1        0.00000   0.00000   0.00001   0.00000  -0.00001
  43       14F+2        0.00000   0.00000   0.00000   0.00000   0.00000
  44       14F-2        0.00000   0.00000  -0.00004  -0.00007  -0.00008
  45       14F+3        0.00000   0.00000   0.00000   0.00000   0.00000
  46       14F-3       -0.00044   0.00003   0.00187  -0.00100   0.00404
  47 2   H  1S         -0.00008   0.00000  -0.00857   0.03716   0.08036
  48        2S          0.00097  -0.00006  -0.01531   0.04375   0.08353
  49        3S          0.00181   0.00004  -0.00091  -0.00491  -0.01198
  50        4S          0.00003   0.00000  -0.00047   0.00051   0.00039
  51        5PX         0.00000   0.00000  -0.00001   0.00005   0.00017
  52        5PY         0.00001   0.00000  -0.00109   0.00399   0.00861
  53        5PZ        -0.00004   0.00000   0.00028   0.00095   0.00034
  54        6PX         0.00001   0.00000  -0.00003   0.00017   0.00039
  55        6PY         0.00008   0.00000  -0.00073   0.00080   0.00121
  56        6PZ         0.00032  -0.00001   0.00008   0.00243  -0.00051
  57        7PX         0.00002   0.00000   0.00010   0.00011   0.00022
  58        7PY         0.00043   0.00001   0.00135  -0.00496  -0.01029
  59        7PZ        -0.00055   0.00001  -0.00280  -0.00173  -0.00131
  60        8D 0        0.00006   0.00000   0.00014  -0.00035  -0.00091
  61        8D+1        0.00000   0.00000   0.00000   0.00000   0.00001
  62        8D-1       -0.00001   0.00000  -0.00015   0.00049   0.00023
  63        8D+2       -0.00002   0.00000   0.00003  -0.00054  -0.00137
  64        8D-2        0.00000   0.00000   0.00000   0.00002   0.00008
  65        9D 0        0.00009  -0.00001  -0.00006   0.00122   0.00101
  66        9D+1        0.00000   0.00000  -0.00002   0.00000  -0.00001
  67        9D-1        0.00014   0.00000  -0.00006   0.00004  -0.00038
  68        9D+2        0.00004   0.00000  -0.00098   0.00225   0.00415
  69        9D-2        0.00000   0.00000   0.00001   0.00002   0.00005
  70 3   H  1S         -0.00008   0.00000  -0.00842   0.03605   0.07652
  71        2S          0.00096  -0.00006  -0.01528   0.04345   0.08106
  72        3S          0.00183   0.00004  -0.00085  -0.00346  -0.00867
  73        4S          0.00003   0.00000  -0.00050   0.00059   0.00068
  74        5PX         0.00001   0.00000  -0.00093   0.00336   0.00717
  75        5PY        -0.00001   0.00000   0.00053  -0.00191  -0.00405
  76        5PZ        -0.00004   0.00000   0.00028   0.00093   0.00029
  77        6PX         0.00006   0.00000  -0.00072   0.00099   0.00158
  78        6PY        -0.00003   0.00000   0.00040  -0.00047  -0.00068
  79        6PZ         0.00031  -0.00001   0.00003   0.00239  -0.00047
  80        7PX         0.00038   0.00001   0.00117  -0.00394  -0.00798
  81        7PY        -0.00021   0.00000  -0.00062   0.00234   0.00475
  82        7PZ        -0.00055   0.00001  -0.00279  -0.00168  -0.00117
  83        8D 0        0.00006   0.00000   0.00014  -0.00034  -0.00087
  84        8D+1       -0.00001   0.00000  -0.00013   0.00042   0.00019
  85        8D-1        0.00000   0.00000   0.00007  -0.00024  -0.00011
  86        8D+2        0.00001   0.00000  -0.00002   0.00028   0.00069
  87        8D-2       -0.00001   0.00000   0.00003  -0.00045  -0.00112
  88        9D 0        0.00008  -0.00001  -0.00005   0.00119   0.00099
  89        9D+1        0.00012   0.00000  -0.00007   0.00004  -0.00031
  90        9D-1       -0.00007   0.00000   0.00003  -0.00003   0.00017
  91        9D+2       -0.00002   0.00000   0.00049  -0.00110  -0.00200
  92        9D-2        0.00003   0.00000  -0.00084   0.00192   0.00352
  93 4   H  1S         -0.00008   0.00000  -0.00873   0.03834   0.08464
  94        2S          0.00099  -0.00006  -0.01533   0.04409   0.08630
  95        3S          0.00179   0.00004  -0.00095  -0.00639  -0.01562
  96        4S          0.00004   0.00000  -0.00043   0.00042   0.00010
  97        5PX        -0.00001   0.00000   0.00096  -0.00355  -0.00779
  98        5PY        -0.00001   0.00000   0.00056  -0.00208  -0.00459
  99        5PZ        -0.00004   0.00000   0.00027   0.00099   0.00041
 100        6PX        -0.00007   0.00000   0.00055  -0.00040  -0.00049
 101        6PY        -0.00004   0.00000   0.00034  -0.00033  -0.00050
 102        6PZ         0.00033  -0.00001   0.00013   0.00246  -0.00055
 103        7PX        -0.00037  -0.00001  -0.00117   0.00465   0.00991
 104        7PY        -0.00022   0.00000  -0.00074   0.00262   0.00561
 105        7PZ        -0.00055   0.00001  -0.00281  -0.00179  -0.00147
 106        8D 0        0.00006   0.00000   0.00014  -0.00036  -0.00095
 107        8D+1        0.00001   0.00000   0.00012  -0.00044  -0.00022
 108        8D-1        0.00000   0.00000   0.00007  -0.00026  -0.00013
 109        8D+2        0.00001   0.00000  -0.00001   0.00027   0.00068
 110        8D-2        0.00002   0.00000  -0.00003   0.00049   0.00125
 111        9D 0        0.00009  -0.00001  -0.00007   0.00125   0.00103
 112        9D+1       -0.00012   0.00000   0.00003  -0.00002   0.00036
 113        9D-1       -0.00007   0.00000   0.00003  -0.00001   0.00021
 114        9D+2       -0.00002   0.00000   0.00049  -0.00115  -0.00214
 115        9D-2       -0.00003   0.00000   0.00086  -0.00198  -0.00367
 116 5   Cl 1S          0.00007   0.99708  -0.00064   0.06648  -0.03480
 117        2S         -0.00007   0.01040   0.00292  -0.25192   0.13078
 118        3S          0.00005   0.00017  -0.00391   0.52468  -0.27826
 119        4S          0.00008   0.00026  -0.00025   0.06428  -0.03748
 120        5S         -0.00181  -0.00020  -0.01230   0.35094  -0.17058
 121        6S         -0.00050  -0.00011  -0.00461   0.02452   0.01129
 122        7PX        -0.00004   0.00000   0.00000  -0.00007  -0.00037
 123        7PY         0.00000   0.00000   0.00000   0.00000   0.00000
 124        7PZ         0.00732   0.00016   0.00152   0.00459   0.02878
 125        8PX        -0.00001   0.00000   0.00000   0.00010   0.00092
 126        8PY         0.00000   0.00000   0.00000   0.00000  -0.00001
 127        8PZ         0.00051  -0.00003  -0.00227  -0.00602  -0.07204
 128        9PX         0.00000   0.00000   0.00001   0.00003   0.00040
 129        9PY         0.00000   0.00000   0.00000   0.00000   0.00000
 130        9PZ         0.00032   0.00003  -0.00264   0.00068  -0.03139
 131       10PX        -0.00001   0.00000  -0.00005   0.00003   0.00041
 132       10PY         0.00000   0.00000   0.00000   0.00000  -0.00001
 133       10PZ         0.00096   0.00015   0.00271   0.00302  -0.05234
 134       11PX         0.00000   0.00000   0.00001  -0.00001  -0.00001
 135       11PY         0.00000   0.00000   0.00000   0.00000   0.00000
 136       11PZ         0.00002   0.00002  -0.00040   0.00263  -0.00874
 137       12D 0       -0.00003   0.00001  -0.00035   0.00448   0.00453
 138       12D+1        0.00000   0.00000   0.00000  -0.00006  -0.00015
 139       12D-1        0.00000   0.00000   0.00000   0.00000   0.00000
 140       12D+2        0.00000   0.00000   0.00000   0.00000   0.00000
 141       12D-2        0.00000   0.00000   0.00000   0.00000   0.00001
 142       13D 0       -0.00022   0.00000  -0.00163   0.00819   0.00968
 143       13D+1        0.00001   0.00000   0.00003  -0.00012  -0.00025
 144       13D-1        0.00000   0.00000   0.00000   0.00001   0.00000
 145       13D+2        0.00000   0.00000   0.00000   0.00000   0.00000
 146       13D-2        0.00000   0.00000   0.00000   0.00001   0.00001
 147       14D 0       -0.00014  -0.00004  -0.00184  -0.00018   0.00538
 148       14D+1        0.00000   0.00000   0.00003  -0.00001  -0.00007
 149       14D-1        0.00000   0.00000   0.00000   0.00000   0.00000
 150       14D+2        0.00000   0.00000   0.00000   0.00000   0.00000
 151       14D-2        0.00000   0.00000   0.00000   0.00000  -0.00001
 152       15F 0        0.00005   0.00000   0.00023  -0.00180  -0.00191
 153       15F+1        0.00000   0.00000   0.00000   0.00003   0.00007
 154       15F-1        0.00000   0.00000   0.00000   0.00000   0.00000
 155       15F+2        0.00000   0.00000   0.00000   0.00000   0.00000
 156       15F-2        0.00000   0.00000   0.00000   0.00000  -0.00001
 157       15F+3        0.00000   0.00000   0.00000   0.00000   0.00000
 158       15F-3       -0.00001   0.00000  -0.00001   0.00002   0.00009
 159       16F 0       -0.00005   0.00001   0.00005  -0.00093  -0.00171
 160       16F+1       -0.00001   0.00000  -0.00002   0.00003   0.00005
 161       16F-1        0.00000   0.00000   0.00000   0.00000   0.00000
 162       16F+2        0.00000   0.00000   0.00000   0.00000   0.00000
 163       16F-2        0.00000   0.00000  -0.00001   0.00000   0.00002
 164       16F+3        0.00000   0.00000   0.00000   0.00000   0.00000
 165       16F-3        0.00003   0.00000   0.00002  -0.00001  -0.00021
 166 6   F  1S          0.97743  -0.00002   0.21189   0.01316   0.02161
 167        2S         -0.01503   0.00000  -0.53161  -0.03405  -0.05730
 168        3S          0.04206   0.00000  -0.16471  -0.01081  -0.01853
 169        4S          0.00193  -0.00001  -0.36876  -0.02363  -0.04389
 170        5S         -0.00084  -0.00006  -0.04529   0.00420   0.00780
 171        6PX         0.00000   0.00000   0.00020   0.00020   0.00169
 172        6PY         0.00000   0.00000   0.00001   0.00001   0.00009
 173        6PZ         0.00048   0.00000   0.01352   0.01270   0.08743
 174        7PX         0.00000   0.00000   0.00023   0.00024   0.00204
 175        7PY         0.00000   0.00000   0.00001   0.00001   0.00011
 176        7PZ        -0.00012   0.00000   0.01475   0.01552   0.10520
 177        8PX         0.00001   0.00000   0.00020   0.00017   0.00154
 178        8PY         0.00000   0.00000   0.00001   0.00001   0.00009
 179        8PZ         0.00240  -0.00001   0.01247   0.01226   0.08367
 180        9PX         0.00000   0.00000   0.00007   0.00005   0.00038
 181        9PY         0.00000   0.00000   0.00000   0.00000   0.00002
 182        9PZ        -0.00008  -0.00002   0.00220   0.00316   0.02422
 183       10D 0       -0.00002   0.00000  -0.00013   0.00017   0.00060
 184       10D+1        0.00000   0.00000   0.00000   0.00000   0.00001
 185       10D-1        0.00000   0.00000   0.00000   0.00000   0.00000
 186       10D+2        0.00000   0.00000   0.00000   0.00000   0.00000
 187       10D-2        0.00000   0.00000   0.00000   0.00000   0.00000
 188       11D 0       -0.00003   0.00000  -0.00104   0.00091   0.00275
 189       11D+1        0.00000   0.00000  -0.00001   0.00002   0.00007
 190       11D-1        0.00000   0.00000   0.00000   0.00000   0.00000
 191       11D+2        0.00000   0.00000   0.00000   0.00000   0.00000
 192       11D-2        0.00000   0.00000   0.00000   0.00000   0.00001
 193       12D 0        0.00080   0.00000  -0.00055   0.00035   0.00386
 194       12D+1        0.00001   0.00000   0.00001   0.00000   0.00004
 195       12D-1        0.00000   0.00000   0.00000   0.00000   0.00000
 196       12D+2        0.00000   0.00000   0.00000   0.00000   0.00000
 197       12D-2        0.00000   0.00000  -0.00001  -0.00001  -0.00001
 198       13F 0       -0.00006   0.00000  -0.00002   0.00013   0.00027
 199       13F+1        0.00000   0.00000   0.00000   0.00000   0.00001
 200       13F-1        0.00000   0.00000   0.00000   0.00000   0.00000
 201       13F+2        0.00000   0.00000   0.00000   0.00000   0.00000
 202       13F-2        0.00000   0.00000   0.00000   0.00000   0.00000
 203       13F+3        0.00000   0.00000   0.00000   0.00000   0.00000
 204       13F-3        0.00001   0.00000   0.00001   0.00002   0.00003
 205       14F 0        0.00020   0.00000  -0.00040  -0.00006   0.00063
 206       14F+1        0.00000   0.00000  -0.00001   0.00000   0.00001
 207       14F-1        0.00000   0.00000   0.00000   0.00000   0.00000
 208       14F+2        0.00000   0.00000   0.00000   0.00000   0.00000
 209       14F-2        0.00000   0.00000   0.00000  -0.00001  -0.00001
 210       14F+3        0.00000   0.00000   0.00000   0.00000   0.00000
 211       14F-3       -0.00001   0.00000  -0.00007  -0.00006  -0.00009
                          11        12        13        14        15
     Eigenvalues --     1.96440   1.96434   1.95947   1.95898   1.94913
   1 1   C  1S          0.00110   0.00097   0.00142   0.00134  -0.00290
   2        2S         -0.00294  -0.00258  -0.00378  -0.00354   0.00829
   3        3S         -0.00059  -0.00052  -0.00071  -0.00065   0.00202
   4        4S         -0.00025  -0.00018   0.00309   0.00340   0.01809
   5        5S          0.00088   0.00084   0.00140   0.00144   0.00365
   6        6PX         0.07195   0.06642   0.16163   0.16489   0.04763
   7        6PY         0.07348  -0.06499   0.16373  -0.16283   0.04577
   8        6PZ         0.00015   0.00020   0.00004   0.00018   0.00257
   9        7PX         0.09633   0.08906   0.21423   0.21854   0.06626
  10        7PY         0.09836  -0.08714   0.21700  -0.21580   0.06369
  11        7PZ         0.00008   0.00014   0.00004   0.00022   0.00362
  12        8PX         0.07020   0.06545   0.16492   0.16910   0.05068
  13        8PY         0.07171  -0.06407   0.16710  -0.16703   0.04873
  14        8PZ         0.00033   0.00036   0.00027   0.00043   0.00360
  15        9PX        -0.00144  -0.00167   0.01322   0.01356   0.00864
  16        9PY        -0.00146   0.00163   0.01340  -0.01340   0.00832
  17        9PZ         0.00007   0.00007   0.00007   0.00008   0.00007
  18       10D 0        0.00006   0.00005   0.00003   0.00002  -0.00056
  19       10D+1       -0.00194  -0.00189  -0.00091  -0.00089  -0.00269
  20       10D-1       -0.00197   0.00185  -0.00091   0.00087  -0.00258
  21       10D+2        0.00466  -0.00416   0.01047  -0.01048   0.00339
  22       10D-2        0.00455   0.00425   0.01033   0.01062   0.00353
  23       11D 0        0.00009   0.00007  -0.00026  -0.00028  -0.00304
  24       11D+1       -0.00894  -0.00907   0.00541   0.00540  -0.01124
  25       11D-1       -0.00911   0.00886   0.00550  -0.00536  -0.01079
  26       11D+2        0.01524  -0.01396   0.03186  -0.03218   0.01149
  27       11D-2        0.01489   0.01425   0.03143   0.03261   0.01196
  28       12D 0        0.00011   0.00008   0.00009   0.00007  -0.00155
  29       12D+1       -0.00421  -0.00441   0.00403   0.00400   0.00091
  30       12D-1       -0.00429   0.00431   0.00410  -0.00397   0.00088
  31       12D+2        0.01461  -0.01379   0.02506  -0.02581   0.00670
  32       12D-2        0.01427   0.01408   0.02471   0.02615   0.00700
  33       13F 0       -0.00001  -0.00001  -0.00002  -0.00002   0.00011
  34       13F+1        0.00015   0.00020  -0.00142  -0.00142  -0.00159
  35       13F-1        0.00016  -0.00020  -0.00144   0.00140  -0.00153
  36       13F+2       -0.00045   0.00045  -0.00007   0.00010  -0.00022
  37       13F-2       -0.00044  -0.00046  -0.00007  -0.00010  -0.00023
  38       13F+3        0.00000   0.00000  -0.00002   0.00002  -0.00001
  39       13F-3       -0.00005  -0.00005  -0.00006  -0.00006   0.00016
  40       14F 0        0.00007   0.00006   0.00015   0.00014   0.00030
  41       14F+1        0.00020   0.00035  -0.00417  -0.00406  -0.00520
  42       14F-1        0.00020  -0.00033  -0.00423   0.00401  -0.00502
  43       14F+2       -0.00275   0.00271  -0.00007   0.00010  -0.00220
  44       14F-2       -0.00269  -0.00277  -0.00008  -0.00011  -0.00231
  45       14F+3       -0.00008   0.00008  -0.00023   0.00023  -0.00002
  46       14F-3       -0.00007  -0.00006   0.00012   0.00012   0.00093
  47 2   H  1S         -0.05120   0.04413  -0.10842   0.10583  -0.02973
  48        2S         -0.04673   0.03932  -0.11115   0.10719  -0.03123
  49        3S          0.04274  -0.03917   0.08387  -0.08481   0.00148
  50        4S         -0.00410   0.00407   0.01236  -0.01222   0.00065
  51        5PX         0.00147   0.00148   0.00292   0.00326   0.00070
  52        5PY        -0.00407   0.00341  -0.00896   0.00856  -0.00234
  53        5PZ        -0.00002  -0.00006  -0.00200   0.00195   0.00030
  54        6PX         0.00581   0.00554   0.00936   0.00989   0.00261
  55        6PY         0.00523  -0.00495   0.00769  -0.00817   0.00341
  56        6PZ        -0.00198   0.00195   0.00030  -0.00025  -0.00073
  57        7PX         0.00683   0.00627   0.00955   0.00932   0.00201
  58        7PY         0.01084  -0.00907   0.03240  -0.03207   0.00572
  59        7PZ         0.00054  -0.00039   0.00544  -0.00529   0.00160
  60        8D 0        0.00033  -0.00026   0.00098  -0.00094   0.00027
  61        8D+1        0.00001   0.00001   0.00022   0.00022  -0.00003
  62        8D-1       -0.00054   0.00051  -0.00018   0.00017  -0.00019
  63        8D+2        0.00049  -0.00037   0.00142  -0.00130   0.00033
  64        8D-2        0.00076   0.00073   0.00153   0.00164   0.00041
  65        9D 0       -0.00039   0.00038   0.00097  -0.00111  -0.00020
  66        9D+1       -0.00109  -0.00108   0.00074   0.00067  -0.00087
  67        9D-1       -0.00235   0.00236   0.00250  -0.00234  -0.00046
  68        9D+2       -0.00125   0.00103  -0.00195   0.00181  -0.00080
  69        9D-2        0.00122   0.00112   0.00205   0.00202   0.00081
  70 3   H  1S         -0.01824  -0.06255  -0.03898  -0.14760  -0.01081
  71        2S         -0.01713  -0.05739  -0.04116  -0.15411  -0.01285
  72        3S          0.01460   0.05344   0.02869   0.11277  -0.00041
  73        4S         -0.00144  -0.00567   0.00432   0.01661   0.00022
  74        5PX        -0.00024  -0.00448  -0.00077  -0.01097  -0.00028
  75        5PY         0.00251   0.00199   0.00514   0.00499   0.00125
  76        5PZ         0.00000   0.00010  -0.00071  -0.00267   0.00021
  77        6PX         0.00547   0.00472   0.00858   0.00717   0.00262
  78        6PY         0.00601  -0.00493   0.00990  -0.00820   0.00236
  79        6PZ        -0.00066  -0.00258   0.00005   0.00014  -0.00026
  80        7PX         0.00789   0.01017   0.01627   0.03675   0.00292
  81        7PY         0.00591  -0.00828   0.00515  -0.02487   0.00123
  82        7PZ         0.00017   0.00050   0.00190   0.00719   0.00033
  83        8D 0        0.00012   0.00039   0.00036   0.00136   0.00011
  84        8D+1       -0.00016  -0.00062   0.00009  -0.00027  -0.00008
  85        8D-1        0.00011   0.00035   0.00030   0.00006   0.00001
  86        8D+2        0.00080  -0.00050   0.00154  -0.00146   0.00040
  87        8D-2        0.00068   0.00037   0.00151   0.00137   0.00037
  88        9D 0       -0.00013  -0.00051   0.00031   0.00142  -0.00011
  89        9D+1       -0.00144  -0.00266   0.00126   0.00267  -0.00079
  90        9D-1       -0.00085   0.00196   0.00041  -0.00181  -0.00084
  91        9D+2        0.00166   0.00045   0.00276   0.00075   0.00109
  92        9D-2        0.00041  -0.00153   0.00073  -0.00270   0.00020
  93 4   H  1S          0.06745   0.01663   0.14495   0.03943   0.04611
  94        2S          0.05977   0.01438   0.14408   0.03868   0.04239
  95        3S         -0.05845  -0.01527  -0.11748  -0.03304  -0.00644
  96        4S          0.00550   0.00156  -0.01696  -0.00467  -0.00107
  97        5PX        -0.00490  -0.00011  -0.01086  -0.00056  -0.00318
  98        5PY        -0.00217  -0.00235  -0.00500  -0.00538  -0.00158
  99        5PZ         0.00005  -0.00001   0.00274   0.00074  -0.00002
 100        6PX         0.00526   0.00550   0.00805   0.00960   0.00456
 101        6PY         0.00565  -0.00556   0.00874  -0.00997   0.00369
 102        6PZ         0.00277   0.00078  -0.00064  -0.00015   0.00119
 103        7PX         0.01094   0.00734   0.03602   0.01704   0.00795
 104        7PY         0.00947  -0.00595   0.02512  -0.00541   0.00540
 105        7PZ        -0.00078  -0.00016  -0.00752  -0.00204  -0.00348
 106        8D 0       -0.00040  -0.00009  -0.00126  -0.00034  -0.00037
 107        8D+1       -0.00063  -0.00016  -0.00022   0.00011  -0.00025
 108        8D-1       -0.00036  -0.00011  -0.00003  -0.00030  -0.00015
 109        8D+2        0.00056  -0.00080   0.00140  -0.00172   0.00038
 110        8D-2        0.00036   0.00061   0.00126   0.00151   0.00038
 111        9D 0        0.00054   0.00015  -0.00142  -0.00045   0.00013
 112        9D+1       -0.00251  -0.00154   0.00279   0.00123  -0.00014
 113        9D-1       -0.00195   0.00086   0.00194  -0.00037  -0.00042
 114        9D+2       -0.00036  -0.00152  -0.00053  -0.00273  -0.00021
 115        9D-2       -0.00159   0.00046  -0.00250   0.00086  -0.00093
 116 5   Cl 1S          0.00018   0.00016   0.00023   0.00021  -0.00055
 117        2S         -0.00067  -0.00059  -0.00083  -0.00078   0.00211
 118        3S          0.00149   0.00130   0.00188   0.00177  -0.00428
 119        4S          0.00022   0.00019   0.00029   0.00028  -0.00065
 120        5S          0.00080   0.00069   0.00106   0.00098  -0.00376
 121        6S         -0.00041  -0.00039  -0.00041  -0.00042  -0.00128
 122        7PX        -0.00644  -0.00599  -0.02936  -0.03242   0.16112
 123        7PY        -0.00658   0.00586  -0.02974   0.03202   0.15492
 124        7PZ        -0.00048  -0.00044  -0.00105  -0.00112  -0.00095
 125        8PX         0.01528   0.01417   0.06945   0.07652  -0.36860
 126        8PY         0.01561  -0.01387   0.07037  -0.07558  -0.35442
 127        8PZ         0.00115   0.00106   0.00248   0.00263   0.00222
 128        9PX         0.00708   0.00659   0.03208   0.03545  -0.17805
 129        9PY         0.00723  -0.00645   0.03250  -0.03501  -0.17119
 130        9PZ         0.00050   0.00046   0.00110   0.00117   0.00110
 131       10PX         0.00758   0.00711   0.03729   0.04179  -0.26486
 132       10PY         0.00774  -0.00696   0.03778  -0.04127  -0.25466
 133       10PZ         0.00091   0.00085   0.00175   0.00185   0.00318
 134       11PX         0.00147   0.00153   0.00213   0.00269  -0.04470
 135       11PY         0.00151  -0.00150   0.00216  -0.00266  -0.04298
 136       11PZ         0.00019   0.00018   0.00025   0.00026   0.00118
 137       12D 0       -0.00006  -0.00006  -0.00014  -0.00015   0.00024
 138       12D+1       -0.00139  -0.00127  -0.00428  -0.00446   0.00022
 139       12D-1       -0.00142   0.00125  -0.00433   0.00441   0.00021
 140       12D+2        0.00009  -0.00007   0.00040  -0.00037   0.00016
 141       12D-2        0.00009   0.00007   0.00039   0.00038   0.00016
 142       13D 0       -0.00016  -0.00014  -0.00030  -0.00031   0.00036
 143       13D+1       -0.00216  -0.00194  -0.00760  -0.00789   0.00058
 144       13D-1       -0.00221   0.00190  -0.00770   0.00779   0.00057
 145       13D+2        0.00024  -0.00021   0.00049  -0.00043   0.00037
 146       13D-2        0.00024   0.00022   0.00047   0.00043   0.00039
 147       14D 0       -0.00010  -0.00009  -0.00019  -0.00019  -0.00014
 148       14D+1        0.00004   0.00005   0.00004   0.00003   0.00246
 149       14D-1        0.00004  -0.00005   0.00004  -0.00003   0.00237
 150       14D+2       -0.00047   0.00046  -0.00005   0.00005   0.00002
 151       14D-2       -0.00046  -0.00047  -0.00005  -0.00005   0.00003
 152       15F 0        0.00003   0.00003   0.00006   0.00006  -0.00006
 153       15F+1        0.00065   0.00060   0.00182   0.00190  -0.00103
 154       15F-1        0.00066  -0.00059   0.00184  -0.00187  -0.00099
 155       15F+2       -0.00009   0.00007  -0.00025   0.00023  -0.00006
 156       15F-2       -0.00009  -0.00007  -0.00025  -0.00023  -0.00006
 157       15F+3        0.00000   0.00000   0.00000   0.00000   0.00000
 158       15F-3        0.00000   0.00000   0.00000   0.00000   0.00000
 159       16F 0        0.00004   0.00003   0.00006   0.00006  -0.00009
 160       16F+1        0.00044   0.00040   0.00139   0.00145  -0.00131
 161       16F-1        0.00045  -0.00039   0.00141  -0.00143  -0.00126
 162       16F+2        0.00001  -0.00001   0.00012  -0.00014  -0.00012
 163       16F-2        0.00001   0.00001   0.00012   0.00014  -0.00013
 164       16F+3        0.00000   0.00000   0.00000   0.00000   0.00001
 165       16F-3        0.00000   0.00000   0.00000   0.00000  -0.00001
 166 6   F  1S         -0.00022  -0.00020  -0.00023  -0.00022   0.00064
 167        2S          0.00059   0.00054   0.00064   0.00061  -0.00136
 168        3S          0.00019   0.00018   0.00021   0.00020  -0.00041
 169        4S          0.00051   0.00047   0.00059   0.00057  -0.00088
 170        5S         -0.00012  -0.00012  -0.00003  -0.00002  -0.00043
 171        6PX         0.23001   0.23959  -0.11854  -0.11056  -0.01602
 172        6PY         0.23502  -0.23459  -0.12005   0.10916  -0.01524
 173        6PZ        -0.00328  -0.00302  -0.00188  -0.00214  -0.02074
 174        7PX         0.27439   0.28579  -0.14059  -0.13106  -0.01896
 175        7PY         0.28036  -0.27983  -0.14238   0.12939  -0.01804
 176        7PZ        -0.00392  -0.00360  -0.00227  -0.00257  -0.02472
 177        8PX         0.22177   0.23112  -0.11805  -0.11046  -0.01620
 178        8PY         0.22659  -0.22630  -0.11955   0.10905  -0.01543
 179        8PZ        -0.00315  -0.00289  -0.00178  -0.00203  -0.02042
 180        9PX         0.06966   0.07271  -0.04141  -0.03916  -0.00788
 181        9PY         0.07117  -0.07119  -0.04194   0.03866  -0.00753
 182        9PZ        -0.00097  -0.00090  -0.00042  -0.00050  -0.00638
 183       10D 0       -0.00001  -0.00001  -0.00001  -0.00001  -0.00005
 184       10D+1        0.00042   0.00043   0.00006   0.00007   0.00008
 185       10D-1        0.00043  -0.00042   0.00006  -0.00007   0.00008
 186       10D+2        0.00002  -0.00001   0.00002  -0.00003   0.00001
 187       10D-2        0.00002   0.00001   0.00002   0.00003   0.00001
 188       11D 0       -0.00005  -0.00004  -0.00006  -0.00006  -0.00013
 189       11D+1        0.00171   0.00171   0.00081   0.00091   0.00041
 190       11D-1        0.00175  -0.00168   0.00082  -0.00090   0.00040
 191       11D+2        0.00005  -0.00002   0.00018  -0.00018   0.00012
 192       11D-2        0.00005   0.00002   0.00018   0.00018   0.00013
 193       12D 0       -0.00010  -0.00009  -0.00008  -0.00008  -0.00060
 194       12D+1        0.00410   0.00428  -0.00257  -0.00246   0.00024
 195       12D-1        0.00419  -0.00419  -0.00260   0.00243   0.00023
 196       12D+2        0.00004  -0.00001  -0.00021   0.00018  -0.00025
 197       12D-2        0.00004   0.00001  -0.00021  -0.00018  -0.00026
 198       13F 0       -0.00001  -0.00001  -0.00001  -0.00001  -0.00001
 199       13F+1        0.00016   0.00015   0.00017   0.00018   0.00004
 200       13F-1        0.00016  -0.00015   0.00018  -0.00018   0.00004
 201       13F+2        0.00004  -0.00003   0.00008  -0.00008   0.00004
 202       13F-2        0.00004   0.00004   0.00008   0.00008   0.00004
 203       13F+3        0.00000   0.00000   0.00000   0.00000   0.00000
 204       13F-3        0.00000   0.00000   0.00000   0.00000   0.00000
 205       14F 0       -0.00003  -0.00002  -0.00001  -0.00001  -0.00011
 206       14F+1        0.00100   0.00105  -0.00063  -0.00060   0.00001
 207       14F-1        0.00103  -0.00103  -0.00064   0.00059   0.00001
 208       14F+2       -0.00009   0.00010  -0.00017   0.00016  -0.00011
 209       14F-2       -0.00008  -0.00010  -0.00017  -0.00017  -0.00011
 210       14F+3        0.00000   0.00000   0.00000   0.00000   0.00000
 211       14F-3        0.00000   0.00000   0.00000   0.00000  -0.00001
                          16        17        18        19        20
     Eigenvalues --     1.94908   1.94879   1.93535   0.06019   0.02496
   1 1   C  1S         -0.00338   0.05316  -0.01580  -0.02406  -0.00259
   2        2S          0.00967  -0.15134   0.05098   0.06680   0.00947
   3        3S          0.00235  -0.03571   0.01676   0.02432   0.00452
   4        4S          0.02081  -0.29087   0.08706  -0.22144  -0.00189
   5        5S          0.00419  -0.05736   0.03918  -0.02902  -0.00154
   6        6PX         0.04812   0.00787  -0.00066   0.00004  -0.11760
   7        6PY        -0.05042  -0.00079  -0.00004   0.00012   0.11105
   8        6PZ         0.00302  -0.04552  -0.12872   0.27937  -0.00066
   9        7PX         0.06676   0.01105  -0.00115   0.00085  -0.21936
  10        7PY        -0.06998  -0.00106  -0.00007   0.00023   0.20714
  11        7PZ         0.00426  -0.06450  -0.18059   0.44327  -0.00094
  12        8PX         0.05160   0.00887  -0.00133   0.00081  -0.10025
  13        8PY        -0.05410  -0.00086  -0.00003   0.00010   0.09452
  14        8PZ         0.00423  -0.06397  -0.07660   0.20176   0.00036
  15        9PX         0.00859   0.00146  -0.00030  -0.00013  -0.02128
  16        9PY        -0.00902  -0.00013   0.00000   0.00000   0.02003
  17        9PZ         0.00009  -0.00123  -0.00166  -0.00006  -0.00022
  18       10D 0       -0.00064   0.00931  -0.01106  -0.00881  -0.00005
  19       10D+1       -0.00257  -0.00035   0.00003   0.00013  -0.01847
  20       10D-1        0.00269   0.00004  -0.00001  -0.00001   0.01741
  21       10D+2       -0.00372  -0.00005   0.00000   0.00000   0.00220
  22       10D-2        0.00356   0.00048   0.00003   0.00004  -0.00241
  23       11D 0       -0.00351   0.04961  -0.04570   0.06669   0.00159
  24       11D+1       -0.01058  -0.00119   0.00012  -0.00074  -0.04314
  25       11D-1        0.01107   0.00015  -0.00003   0.00004   0.04074
  26       11D+2       -0.01267  -0.00018   0.00000   0.00001   0.05035
  27       11D-2        0.01211   0.00158  -0.00002  -0.00009  -0.05343
  28       12D 0       -0.00180   0.02807  -0.00381  -0.01694  -0.00005
  29       12D+1        0.00076   0.00010   0.00006  -0.00027  -0.01420
  30       12D-1       -0.00081   0.00002   0.00000  -0.00002   0.01345
  31       12D+2       -0.00761  -0.00012   0.00000   0.00000   0.01218
  32       12D-2        0.00730   0.00075   0.00008  -0.00066  -0.01286
  33       13F 0        0.00013  -0.00207  -0.00328  -0.00586   0.00011
  34       13F+1       -0.00155  -0.00026   0.00004  -0.00005   0.00724
  35       13F-1        0.00163   0.00002   0.00000  -0.00001  -0.00683
  36       13F+2        0.00025   0.00001   0.00000   0.00000   0.00221
  37       13F-2       -0.00024  -0.00005   0.00001   0.00003  -0.00232
  38       13F+3        0.00001   0.00000   0.00000   0.00000  -0.00005
  39       13F-3        0.00019  -0.00307   0.00115  -0.00053   0.00006
  40       14F 0        0.00035  -0.00545  -0.00087   0.01162   0.00040
  41       14F+1       -0.00499  -0.00084   0.00010  -0.00028   0.00221
  42       14F-1        0.00525   0.00005   0.00000   0.00001  -0.00210
  43       14F+2        0.00238   0.00004  -0.00001   0.00002  -0.00169
  44       14F-2       -0.00229  -0.00016   0.00000  -0.00045   0.00180
  45       14F+3        0.00003  -0.00001   0.00000  -0.00001  -0.00036
  46       14F-3        0.00107  -0.01502   0.00917  -0.03769  -0.00040
  47 2   H  1S          0.03677  -0.03318   0.02884  -0.00683   0.02789
  48        2S          0.03398  -0.00266   0.02283   0.07998   0.18443
  49        3S         -0.00630   0.02172   0.02031   0.06878   0.12000
  50        4S         -0.00089   0.00009   0.00193   0.00722   0.04907
  51        5PX         0.00080   0.00012   0.00000  -0.00003  -0.00240
  52        5PY         0.00278  -0.00210   0.00248  -0.00200  -0.00596
  53        5PZ         0.00007  -0.00266  -0.00321   0.01429  -0.00834
  54        6PX         0.00263   0.00066  -0.00020   0.00073  -0.00570
  55        6PY        -0.00457   0.00544  -0.00154   0.00982   0.04289
  56        6PZ         0.00093  -0.00098  -0.01029   0.02820  -0.00329
  57        7PX         0.00198   0.00023   0.00005  -0.00033   0.00039
  58        7PY        -0.00813   0.01093  -0.00164   0.01272   0.03585
  59        7PZ        -0.00265   0.00802   0.00317  -0.01401   0.00453
  60        8D 0       -0.00031   0.00014  -0.00085   0.00060   0.00179
  61        8D+1       -0.00002   0.00000  -0.00001   0.00010  -0.00139
  62        8D-1        0.00023  -0.00020  -0.00171   0.00673  -0.00267
  63        8D+2       -0.00041   0.00052  -0.00061   0.00186   0.00167
  64        8D-2        0.00044   0.00008   0.00000   0.00000  -0.00175
  65        9D 0        0.00001   0.00082  -0.00282   0.00596  -0.00227
  66        9D+1       -0.00080  -0.00002  -0.00005  -0.00010  -0.00310
  67        9D-1        0.00017   0.00201  -0.00055  -0.00588   0.01077
  68        9D+2        0.00071   0.00109   0.00035  -0.00113  -0.00696
  69        9D-2        0.00077   0.00011  -0.00002   0.00005  -0.00073
  70 3   H  1S         -0.04376  -0.03846   0.02909  -0.00670  -0.04660
  71        2S         -0.04635  -0.00865   0.02340   0.08053  -0.27156
  72        3S          0.00377   0.02163   0.02037   0.06789  -0.17112
  73        4S          0.00103   0.00024   0.00184   0.00732  -0.06939
  74        5PX        -0.00309  -0.00212   0.00214  -0.00165   0.00783
  75        5PY         0.00141   0.00128  -0.00124   0.00094  -0.00363
  76        5PZ         0.00034  -0.00264  -0.00315   0.01403   0.01169
  77        6PX         0.00373   0.00552  -0.00154   0.00955  -0.05276
  78        6PY        -0.00337  -0.00286   0.00077  -0.00509   0.03236
  79        6PZ        -0.00107  -0.00100  -0.01019   0.02779   0.00510
  80        7PX         0.00746   0.01059  -0.00163   0.01099  -0.04453
  81        7PY        -0.00518  -0.00602   0.00097  -0.00654   0.02545
  82        7PZ         0.00216   0.00819   0.00321  -0.01381  -0.00605
  83        8D 0        0.00041   0.00017  -0.00085   0.00053  -0.00247
  84        8D+1       -0.00023  -0.00019  -0.00146   0.00576   0.00354
  85        8D-1        0.00014   0.00011   0.00084  -0.00328  -0.00153
  86        8D+2       -0.00039  -0.00025   0.00030  -0.00087   0.00170
  87        8D-2        0.00034   0.00050  -0.00052   0.00150  -0.00181
  88        9D 0       -0.00017   0.00078  -0.00279   0.00575   0.00407
  89        9D+1       -0.00034   0.00174  -0.00053  -0.00495  -0.01263
  90        9D-1        0.00056  -0.00101   0.00027   0.00281   0.00841
  91        9D+2        0.00032  -0.00043  -0.00020   0.00061  -0.00498
  92        9D-2       -0.00117   0.00085   0.00032  -0.00100   0.00891
  93 4   H  1S          0.01347  -0.02942   0.02861  -0.00696   0.00978
  94        2S          0.01072   0.00156   0.02229   0.07933   0.07442
  95        3S         -0.00349   0.02202   0.02030   0.06958   0.05006
  96        4S         -0.00034  -0.00001   0.00202   0.00713   0.02069
  97        5PX        -0.00031   0.00163  -0.00217   0.00184   0.00053
  98        5PY        -0.00146   0.00085  -0.00125   0.00109   0.00402
  99        5PZ         0.00015  -0.00269  -0.00328   0.01456  -0.00354
 100        6PX         0.00349  -0.00395   0.00110  -0.00739  -0.01934
 101        6PY        -0.00244  -0.00271   0.00075  -0.00468  -0.00166
 102        6PZ         0.00036  -0.00100  -0.01039   0.02863  -0.00126
 103        7PX         0.00421  -0.00862   0.00120  -0.01102  -0.01291
 104        7PY        -0.00096  -0.00513   0.00066  -0.00617  -0.00746
 105        7PZ        -0.00126   0.00792   0.00313  -0.01419   0.00196
 106        8D 0       -0.00010   0.00012  -0.00085   0.00068   0.00076
 107        8D+1       -0.00008   0.00017   0.00149  -0.00589   0.00006
 108        8D-1       -0.00002   0.00010   0.00087  -0.00345   0.00213
 109        8D+2       -0.00046  -0.00029   0.00031  -0.00099   0.00166
 110        8D-2        0.00044  -0.00041   0.00053  -0.00173  -0.00177
 111        9D 0       -0.00005   0.00087  -0.00286   0.00617  -0.00071
 112        9D+1       -0.00055  -0.00174   0.00042   0.00524  -0.00598
 113        9D-1        0.00103  -0.00099   0.00027   0.00309   0.00128
 114        9D+2       -0.00106  -0.00065  -0.00016   0.00053   0.00243
 115        9D-2        0.00042  -0.00099  -0.00029   0.00097   0.00181
 116 5   Cl 1S         -0.00064   0.01018   0.00050  -0.01679  -0.00003
 117        2S          0.00246  -0.03884  -0.00167   0.05630   0.00010
 118        3S         -0.00501   0.08029   0.01125  -0.15673  -0.00026
 119        4S         -0.00077   0.01239   0.00452  -0.03985   0.00000
 120        5S         -0.00439   0.06882   0.01222  -0.04603  -0.00049
 121        6S         -0.00147   0.02033  -0.01253   0.01582  -0.00001
 122        7PX         0.15371   0.01973   0.00099   0.00100  -0.01531
 123        7PY        -0.16118  -0.00180  -0.00009  -0.00007   0.01447
 124        7PZ        -0.00110   0.02660  -0.21012  -0.16340  -0.00085
 125        8PX        -0.35164  -0.04511  -0.00216  -0.00218   0.02381
 126        8PY         0.36872   0.00411   0.00019   0.00016  -0.02250
 127        8PZ         0.00258  -0.06211   0.46461   0.36066   0.00194
 128        9PX        -0.16988  -0.02181  -0.00098  -0.00125   0.02544
 129        9PY         0.17812   0.00199   0.00009   0.00009  -0.02404
 130        9PZ         0.00128  -0.03098   0.21829   0.20646   0.00125
 131       10PX        -0.25287  -0.03248  -0.00140  -0.00002  -0.01193
 132       10PY         0.26514   0.00296   0.00013   0.00001   0.01128
 133       10PZ         0.00369  -0.07204   0.31775   0.02934  -0.00044
 134       11PX        -0.04281  -0.00558  -0.00006   0.00004  -0.00438
 135       11PY         0.04489   0.00051   0.00002   0.00000   0.00413
 136       11PZ         0.00137  -0.02393   0.04618   0.00728  -0.00020
 137       12D 0        0.00028  -0.00471  -0.01240   0.06747   0.00247
 138       12D+1        0.00009  -0.00002   0.00018  -0.00060   0.04202
 139       12D-1       -0.00010   0.00000  -0.00001   0.00005  -0.03969
 140       12D+2       -0.00019   0.00000   0.00000   0.00000   0.00007
 141       12D-2        0.00018   0.00003  -0.00001   0.00000  -0.00008
 142       13D 0        0.00043  -0.00753  -0.01943   0.09787   0.00357
 143       13D+1        0.00038  -0.00002   0.00032  -0.00106   0.06267
 144       13D-1       -0.00040   0.00000  -0.00001   0.00007  -0.05920
 145       13D+2       -0.00042  -0.00001   0.00000   0.00000   0.00011
 146       13D-2        0.00040   0.00005  -0.00001   0.00001  -0.00014
 147       14D 0       -0.00015   0.00151  -0.01323   0.03014   0.00029
 148       14D+1        0.00227   0.00024   0.00022  -0.00037   0.00660
 149       14D-1       -0.00238  -0.00002  -0.00001   0.00002  -0.00622
 150       14D+2       -0.00007   0.00000   0.00000   0.00000   0.00002
 151       14D-2        0.00007   0.00001  -0.00002   0.00004  -0.00003
 152       15F 0       -0.00007   0.00098   0.00459  -0.00358  -0.00019
 153       15F+1       -0.00095  -0.00012  -0.00008   0.00003  -0.00364
 154       15F-1        0.00100   0.00001   0.00000   0.00000   0.00344
 155       15F+2        0.00009   0.00000   0.00000   0.00000  -0.00010
 156       15F-2       -0.00009  -0.00002   0.00000   0.00001   0.00011
 157       15F+3        0.00000   0.00000   0.00000   0.00000   0.00000
 158       15F-3        0.00000  -0.00007   0.00004   0.00004   0.00000
 159       16F 0       -0.00010   0.00136   0.00401   0.00164  -0.00009
 160       16F+1       -0.00122  -0.00013  -0.00011   0.00011  -0.00012
[...]
  79        6PZ        -0.33941   0.01903  -0.00904  -0.14991   0.14576
  80        7PX        -0.09489  -6.79724   7.28320  -1.71736   6.59083
  81        7PY        -0.16060   7.02852   7.40749   1.12213  -2.70407
  82        7PZ        -2.02219  -2.92790   0.77240   0.05117   0.79857
  83        8D 0       -0.03359   0.01282  -0.00585   0.02571  -0.01566
  84        8D+1        0.00897  -0.01540   0.02722   0.00988  -0.01467
  85        8D-1       -0.00517   0.02185   0.03223  -0.00503   0.00694
  86        8D+2        0.06441  -0.03461  -0.09543   0.02433   0.01137
  87        8D-2       -0.10557  -0.00137  -0.06734  -0.04076  -0.03481
  88        9D 0       -0.44258   0.53241  -0.16764  -0.13566  -0.25915
  89        9D+1       -0.25665  -0.17896  -0.15557  -0.04079   0.23894
  90        9D-1        0.15243  -0.01431  -0.34287   0.02224  -0.10973
  91        9D+2       -0.21630  -0.23365   1.70229  -0.33869   0.26217
  92        9D-2        0.32727   1.33081   0.58904   0.62237  -0.13770
  93 4   H  1S         -0.03626   0.00328   0.00744  -0.00806   0.00654
  94        2S          0.53075   0.89732  -3.52248  -0.57108  -0.57507
  95        3S          9.58778   6.13996 -26.51701  -3.18005  -6.48181
  96        4S          1.50225  -0.64939   2.02602  -1.77171  -2.78879
  97        5PX        -0.02016   0.07739  -0.07334  -0.08002   0.00079
  98        5PY        -0.02495  -0.07364  -0.07604  -0.04397  -0.05956
  99        5PZ         0.05992  -0.00443  -0.00793   0.03275   0.00306
 100        6PX        -0.78547  -1.15070   1.82410   0.61964   0.02989
 101        6PY        -0.27369   0.97841   1.52079   0.33424   0.61538
 102        6PZ        -0.31946   0.04724  -0.05147  -0.17625  -0.04433
 103        7PX        -2.19071  -7.05211   6.51345   1.74654  -0.09919
 104        7PY         0.09309   7.81123   7.01639   0.86943   3.95472
 105        7PZ        -1.17366   1.02492  -3.37644  -0.01609  -0.19584
 106        8D 0       -0.03935   0.00344   0.01063   0.02425   0.00560
 107        8D+1       -0.01265  -0.02444   0.01592  -0.00689  -0.00034
 108        8D-1       -0.00279   0.03303   0.02182  -0.00454  -0.00699
 109        8D+2        0.05273  -0.10753  -0.03088   0.02467  -0.03034
 110        8D-2        0.11865   0.04226   0.01041   0.04393   0.00601
 111        9D 0       -0.50919  -0.04248   0.43338  -0.15891   0.05773
 112        9D+1        0.21251   0.12080   0.23363   0.03487   0.01094
 113        9D-1        0.07589  -0.36656   0.01702   0.02043   0.11383
 114        9D+2        0.08390   1.72072  -0.23815  -0.37848   0.45531
 115        9D-2       -0.23451  -0.56169  -1.39854  -0.61692  -0.35090
 116 5   Cl 1S          0.02007  -0.00266   0.00114   0.01172   0.00029
 117        2S          0.27751  -0.03730   0.01630   0.16292   0.00446
 118        3S          0.77408  -0.10303   0.04445   0.45795   0.01156
 119        4S         -0.04124   0.00683  -0.00370  -0.01433  -0.00169
 120        5S         -4.31864   0.55127  -0.22575  -3.01582  -0.07014
 121        6S         -9.72834   1.26474  -0.52431 -13.24005  -0.18150
 122        7PX         0.00030   0.00043  -0.00063   0.00036  -0.00208
 123        7PY        -0.00003  -0.00047  -0.00064  -0.00001   0.00214
 124        7PZ        -0.00456   0.00057  -0.00022  -0.02274  -0.00039
 125        8PX         0.00609   0.01105  -0.01383   0.00743  -0.04170
 126        8PY        -0.00075  -0.01180  -0.01412  -0.00020   0.04273
 127        8PZ        -0.06427   0.00788  -0.00283  -0.31751  -0.00466
 128        9PX        -0.00120  -0.00222   0.00308  -0.00118   0.00697
 129        9PY         0.00014   0.00237   0.00314   0.00003  -0.00714
 130        9PZ         0.00196  -0.00025   0.00008   0.07964   0.00142
 131       10PX        -0.03902  -0.03900   0.04557  -0.07497   0.29676
 132       10PY         0.00465   0.04400   0.04796   0.00282  -0.30462
 133       10PZ         5.85969  -0.75704   0.31287   5.07222   0.08361
 134       11PX        -0.16763  -0.78595   0.82093  -0.02408  -0.17155
 135       11PY         0.05863   0.79971   0.82331   0.00152   0.17488
 136       11PZ         0.78380  -0.10489   0.04239   3.35836   0.04839
 137       12D 0        0.06759  -0.00845   0.00340   0.00176  -0.00017
 138       12D+1        0.00475   0.02093  -0.02209   0.00044  -0.00254
 139       12D-1       -0.00150  -0.02133  -0.02215   0.00000   0.00259
 140       12D+2        0.00041   0.00518   0.00570   0.00002  -0.00883
 141       12D-2       -0.00201  -0.00500   0.00565   0.00018   0.00868
 142       13D 0       -0.38477   0.04929  -0.02040  -0.07019  -0.00036
 143       13D+1       -0.01766  -0.07627   0.08194  -0.00173   0.01783
 144       13D-1        0.00536   0.07780   0.08219  -0.00003  -0.01819
 145       13D+2       -0.00089  -0.01145  -0.01331  -0.00006   0.03180
 146       13D-2        0.00549   0.01091  -0.01314  -0.00031  -0.03120
 147       14D 0       -1.38000   0.18017  -0.07476  -1.23982  -0.01903
 148       14D+1        0.06875   0.20610  -0.21651   0.05000  -0.22956
 149       14D-1       -0.01616  -0.21305  -0.21871  -0.00151   0.23520
 150       14D+2        0.00290   0.04390   0.04753   0.00001  -0.14505
 151       14D-2       -0.00967  -0.04287   0.04714  -0.00599   0.14183
 152       15F 0       -0.04265   0.00571  -0.00249   0.00125   0.00012
 153       15F+1        0.00268   0.00286  -0.00318   0.00250  -0.01324
 154       15F-1       -0.00029  -0.00316  -0.00330  -0.00006   0.01354
 155       15F+2        0.00044   0.00671   0.00694  -0.00005  -0.00727
 156       15F-2       -0.00072  -0.00665   0.00693  -0.00053   0.00707
 157       15F+3       -0.00001  -0.00009  -0.00008   0.00001  -0.00019
 158       15F-3       -0.00930   0.00089  -0.00017   0.02292   0.00021
 159       16F 0        0.23119  -0.02981   0.01225   0.08883   0.00055
 160       16F+1       -0.00864  -0.01020   0.00960  -0.01069   0.04525
 161       16F-1        0.00108   0.01117   0.00998   0.00029  -0.04633
 162       16F+2       -0.00225  -0.03221  -0.03252   0.00009   0.03024
 163       16F-2        0.00424   0.03192  -0.03246   0.00237  -0.02947
 164       16F+3        0.00002   0.00019   0.00020  -0.00002   0.00032
 165       16F-3        0.01935  -0.00189   0.00038  -0.04283  -0.00035
 166 6   F  1S          0.03979  -0.00498   0.00201  -0.02272   0.00037
 167        2S          0.13996  -0.01748   0.00705  -0.08629   0.00172
 168        3S         -0.07134   0.00894  -0.00360   0.03678  -0.00021
 169        4S         -0.37503   0.04886  -0.02102  -0.01896  -0.01164
 170        5S         -0.05483   0.04109  -0.03548  -5.93295  -0.09049
 171        6PX        -0.00105  -0.00499   0.00523  -0.00012   0.00120
 172        6PY         0.00038   0.00507   0.00524   0.00001  -0.00123
 173        6PZ         0.00536  -0.00059   0.00018   0.00222   0.00008
 174        7PX         0.00478   0.02591  -0.02696   0.00058  -0.00438
 175        7PY        -0.00198  -0.02624  -0.02697  -0.00004   0.00447
 176        7PZ        -0.06315   0.00767  -0.00290   0.00270  -0.00015
 177        8PX        -0.02734  -0.18223   0.18811  -0.00280   0.00151
 178        8PY         0.01385   0.18376   0.18795   0.00011  -0.00157
 179        8PZ         0.62375  -0.07511   0.02794  -0.24698  -0.00768
 180        9PX        -0.09279  -0.57866   0.60033  -0.01317  -0.16031
 181        9PY         0.04227   0.58519   0.60068  -0.00108   0.16337
 182        9PZ        -0.86118   0.11097  -0.04619  -2.49127  -0.03809
 183       10D 0        0.01120  -0.00156   0.00070  -0.00799   0.00000
 184       10D+1       -0.00188  -0.01018   0.01054  -0.00054   0.00159
 185       10D-1        0.00077   0.01032   0.01056   0.00001  -0.00163
 186       10D+2       -0.00028  -0.00352  -0.00345   0.00000  -0.00204
 187       10D-2        0.00106   0.00342  -0.00342  -0.00004   0.00200
 188       11D 0       -0.04145   0.00585  -0.00268   0.01579  -0.00023
 189       11D+1        0.00585   0.03273  -0.03388   0.00156  -0.00284
 190       11D-1       -0.00247  -0.03316  -0.03392  -0.00003   0.00292
 191       11D+2        0.00095   0.01195   0.01167   0.00000   0.00723
 192       11D-2       -0.00365  -0.01161   0.01156   0.00032  -0.00708
 193       12D 0        0.41175  -0.05493   0.02379  -0.01169   0.00003
 194       12D+1       -0.01129  -0.09627   0.09845  -0.00265  -0.02123
 195       12D-1        0.00746   0.09664   0.09820   0.00013   0.02165
 196       12D+2       -0.00347  -0.04428  -0.04396  -0.00002  -0.01375
 197       12D-2        0.01277   0.04313  -0.04360  -0.00089   0.01344
 198       13F 0       -0.02706   0.00382  -0.00181  -0.00757  -0.00022
 199       13F+1       -0.00295  -0.01286   0.01317  -0.00075   0.00564
 200       13F-1        0.00094   0.01315   0.01325   0.00000  -0.00578
 201       13F+2        0.00046   0.00631   0.00653   0.00002  -0.00198
 202       13F-2       -0.00146  -0.00621   0.00652  -0.00051   0.00194
 203       13F+3       -0.00002  -0.00035  -0.00036   0.00000  -0.00005
 204       13F-3        0.01264  -0.00162   0.00069  -0.00134  -0.00031
 205       14F 0        0.06729  -0.00967   0.00465   0.01175   0.00033
 206       14F+1        0.00680   0.02767  -0.02850   0.00120  -0.01244
 207       14F-1       -0.00202  -0.02835  -0.02870   0.00000   0.01274
 208       14F+2       -0.00129  -0.01756  -0.01806  -0.00004   0.00472
 209       14F-2        0.00382   0.01729  -0.01802   0.00087  -0.00462
 210       14F+3        0.00003   0.00046   0.00048   0.00000   0.00007
 211       14F-3       -0.01706   0.00217  -0.00092   0.00254   0.00056
                         211
     Eigenvalues --     0.00000
   1 1   C  1S         -0.00914
   2        2S         -0.05375
   3        3S         -0.00728
   4        4S         -0.59770
   5        5S         -0.28229
   6        6PX         0.00579
   7        6PY         0.00572
   8        6PZ        -0.00002
   9        7PX        -1.14252
  10        7PY        -1.12081
  11        7PZ         0.00955
  12        8PX       -12.51989
  13        8PY       -12.26570
  14        8PZ         0.01396
  15        9PX        -5.66997
  16        9PY        -5.55406
  17        9PZ        -0.02125
  18       10D 0        0.00063
  19       10D+1        0.00173
  20       10D-1        0.00168
  21       10D+2       -0.01592
  22       10D-2       -0.01620
  23       11D 0        0.00974
  24       11D+1        0.15153
  25       11D-1        0.14858
  26       11D+2       -0.31562
  27       11D-2       -0.32264
  28       12D 0       -0.14817
  29       12D+1        0.92087
  30       12D-1        0.90426
  31       12D+2        0.39597
  32       12D-2        0.39874
  33       13F 0       -0.00079
  34       13F+1       -0.02678
  35       13F-1       -0.02622
  36       13F+2       -0.00633
  37       13F-2       -0.00649
  38       13F+3       -0.00070
  39       13F-3        0.00080
  40       14F 0        0.00162
  41       14F+1        0.29323
  42       14F-1        0.28743
  43       14F+2        0.05532
  44       14F-2        0.05667
  45       14F+3        0.00337
  46       14F-3       -0.01821
  47 2   H  1S          0.01972
  48        2S         -1.59056
  49        3S        -18.33650
  50        4S         -7.84301
  51        5PX        -0.03582
  52        5PY         0.08204
  53        5PZ         0.00741
  54        6PX         0.35203
  55        6PY        -0.94127
  56        6PZ        -0.11961
  57        7PX         2.43740
  58        7PY        -5.22211
  59        7PZ        -0.58200
  60        8D 0        0.01275
  61        8D+1       -0.00422
  62        8D-1        0.01039
  63        8D+2        0.02957
  64        8D-2       -0.02098
  65        9D 0        0.19567
  66        9D+1        0.06512
  67        9D-1       -0.19453
  68        9D+2        0.18999
  69        9D-2        0.39529
  70 3   H  1S          0.00724
  71        2S         -0.57713
  72        3S         -6.96593
  73        4S         -2.99308
  74        5PX         0.00328
  75        5PY        -0.05745
  76        5PZ         0.00260
  77        6PX        -0.06415
  78        6PY         0.59031
  79        6PZ        -0.04362
  80        7PX        -0.07234
  81        7PY         3.81813
  82        7PZ        -0.23300
  83        8D 0        0.00409
  84        8D+1        0.00104
  85        8D-1       -0.00654
  86        8D+2       -0.02891
  87        8D-2       -0.00419
  88        9D 0        0.07850
  89        9D+1       -0.02242
  90        9D-1        0.11228
  91        9D+2        0.42794
  92        9D-2        0.32540
  93 4   H  1S         -0.02836
  94        2S          2.32776
  95        3S         25.67411
  96        4S         10.92290
  97        5PX         0.10403
  98        5PY         0.04552
  99        5PZ        -0.01155
 100        6PX        -1.22058
 101        6PY        -0.56438
 102        6PZ         0.17798
 103        7PX        -6.79475
 104        7PY        -2.93272
 105        7PZ         0.78880
 106        8D 0       -0.02062
 107        8D+1        0.01257
 108        8D-1        0.00539
 109        8D+2        0.01477
 110        8D-2        0.04076
 111        9D 0       -0.25492
 112        9D+1       -0.24312
 113        9D-1       -0.11344
 114        9D+2        0.26002
 115        9D-2        0.17476
 116 5   Cl 1S         -0.00025
 117        2S         -0.00399
 118        3S         -0.01030
 119        4S          0.00154
 120        5S          0.06358
 121        6S          0.15974
 122        7PX         0.00211
 123        7PY         0.00207
 124        7PZ         0.00036
 125        8PX         0.04172
 126        8PY         0.04099
 127        8PZ         0.00418
 128        9PX        -0.00711
 129        9PY        -0.00699
 130        9PZ        -0.00133
 131       10PX        -0.29696
 132       10PY        -0.29220
 133       10PZ        -0.07381
 134       11PX         0.18141
 135       11PY         0.17731
 136       11PZ        -0.04330
 137       12D 0        0.00019
 138       12D+1        0.00256
 139       12D-1        0.00250
 140       12D+2       -0.00835
 141       12D-2       -0.00854
 142       13D 0        0.00019
 143       13D+1       -0.01801
 144       13D-1       -0.01761
 145       13D+2        0.03024
 146       13D-2        0.03090
 147       14D 0        0.01630
 148       14D+1        0.22699
 149       14D-1        0.22292
 150       14D+2       -0.14026
 151       14D-2       -0.14286
 152       15F 0       -0.00016
 153       15F+1        0.01276
 154       15F-1        0.01251
 155       15F+2       -0.00739
 156       15F-2       -0.00749
 157       15F+3       -0.00017
 158       15F-3       -0.00018
 159       16F 0       -0.00027
 160       16F+1       -0.04321
 161       16F-1       -0.04240
 162       16F+2        0.02978
 163       16F-2        0.03024
 164       16F+3        0.00028
 165       16F-3        0.00031
 166 6   F  1S         -0.00038
 167        2S         -0.00175
 168        3S          0.00023
 169        4S          0.01115
 170        5S          0.08213
 171        6PX        -0.00120
 172        6PY        -0.00118
 173        6PZ        -0.00008
 174        7PX         0.00429
 175        7PY         0.00420
 176        7PZ         0.00013
 177        8PX        -0.00010
 178        8PY        -0.00011
 179        8PZ         0.00749
 180        9PX         0.16617
 181        9PY         0.16241
 182        9PZ         0.03478
 183       10D 0        0.00000
 184       10D+1       -0.00149
 185       10D-1       -0.00147
 186       10D+2       -0.00198
 187       10D-2       -0.00202
 188       11D 0        0.00022
 189       11D+1        0.00246
 190       11D-1        0.00243
 191       11D+2        0.00701
 192       11D-2        0.00715
 193       12D 0        0.00015
 194       12D+1        0.02373
 195       12D-1        0.02322
 196       12D+2       -0.01322
 197       12D-2       -0.01345
 198       13F 0        0.00021
 199       13F+1       -0.00573
 200       13F-1       -0.00563
 201       13F+2       -0.00178
 202       13F-2       -0.00182
 203       13F+3       -0.00005
 204       13F-3        0.00030
 205       14F 0       -0.00031
 206       14F+1        0.01277
 207       14F-1        0.01254
 208       14F+2        0.00438
 209       14F-2        0.00446
 210       14F+3        0.00007
 211       14F-3       -0.00053
          Condensed to atoms (all electrons):
              1          2          3          4          5          6
     1  C    7.011363  -0.009217  -0.003234  -0.014893  -0.050810  -0.099796
     2  H   -0.009217   0.547020   0.020122   0.019987  -0.018745   0.004339
     3  H   -0.003234   0.020122   0.547218   0.020116  -0.018763   0.003457
     4  H   -0.014893   0.019987   0.020116   0.546929  -0.018780   0.005159
     5  Cl  -0.050810  -0.018745  -0.018763  -0.018780  17.709183   0.026397
     6  F   -0.099796   0.004339   0.003457   0.005159   0.026397   9.907605
 Mulliken atomic charges:
              1
     1  C   -0.833414
     2  H    0.436493
     3  H    0.431083
     4  H    0.441481
     5  Cl  -0.628483
     6  F   -0.847160
 Sum of Mulliken atomic charges =  -1.00000
 Mulliken charges with hydrogens summed into heavy atoms:
              1
     1  C    0.475644
     5  Cl  -0.628483
     6  F   -0.847160
 Sum of Mulliken charges with hydrogens summed into heavy atoms =  -1.00000
 Electronic spatial extent (au):  <R**2>=            490.3169
 Charge=             -1.0000 electrons
 Dipole moment (field-independent basis, Debye):
    X=              0.0052    Y=              0.0006    Z=              4.0663  Tot=              4.0663
 Quadrupole moment (field-independent basis, Debye-Ang):
   XX=            -28.1814   YY=            -28.1816   ZZ=            -62.8204
   XY=              0.0156   XZ=             -0.0187   YZ=             -0.0144
 Traceless Quadrupole moment (field-independent basis, Debye-Ang):
   XX=             11.5464   YY=             11.5462   ZZ=            -23.0926
   XY=              0.0156   XZ=             -0.0187   YZ=             -0.0144
 Octapole moment (field-independent basis, Debye-Ang**2):
  XXX=             -0.1592  YYY=             -0.9748  ZZZ=             49.6886  XYY=             -0.0536
  XXY=              0.9406  XXZ=             -4.2361  XZZ=             -0.0932  YZZ=              0.0111
  YYZ=             -4.2353  XYZ=             -0.0079
 Hexadecapole moment (field-independent basis, Debye-Ang**3):
 XXXX=            -41.2720 YYYY=            -41.2692 ZZZZ=           -761.6442 XXXY=              0.0253
 XXXZ=             -0.0058 YYYX=              0.0457 YYYZ=              0.5144 ZZZX=             -0.0690
 ZZZY=             -0.1891 XXYY=            -13.7570 XXZZ=           -103.3858 YYZZ=           -103.3868
 XXYZ=             -0.6773 YYXZ=             -0.0016 ZZXY=              0.0150
 N-N= 8.498405033007D+01 E-N=-1.604179980024D+03  KE= 5.991956542703D+02
 1\1\GINC-TRAPISTA\SP\RQCISD-FC\Aug-CC-pVTZ\C1H3Cl1F1(1-)\BRUNS\23-Aug-
 2020\0\\# QCISD aug-cc-pvtz nosymm density=current output=wfn\\clch3f_
 ts-wavefunction\\-1,1\C,0,0.010175,0.000029,-0.497709\H,0,0.000019,-1.
 05257,-0.620726\H,0,-0.911312,0.526365,-0.621245\H,0,0.91175,0.526132,
 -0.62157\Cl,0,0.000555,0.000962,1.644718\F,0,-0.000186,-0.000921,-2.59
 3468\\Version=EM64L-G09RevB.01\HF=-598.616988\MP2=-599.291137\MP3=-599
 .3098379\MP4D=-599.3247291\MP4DQ=-599.3102895\MP4SDQ=-599.3196564\QCIS
 D=-599.3190388\RMSD=9.416e-09\Dipole=0.0057773,0.0006775,1.587333\Quad
 rupole=8.5844718,8.5843255,-17.1687974,0.0115783,-0.0139036,-0.0106847
 \PG=C01 [X(C1H3Cl1F1)]\\@

 Writing a WFN file to GAUSSIAN.wfn.


 IT MATTERS NOT HOW DEEP YOU PLOW,
 BUT HOW LONG YOU STAY IN THE FURROW.
 Job cpu time:  0 days  3 hours 21 minutes 15.5 seconds.
 File lengths (MBytes):  RWF=  29002 Int=      0 D2E=      0 Chk=      4 Scr=      1
 Normal termination of Gaussian 09 at Sun Aug 23 18:47:34 2020.
