 clch3f_ts-wavefunction
GAUSSIAN            211 MOL ORBITALS    339 PRIMITIVES        6 NUCLEI
  C    1    (CENTRE  1)   0.00033070  0.00005480 -0.94053370  CHARGE =  6.0
  H    2    (CENTRE  2)   0.00003590 -1.98906904 -1.17300214  CHARGE =  1.0
  H    3    (CENTRE  3)  -1.72213010  0.99468570 -1.17398291  CHARGE =  1.0
  H    4    (CENTRE  4)   1.72295780  0.99424539 -1.19349433  CHARGE =  1.0
  Cl   5    (CENTRE  5)   0.00104880  0.00181792  3.10806659  CHARGE = 17.0
  F    6    (CENTRE  6)  -0.00035149 -0.00174044 -4.90094425  CHARGE =  9.0
CENTRE ASSIGNMENTS    1  1  1  1  1  1  1  1  1  1  1  1  1  1  1  1  1  1  1  1
CENTRE ASSIGNMENTS    1  1  1  1  1  1  1  1  1  1  1  1  1  1  1  1  1  1  1  1
CENTRE ASSIGNMENTS    1  1  1  1  1  1  1  1  1  1  1  1  1  1  1  1  1  1  1  1
CENTRE ASSIGNMENTS    1  1  1  1  1  1  1  1  1  1  1  1  2  2  2  2  2  2  2  2
CENTRE ASSIGNMENTS    2  2  2  2  2  2  2  2  2  2  2  2  2  2  2  2  2  2  2  3
CENTRE ASSIGNMENTS    3  3  3  3  3  3  3  3  3  3  3  3  3  3  3  3  3  3  3  3
CENTRE ASSIGNMENTS    3  3  3  3  3  3  4  4  4  4  4  4  4  4  4  4  4  4  4  4
CENTRE ASSIGNMENTS    4  4  4  4  4  4  4  4  4  4  4  4  4  5  5  5  5  5  5  5
CENTRE ASSIGNMENTS    5  5  5  5  5  5  5  5  5  5  5  5  5  5  5  5  5  5  5  5
CENTRE ASSIGNMENTS    5  5  5  5  5  5  5  5  5  5  5  5  5  5  5  5  5  5  5  5
CENTRE ASSIGNMENTS    5  5  5  5  5  5  5  5  5  5  5  5  5  5  5  5  5  5  5  5
CENTRE ASSIGNMENTS    5  5  5  5  5  5  5  5  5  5  5  5  5  5  5  5  5  5  5  5
CENTRE ASSIGNMENTS    5  5  5  5  5  5  5  5  5  5  5  5  5  5  5  5  5  5  5  5
CENTRE ASSIGNMENTS    5  5  5  5  5  5  5  6  6  6  6  6  6  6  6  6  6  6  6  6
CENTRE ASSIGNMENTS    6  6  6  6  6  6  6  6  6  6  6  6  6  6  6  6  6  6  6  6
CENTRE ASSIGNMENTS    6  6  6  6  6  6  6  6  6  6  6  6  6  6  6  6  6  6  6  6
CENTRE ASSIGNMENTS    6  6  6  6  6  6  6  6  6  6  6  6  6  6  6  6  6  6  6
TYPE ASSIGNMENTS      1  1  1  1  1  1  1  1  1  1  1  1  1  1  1  1  2  2  2  3
TYPE ASSIGNMENTS      3  3  4  4  4  2  3  4  2  3  4  2  3  4  5  6  7  8  9 10
TYPE ASSIGNMENTS      5  6  7  8  9 10  5  6  7  8  9 10 11 12 13 17 14 15 18 19
TYPE ASSIGNMENTS     16 20 11 12 13 17 14 15 18 19 16 20  1  1  1  1  1  1  2  3
TYPE ASSIGNMENTS      4  2  3  4  2  3  4  5  6  7  8  9 10  5  6  7  8  9 10  1
TYPE ASSIGNMENTS      1  1  1  1  1  2  3  4  2  3  4  2  3  4  5  6  7  8  9 10
TYPE ASSIGNMENTS      5  6  7  8  9 10  1  1  1  1  1  1  2  3  4  2  3  4  2  3
TYPE ASSIGNMENTS      4  5  6  7  8  9 10  5  6  7  8  9 10  1  1  1  1  1  1  1
TYPE ASSIGNMENTS      1  1  1  1  1  1  1  1  1  1  1  1  1  1  1  1  1  1  1  1
TYPE ASSIGNMENTS      1  1  1  1  2  2  2  2  2  2  3  3  3  3  3  3  4  4  4  4
TYPE ASSIGNMENTS      4  4  2  2  2  2  2  2  3  3  3  3  3  3  4  4  4  4  4  4
TYPE ASSIGNMENTS      2  3  4  2  3  4  2  3  4  5  6  7  8  9 10  5  6  7  8  9
TYPE ASSIGNMENTS     10  5  6  7  8  9 10 11 12 13 17 14 15 18 19 16 20 11 12 13
TYPE ASSIGNMENTS     17 14 15 18 19 16 20  1  1  1  1  1  1  1  1  1  1  1  1  1
TYPE ASSIGNMENTS      1  1  1  2  2  2  3  3  3  4  4  4  2  3  4  2  3  4  2  3
TYPE ASSIGNMENTS      4  5  6  7  8  9 10  5  6  7  8  9 10  5  6  7  8  9 10 11
TYPE ASSIGNMENTS     12 13 17 14 15 18 19 16 20 11 12 13 17 14 15 18 19 16 20
EXPONENTS  0.8236000D+04 0.1235000D+04 0.2808000D+03 0.7927000D+02 0.2559000D+02
EXPONENTS  0.8997000D+01 0.3319000D+01 0.2808000D+03 0.7927000D+02 0.2559000D+02
EXPONENTS  0.8997000D+01 0.3319000D+01 0.3643000D+00 0.9059000D+00 0.1285000D+00
EXPONENTS  0.4402000D-01 0.1871000D+02 0.4133000D+01 0.1200000D+01 0.1871000D+02
EXPONENTS  0.4133000D+01 0.1200000D+01 0.1871000D+02 0.4133000D+01 0.1200000D+01
EXPONENTS  0.3827000D+00 0.3827000D+00 0.3827000D+00 0.1209000D+00 0.1209000D+00
EXPONENTS  0.1209000D+00 0.3569000D-01 0.3569000D-01 0.3569000D-01 0.1097000D+01
EXPONENTS  0.1097000D+01 0.1097000D+01 0.1097000D+01 0.1097000D+01 0.1097000D+01
EXPONENTS  0.3180000D+00 0.3180000D+00 0.3180000D+00 0.3180000D+00 0.3180000D+00
EXPONENTS  0.3180000D+00 0.1000000D+00 0.1000000D+00 0.1000000D+00 0.1000000D+00
EXPONENTS  0.1000000D+00 0.1000000D+00 0.7610000D+00 0.7610000D+00 0.7610000D+00
EXPONENTS  0.7610000D+00 0.7610000D+00 0.7610000D+00 0.7610000D+00 0.7610000D+00
EXPONENTS  0.7610000D+00 0.7610000D+00 0.2680000D+00 0.2680000D+00 0.2680000D+00
EXPONENTS  0.2680000D+00 0.2680000D+00 0.2680000D+00 0.2680000D+00 0.2680000D+00
EXPONENTS  0.2680000D+00 0.2680000D+00 0.3387000D+02 0.5095000D+01 0.1159000D+01
EXPONENTS  0.3258000D+00 0.1027000D+00 0.2526000D-01 0.1407000D+01 0.1407000D+01
EXPONENTS  0.1407000D+01 0.3880000D+00 0.3880000D+00 0.3880000D+00 0.1020000D+00
EXPONENTS  0.1020000D+00 0.1020000D+00 0.1057000D+01 0.1057000D+01 0.1057000D+01
EXPONENTS  0.1057000D+01 0.1057000D+01 0.1057000D+01 0.2470000D+00 0.2470000D+00
EXPONENTS  0.2470000D+00 0.2470000D+00 0.2470000D+00 0.2470000D+00 0.3387000D+02
EXPONENTS  0.5095000D+01 0.1159000D+01 0.3258000D+00 0.1027000D+00 0.2526000D-01
EXPONENTS  0.1407000D+01 0.1407000D+01 0.1407000D+01 0.3880000D+00 0.3880000D+00
EXPONENTS  0.3880000D+00 0.1020000D+00 0.1020000D+00 0.1020000D+00 0.1057000D+01
EXPONENTS  0.1057000D+01 0.1057000D+01 0.1057000D+01 0.1057000D+01 0.1057000D+01
EXPONENTS  0.2470000D+00 0.2470000D+00 0.2470000D+00 0.2470000D+00 0.2470000D+00
EXPONENTS  0.2470000D+00 0.3387000D+02 0.5095000D+01 0.1159000D+01 0.3258000D+00
EXPONENTS  0.1027000D+00 0.2526000D-01 0.1407000D+01 0.1407000D+01 0.1407000D+01
EXPONENTS  0.3880000D+00 0.3880000D+00 0.3880000D+00 0.1020000D+00 0.1020000D+00
EXPONENTS  0.1020000D+00 0.1057000D+01 0.1057000D+01 0.1057000D+01 0.1057000D+01
EXPONENTS  0.1057000D+01 0.1057000D+01 0.2470000D+00 0.2470000D+00 0.2470000D+00
EXPONENTS  0.2470000D+00 0.2470000D+00 0.2470000D+00 0.4561000D+06 0.6833000D+05
EXPONENTS  0.1555000D+05 0.4405000D+04 0.1439000D+04 0.5204000D+03 0.2031000D+03
EXPONENTS  0.8396000D+02 0.3620000D+02 0.1583000D+02 0.6334000D+01 0.4405000D+04
EXPONENTS  0.1439000D+04 0.5204000D+03 0.2031000D+03 0.8396000D+02 0.3620000D+02
EXPONENTS  0.1583000D+02 0.6334000D+01 0.2694000D+01 0.1439000D+04 0.2031000D+03
EXPONENTS  0.8396000D+02 0.3620000D+02 0.1583000D+02 0.6334000D+01 0.2694000D+01
EXPONENTS  0.4313000D+00 0.9768000D+00 0.1625000D+00 0.5910000D-01 0.6633000D+03
EXPONENTS  0.1568000D+03 0.4998000D+02 0.1842000D+02 0.7240000D+01 0.2922000D+01
EXPONENTS  0.6633000D+03 0.1568000D+03 0.4998000D+02 0.1842000D+02 0.7240000D+01
EXPONENTS  0.2922000D+01 0.6633000D+03 0.1568000D+03 0.4998000D+02 0.1842000D+02
EXPONENTS  0.7240000D+01 0.2922000D+01 0.1568000D+03 0.4998000D+02 0.1842000D+02
EXPONENTS  0.7240000D+01 0.2922000D+01 0.3818000D+00 0.1568000D+03 0.4998000D+02
EXPONENTS  0.1842000D+02 0.7240000D+01 0.2922000D+01 0.3818000D+00 0.1568000D+03
EXPONENTS  0.4998000D+02 0.1842000D+02 0.7240000D+01 0.2922000D+01 0.3818000D+00
EXPONENTS  0.1022000D+01 0.1022000D+01 0.1022000D+01 0.1301000D+00 0.1301000D+00
EXPONENTS  0.1301000D+00 0.4190000D-01 0.4190000D-01 0.4190000D-01 0.1046000D+01
EXPONENTS  0.1046000D+01 0.1046000D+01 0.1046000D+01 0.1046000D+01 0.1046000D+01
EXPONENTS  0.3440000D+00 0.3440000D+00 0.3440000D+00 0.3440000D+00 0.3440000D+00
EXPONENTS  0.3440000D+00 0.1350000D+00 0.1350000D+00 0.1350000D+00 0.1350000D+00
EXPONENTS  0.1350000D+00 0.1350000D+00 0.7060000D+00 0.7060000D+00 0.7060000D+00
EXPONENTS  0.7060000D+00 0.7060000D+00 0.7060000D+00 0.7060000D+00 0.7060000D+00
EXPONENTS  0.7060000D+00 0.7060000D+00 0.3120000D+00 0.3120000D+00 0.3120000D+00
EXPONENTS  0.3120000D+00 0.3120000D+00 0.3120000D+00 0.3120000D+00 0.3120000D+00
EXPONENTS  0.3120000D+00 0.3120000D+00 0.1950000D+05 0.2923000D+04 0.6645000D+03
EXPONENTS  0.1875000D+03 0.6062000D+02 0.2142000D+02 0.7950000D+01 0.6645000D+03
EXPONENTS  0.1875000D+03 0.6062000D+02 0.2142000D+02 0.7950000D+01 0.8815000D+00
EXPONENTS  0.2257000D+01 0.3041000D+00 0.9158000D-01 0.4388000D+02 0.9926000D+01
EXPONENTS  0.2930000D+01 0.4388000D+02 0.9926000D+01 0.2930000D+01 0.4388000D+02
EXPONENTS  0.9926000D+01 0.2930000D+01 0.9132000D+00 0.9132000D+00 0.9132000D+00
EXPONENTS  0.2672000D+00 0.2672000D+00 0.2672000D+00 0.7361000D-01 0.7361000D-01
EXPONENTS  0.7361000D-01 0.3107000D+01 0.3107000D+01 0.3107000D+01 0.3107000D+01
EXPONENTS  0.3107000D+01 0.3107000D+01 0.8550000D+00 0.8550000D+00 0.8550000D+00
EXPONENTS  0.8550000D+00 0.8550000D+00 0.8550000D+00 0.2920000D+00 0.2920000D+00
EXPONENTS  0.2920000D+00 0.2920000D+00 0.2920000D+00 0.2920000D+00 0.1917000D+01
EXPONENTS  0.1917000D+01 0.1917000D+01 0.1917000D+01 0.1917000D+01 0.1917000D+01
EXPONENTS  0.1917000D+01 0.1917000D+01 0.1917000D+01 0.1917000D+01 0.7240000D+00
EXPONENTS  0.7240000D+00 0.7240000D+00 0.7240000D+00 0.7240000D+00 0.7240000D+00
EXPONENTS  0.7240000D+00 0.7240000D+00 0.7240000D+00 0.7240000D+00
MO    1     MO 0.0        OCC NO =    2.0000300  ORB. ENERGY =    0.000000
 -0.37870403D-07 -0.70598061D-07 -0.11932034D-06 -0.17936073D-06 -0.22031253D-06
 -0.18593600D-06 -0.69916792D-07 -0.13690602D-11 -0.10232877D-10 -0.38242597D-10
 -0.10669089D-09 -0.14293638D-09  0.16878121D-09 -0.46082496D-08  0.16291964D-07
 -0.67072473D-08 -0.55881322D-04 -0.52392291D-04 -0.37306433D-04  0.96766926D-04
  0.90725144D-04  0.64601707D-04 -0.26458405D-07 -0.24806437D-07 -0.17663661D-07
 -0.18032079D-03  0.31224972D-03 -0.11117165D-06 -0.23077982D-03  0.39962447D-03
 -0.12058690D-06 -0.47109060D-05  0.81570324D-05 -0.26031800D-08  0.56277776D-04
 -0.56428747D-04  0.15097186D-06 -0.64976652D-04  0.25491581D-03 -0.44134997D-03
  0.16597292D-03 -0.16594395D-03 -0.28965711D-07 -0.19187919D-03 -0.49397101D-04
  0.85765519D-04  0.35053079D-04 -0.35070956D-04  0.17877310D-07 -0.40508602D-04
  0.33168727D-04 -0.57387303D-04 -0.46377880D-04  0.80529365D-04  0.10412154D-06
 -0.46911604D-04  0.80540926D-04  0.20868263D-04  0.18604524D-03 -0.32212902D-03
 -0.21180628D-04 -0.23990438D-04  0.13597525D-04 -0.23412545D-04 -0.29092324D-07
  0.13238791D-04 -0.23380791D-04  0.44537585D-04 -0.54031365D-04  0.93618427D-04
 -0.44450308D-04 -0.51524183D-04 -0.34766359D-04 -0.62702560D-04 -0.92454888D-04
  0.31315374D-03  0.96751248D-03 -0.10331770D-04 -0.27770071D-05  0.61962336D-04
  0.20506623D-04 -0.39971292D-04  0.24814585D-03  0.23547376D-03 -0.36917456D-04
  0.14854154D-03  0.18936010D-04 -0.95604296D-04  0.36986777D-04  0.58617518D-04
 -0.14040366D-04  0.23518480D-04  0.25793061D-03 -0.37688154D-04 -0.10560828D-04
  0.48248982D-04 -0.14028480D-04 -0.31001913D-04  0.27178725D-04  0.34774570D-04
  0.62717369D-04  0.92476723D-04 -0.31324486D-03 -0.96777548D-03  0.10334462D-04
 -0.52274521D-04  0.33395124D-04 -0.20548196D-04 -0.19487941D-03  0.15862840D-03
 -0.23566441D-03 -0.11019893D-03  0.10625738D-03 -0.19023595D-04  0.23350657D-05
  0.56420573D-04 -0.58755639D-04  0.12175150D-03 -0.23518110D-03  0.10862361D-03
  0.23426752D-04  0.24857168D-04 -0.48283920D-04  0.30493519D-04 -0.80163363D-05
  0.40355770D-04 -0.10148205D-07 -0.18302706D-07 -0.26987329D-07  0.82549455D-07
  0.25142868D-06 -0.18592964D-08 -0.31079772D-05  0.53497017D-05  0.32549612D-08
 -0.40307943D-04  0.69698913D-04  0.37377064D-07 -0.36897889D-04  0.63852521D-04
 -0.17000374D-07  0.13269972D-04 -0.13298422D-04  0.28449819D-07 -0.15287547D-04
  0.21404758D-04 -0.37195198D-04  0.11978749D-04 -0.11973529D-04 -0.52193841D-08
 -0.13850569D-04 -0.31684744D-04  0.54894374D-04  0.17245084D-06  0.32263711D-06
  0.55744537D-06  0.90368444D-06  0.13723315D-05  0.19074117D-05  0.22677664D-05
  0.20202051D-05  0.10032766D-05  0.16151904D-06  0.17041213D-08  0.80680734D-09
  0.26913742D-07  0.93789003D-07  0.33774939D-06  0.74452649D-06  0.10480530D-05
 -0.49995544D-07 -0.13715594D-05 -0.81099446D-06  0.18965541D-10  0.22971902D-09
  0.47905480D-09  0.13738458D-08  0.71341898D-10 -0.59246892D-08 -0.15308259D-07
  0.12472449D-07 -0.48429882D-07 -0.18550144D-08  0.10887481D-08 -0.58064137D+01
 -0.76484051D+01 -0.84373881D+01 -0.70079115D+01 -0.37213954D+01 -0.96013948D+00
  0.10054632D+02  0.13244302D+02  0.14610538D+02  0.12135196D+02  0.64441259D+01
  0.16626182D+01 -0.33466999D-02 -0.44083867D-02 -0.48631406D-02 -0.40392190D-02
 -0.21449374D-02 -0.55340506D-03  0.22986589D-03 -0.22221955D-02 -0.31335276D-02
 -0.44817734D-02  0.22695070D-04  0.41102089D-02 -0.39804537D-03  0.38480465D-02
  0.54261473D-02  0.77608260D-02 -0.39299730D-04 -0.71174094D-02  0.13283134D-06
 -0.12841279D-05 -0.18107544D-05 -0.25898578D-05  0.13114675D-07  0.23751438D-05
 -0.38330128D-01  0.66374069D-01 -0.22098510D-04  0.32176456D-03 -0.55718189D-03
  0.18772778D-06  0.28962187D-04 -0.50152131D-04  0.16511835D-07  0.10175016D-04
 -0.10458932D-04  0.28391566D-06 -0.11599679D-04  0.49211290D-03 -0.85214597D-03
 -0.38258771D-05  0.39306289D-05 -0.10475177D-06  0.43643614D-05 -0.17848165D-03
  0.30905849D-03  0.10352950D-05 -0.10525643D-05  0.17269285D-07 -0.11860867D-05
  0.30692230D-04 -0.53146242D-04 -0.10774759D-05  0.20918580D-05  0.30566828D-08
 -0.16338006D-05  0.21111007D-05  0.30027216D-04  0.48662284D-05 -0.83866749D-05
 -0.30036386D-04 -0.34706929D-04 -0.74050068D-05  0.12722208D-04  0.17199848D-07
 -0.71663955D-05  0.12718496D-04 -0.59570155D-05  0.29381416D-04 -0.50885120D-04
  0.59054159D-05  0.69048993D-05 -0.17807126D-07 -0.33192514D-07 -0.56268706D-07
 -0.85198431D-07 -0.10651680D-06 -0.91623552D-07 -0.35139604D-07  0.38549529D-10
  0.51032358D-09  0.18535881D-08  0.54986342D-08  0.63360653D-08 -0.76960950D-08
 -0.65614704D-09  0.12694685D-07  0.12956417D-07  0.14548477D-03  0.14228093D-03
  0.94011024D-04 -0.25192826D-03 -0.24638034D-03 -0.16279391D-03  0.95236546D-07
  0.93139262D-07  0.61541048D-07  0.44242306D-05 -0.76704624D-05 -0.37255183D-08
  0.33396200D-04 -0.57823223D-04  0.34666583D-07  0.98087769D-05 -0.16985050D-04
  0.74294751D-08  0.61199854D-04 -0.61233381D-04  0.33526787D-07 -0.70719106D-04
  0.65566985D-04 -0.11345050D-03 -0.30716998D-04  0.30745361D-04 -0.28363165D-07
  0.35488647D-04 -0.50616264D-04  0.87603555D-04  0.15582086D-04 -0.15607267D-04
  0.25181190D-07 -0.18000305D-04  0.36966668D-04 -0.63985060D-04  0.36291988D-04
 -0.61835584D-04 -0.90506256D-07  0.34172207D-04 -0.61946373D-04 -0.16290558D-03
 -0.14304817D-03  0.24745312D-03  0.16317710D-03  0.18821111D-03 -0.12863119D-04
  0.21972479D-04  0.32950938D-07 -0.12233749D-04  0.22007546D-04  0.51743917D-04
  0.50823104D-04 -0.87924984D-04 -0.51842770D-04 -0.59779093D-04
MO    2     MO 0.0        OCC NO =    2.0000300  ORB. ENERGY =    0.000000
  0.55434506D-04  0.10334109D-03  0.17466051D-03  0.26254733D-03  0.32249237D-03
  0.27217218D-03  0.10234385D-03 -0.16261889D-07 -0.12154754D-06 -0.45425093D-06
 -0.12672894D-05 -0.16978183D-05  0.20048069D-05  0.84666725D-05 -0.32180747D-04
 -0.10951449D-05  0.93356357D-04  0.87527519D-04  0.62324807D-04  0.53914278D-04
  0.50548063D-04  0.35993232D-04  0.61526547D-05  0.57685048D-05  0.41075191D-05
  0.31075314D-03  0.17945535D-03  0.82279624D-06  0.39815511D-03  0.22992477D-03
 -0.69668128D-05  0.81758034D-05  0.47210725D-05 -0.40451461D-07  0.32380009D-04
 -0.33233807D-04  0.85379825D-06  0.11323104D-03 -0.44255168D-03 -0.25552429D-03
  0.94738115D-04 -0.96586750D-04  0.18486350D-05  0.33107052D-03  0.78528718D-04
  0.45481952D-04  0.20197227D-04 -0.20250496D-04  0.53269306D-07  0.69940084D-04
 -0.58501341D-04 -0.33755405D-04  0.80189397D-04  0.46502448D-04  0.16095711D-05
  0.80204721D-04  0.45712425D-04  0.89765709D-05 -0.32077291D-03 -0.18521977D-03
 -0.13805284D-04  0.38875369D-04 -0.23026689D-04 -0.12291025D-04 -0.66905143D-06
 -0.22994096D-04 -0.16327663D-04  0.25576486D-04  0.92074163D-04  0.53200737D-04
 -0.23569332D-04  0.85178470D-04 -0.20062830D-04 -0.36184141D-04 -0.53353494D-04
  0.19298960D-03  0.56250167D-03 -0.58320965D-05  0.43746609D-05  0.36304504D-04
  0.12339364D-04  0.70048364D-04  0.14524989D-03  0.13397649D-03  0.63820856D-04
  0.86438937D-04  0.10854102D-04 -0.55617533D-04  0.21195561D-04  0.34421972D-04
  0.25352925D-04 -0.42044537D-04  0.14816423D-03 -0.21768449D-04 -0.62071039D-05
  0.27975553D-04  0.24303963D-04  0.52870303D-04  0.15184199D-04 -0.20047260D-04
 -0.36156059D-04 -0.53312088D-04  0.19285171D-03  0.56206046D-03 -0.58264285D-05
  0.33598383D-04 -0.14353389D-04  0.12349384D-04  0.16069080D-03 -0.11858689D-04
  0.13391811D-03  0.10671781D-03  0.12078681D-04  0.10868187D-04  0.12929474D-04
 -0.47411936D-04  0.34482462D-04 -0.53738059D-04  0.10716362D-03 -0.11040681D-03
  0.42515918D-06 -0.28371392D-04  0.27946233D-04 -0.13160378D-05  0.39575884D-04
  0.38259021D-04  0.41168376D-04  0.74248861D-04  0.10947990D-03 -0.34721809D-03
 -0.11106975D-02  0.11822203D-04  0.58949074D-04  0.34018627D-04 -0.21780901D-04
  0.24541024D-03  0.14157818D-03 -0.26398723D-03  0.14784146D-03  0.85345370D-04
 -0.21343036D-04 -0.48774999D-05  0.71355511D-04 -0.66478011D-04 -0.13180741D-03
  0.25654843D-03  0.14794601D-03  0.19705508D-04  0.35301349D-04 -0.55006858D-04
 -0.26992345D-04  0.26517184D-04  0.15255662D-04 -0.58915214D-05 -0.11022408D-04
 -0.19044276D-04 -0.30873009D-04 -0.46883627D-04 -0.65163830D-04 -0.77474801D-04
 -0.69017244D-04 -0.34275423D-04 -0.55180531D-05 -0.58218720D-07 -0.24388918D-07
 -0.81357347D-06 -0.28351407D-05 -0.10209801D-04 -0.22506235D-04 -0.31681515D-04
  0.15113115D-05  0.41460764D-04  0.24515490D-04 -0.42668639D-08 -0.51682142D-07
 -0.10777766D-06 -0.30908756D-06 -0.16050487D-07  0.13329355D-05  0.34440492D-05
 -0.28060492D-05  0.67029638D-06  0.60115677D-05 -0.17883998D-06  0.10054605D+02
  0.13244266D+02  0.14610499D+02  0.12135163D+02  0.64441085D+01  0.16626137D+01
  0.58064052D+01  0.76483939D+01  0.84373757D+01  0.70079012D+01  0.37213900D+01
  0.96013807D+00  0.21456109D-01  0.28262714D-01  0.31178198D-01  0.25895935D-01
  0.13751460D-01  0.35479485D-02 -0.39792928D-03  0.38469243D-02  0.54245648D-02
  0.77585626D-02 -0.39288269D-04 -0.71153337D-02 -0.22979905D-03  0.22215494D-02
  0.31326166D-02  0.44804704D-02 -0.22688471D-04 -0.41090139D-02 -0.10783402D-05
  0.10424699D-04  0.14699914D-04  0.21024765D-04 -0.10646645D-06 -0.19281692D-04
  0.66373849D-01  0.38330046D-01  0.14767064D-03 -0.55721627D-03 -0.32178632D-03
 -0.31130149D-05 -0.50151769D-04 -0.28961963D-04 -0.17222844D-07  0.81868076D-05
 -0.49787138D-05 -0.32080939D-05  0.22214642D-04 -0.84974161D-03 -0.49070662D-03
 -0.30428272D-05  0.11891618D-05  0.18536653D-05 -0.71171811D-05  0.30771692D-03
  0.17769985D-03  0.50495182D-06 -0.70020701D-06  0.19525519D-06  0.20494520D-05
 -0.52921743D-04 -0.30560405D-04  0.18026579D-05  0.85187352D-06  0.10207291D-06
  0.18214095D-05  0.15964945D-05  0.16823154D-04 -0.72293832D-05 -0.41521151D-05
 -0.17129373D-04  0.58729151D-04  0.12677531D-04  0.73774728D-05 -0.26442198D-06
  0.12673821D-04  0.71544653D-05 -0.30449580D-05 -0.50706414D-04 -0.29286884D-04
  0.38382240D-05 -0.11992824D-04 -0.30011875D-05 -0.55942187D-05 -0.94834470D-05
 -0.14359221D-04 -0.17952189D-04 -0.15442102D-04 -0.59223785D-05 -0.37498287D-08
 -0.49640711D-07 -0.18030409D-06 -0.53486870D-06 -0.61632814D-06  0.74862233D-06
 -0.20009048D-06 -0.12748580D-05  0.10039296D-05 -0.25311945D-03 -0.24754530D-03
 -0.16356364D-03 -0.14616774D-03 -0.14294886D-03 -0.94452357D-04  0.16062126D-04
  0.15708409D-04  0.10379210D-04 -0.87030902D-05 -0.50303474D-05  0.27761406D-05
 -0.57185729D-04 -0.33019848D-04  0.22563893D-06 -0.16905804D-04 -0.97626386D-05
  0.25721591D-06  0.35791275D-04 -0.36597140D-04  0.80586564D-06  0.12516147D-03
 -0.11310698D-03 -0.65264598D-04 -0.17896294D-04  0.18377723D-04 -0.48142912D-06
 -0.62696417D-04  0.87439664D-04  0.50467661D-04  0.92494097D-05 -0.90574402D-05
 -0.19196956D-06  0.31627016D-04 -0.63563146D-04 -0.36690710D-04 -0.61974833D-04
 -0.35377414D-04  0.73023359D-06 -0.62099045D-04 -0.36952727D-04 -0.95215053D-04
  0.24802354D-03  0.14308497D-03  0.93024352D-04 -0.32522373D-03  0.21992268D-04
  0.12567302D-04 -0.36771891D-06  0.22031525D-04  0.13075083D-04  0.30443074D-04
 -0.88008328D-04 -0.50776989D-04 -0.29339917D-04  0.10327090D-03
MO    3     MO 0.0        OCC NO =    2.0000210  ORB. ENERGY =    0.000000
 -0.14485211D-01 -0.27003352D-01 -0.45639344D-01 -0.68604446D-01 -0.84268274D-01
 -0.71119450D-01 -0.26742771D-01 -0.38082762D-05 -0.28464505D-04 -0.10637835D-03
 -0.29677905D-03 -0.39760210D-03  0.46949394D-03 -0.87544224D-03 -0.19261058D-02
 -0.81512458D-04  0.23462476D-05  0.21997563D-05  0.15663575D-05  0.17384861D-05
  0.16299412D-05  0.11606152D-05  0.11621757D-02  0.10896136D-02  0.77586981D-03
  0.11219157D-05  0.85103853D-06  0.60602245D-03  0.26782337D-05  0.14138026D-05
 -0.37571904D-03  0.44291122D-07  0.27158637D-07  0.46974852D-05 -0.10563588D-03
 -0.10508882D-03  0.21072470D-03 -0.94936829D-06  0.14425721D-05  0.10393687D-05
 -0.23292459D-04 -0.23982118D-04  0.47274577D-04  0.11978907D-05  0.26352467D-05
  0.15721821D-05  0.11545965D-04  0.11213123D-04 -0.22759089D-04  0.57843386D-06
  0.44755815D-06  0.23513735D-06 -0.79828761D-07  0.35980836D-04  0.69012599D-05
 -0.24589682D-07 -0.10811071D-03 -0.97500443D-05  0.26407597D-06  0.16820691D-06
 -0.10953735D-04  0.19592917D-05  0.14514008D-06  0.51663803D-04 -0.85293570D-04
  0.22353693D-06 -0.15443901D-03  0.12827416D-03 -0.65895717D-06 -0.55240283D-06
  0.12760655D-03  0.97491483D-06 -0.49522471D-05 -0.89315816D-05 -0.13169612D-04
  0.75037550D-03  0.23859128D-03  0.51366898D-05  0.28085793D-06  0.95519040D-04
  0.28263393D-04  0.17759784D-06  0.19888262D-03 -0.35787015D-05  0.61565639D-06
  0.44371827D-04  0.38835698D-04 -0.73601448D-04  0.54189648D-04  0.19411800D-04
  0.44073881D-06  0.65381868D-06  0.76008402D-04 -0.95348375D-05 -0.12014757D-04
  0.21549595D-04  0.20229530D-06 -0.87087512D-07 -0.34376886D-04 -0.49521461D-05
 -0.89313994D-05 -0.13169343D-04  0.75037856D-03  0.23861314D-03  0.51368758D-05
  0.82843999D-04 -0.47523917D-04  0.28311650D-04  0.17230162D-03 -0.99336338D-04
 -0.34867166D-05  0.38720491D-04 -0.21646014D-04  0.38858458D-04  0.22384467D-04
 -0.41836210D-04  0.19451743D-04 -0.11044114D-03  0.66194751D-04 -0.37425167D-04
 -0.11298268D-04 -0.10234128D-04  0.21532396D-04  0.22290494D-05 -0.29831507D-04
  0.17154079D-04 -0.51794435D-05 -0.93413397D-05 -0.13773800D-04  0.74668286D-03
  0.22721469D-03  0.48433374D-05 -0.81060836D-04 -0.46778073D-04  0.25694665D-04
 -0.17296497D-03 -0.99835839D-04  0.51686249D-06 -0.37105288D-04 -0.21405454D-04
  0.38041432D-04  0.23419740D-04 -0.40091437D-04  0.16671697D-04  0.10989933D-03
 -0.66488331D-04 -0.38319612D-04 -0.11343753D-04 -0.10346848D-04  0.21690601D-04
 -0.17044344D-05  0.29777282D-04  0.17208491D-04 -0.15469663D+00 -0.28942089D+00
 -0.50005511D+00 -0.81064809D+00 -0.12310469D+01 -0.17110394D+01 -0.20342947D+01
 -0.18122204D+01 -0.89998698D+00 -0.14489029D+00 -0.15286781D-02 -0.72327991D-03
 -0.24127407D-01 -0.84079183D-01 -0.30278275D+00 -0.66744690D+00 -0.93954982D+00
  0.44819588D-01  0.12295641D+01  0.72703355D+00 -0.15539068D-04 -0.18821606D-03
 -0.39250474D-03 -0.11256353D-02 -0.58452672D-04  0.48542852D-02  0.12542541D-01
 -0.10219072D-01  0.46627298D-01 -0.38865684D-03 -0.13196146D-03 -0.10546192D-01
 -0.13891802D-01 -0.15324833D-01 -0.12728473D-01 -0.67591725D-02 -0.17439018D-02
 -0.41051553D-02 -0.54074498D-02 -0.59652636D-02 -0.49546185D-02 -0.26310399D-02
 -0.67882204D-03  0.59312638D+01  0.78128619D+01  0.86188097D+01  0.71585963D+01
  0.38014133D+01  0.98078449D+00  0.31347245D-06 -0.30304499D-05 -0.42732507D-05
 -0.61118789D-05  0.30949695D-07  0.56051694D-05  0.11067124D-06 -0.10698983D-05
 -0.15086683D-05 -0.21577948D-05  0.10926769D-07  0.19789013D-05 -0.21030672D-03
  0.20331100D-02  0.28668974D-02  0.41004216D-02 -0.20763958D-04 -0.37604734D-02
 -0.72304451D-04 -0.27841661D-04  0.41581097D-01  0.51971757D-06  0.13956340D-06
 -0.48246365D-03  0.62093751D-07  0.32484749D-07 -0.98117809D-05 -0.78718708D-05
 -0.82260965D-05  0.16097967D-04  0.61213227D-06 -0.16398276D-05 -0.92902162D-06
 -0.11094486D-03 -0.11079922D-03  0.22174408D-03 -0.25198492D-06  0.24618152D-06
  0.36225972D-06 -0.14243890D-04 -0.14312206D-04  0.28556096D-04  0.11828775D-06
 -0.16178100D-06 -0.65170861D-07  0.15792571D-06 -0.69832337D-05  0.55411743D-05
  0.14740620D-06  0.21297772D-04 -0.81448455D-05 -0.62118334D-06 -0.34807072D-06
 -0.84786773D-05  0.60275565D-06 -0.47921329D-07  0.19889813D-05 -0.33631994D-04
 -0.44940867D-07 -0.60094297D-05  0.50404759D-04  0.18870485D-06  0.42485692D-07
  0.50491223D-04 -0.15694753D-06 -0.88200314D-03 -0.16440554D-02 -0.27870401D-02
 -0.42199557D-02 -0.52758740D-02 -0.45381977D-02 -0.17404965D-02 -0.68493753D-06
 -0.90672904D-05 -0.32934048D-04 -0.97698234D-04 -0.11257748D-03  0.13674212D-03
 -0.96101793D-04 -0.15848679D-03  0.12583180D-04 -0.31341505D-06 -0.30651307D-06
 -0.20252615D-06  0.12131738D-05  0.11864574D-05  0.78394260D-06  0.38933073D-02
  0.38075695D-02  0.25158222D-02  0.30356998D-06  0.49285778D-06  0.87779353D-03
 -0.15935681D-06 -0.86216281D-07  0.21660632D-04  0.80824726D-07  0.50141812D-07
  0.93313273D-05 -0.35484079D-04 -0.35028825D-04  0.70512903D-04 -0.78379061D-06
 -0.32946785D-06 -0.11510829D-06  0.20995258D-04  0.20740775D-04 -0.41736033D-04
  0.43885510D-06  0.26880895D-06  0.11159958D-06  0.17985318D-04  0.18137947D-04
 -0.36123264D-04 -0.26426220D-06 -0.19858301D-06 -0.15571518D-06 -0.24575339D-06
 -0.34521967D-05  0.45958409D-04 -0.24941257D-06  0.96723253D-05 -0.67936027D-04
  0.98667274D-06  0.68426478D-06 -0.69939200D-04  0.34974835D-05  0.69915578D-07
  0.10870032D-05 -0.25165213D-04  0.71068535D-07 -0.30391082D-05  0.37434057D-04
 -0.28081527D-06 -0.22190139D-06  0.38061583D-04 -0.10957286D-05
MO    4     MO 0.0        OCC NO =    2.0000123  ORB. ENERGY =    0.000000
  0.26515983D-01  0.49431135D-01  0.83545353D-01  0.12558425D+00  0.15425775D+00
  0.13018810D+00  0.48954126D-01 -0.14858106D-05 -0.11105514D-04 -0.41503842D-04
 -0.11578926D-03 -0.15512568D-03  0.18317450D-03  0.26194992D-02 -0.35981412D-02
 -0.40456406D-04  0.12216666D-04  0.11453901D-04  0.81558599D-05  0.82800627D-05
  0.77630851D-05  0.55277790D-05  0.36691425D-02  0.34400544D-02  0.24495236D-02
 -0.41354095D-06  0.19505703D-06  0.13074288D-02  0.47835755D-05  0.26154155D-05
 -0.41254332D-03  0.11121498D-06  0.65310814D-07  0.37545452D-05 -0.32224232D-03
 -0.32001285D-03  0.64225517D-03 -0.38648592D-05  0.38376692D-06  0.86233037D-06
  0.11865625D-04  0.11237241D-04 -0.23102865D-04  0.10977352D-05  0.76119602D-05
  0.43705281D-05 -0.17886471D-04 -0.18458308D-04  0.36344780D-04  0.99152055D-06
  0.86126639D-06  0.53484908D-06 -0.32297192D-06 -0.42289516D-04  0.21399908D-04
 -0.38555143D-06  0.12603970D-03 -0.31134695D-04  0.13544672D-05  0.82884623D-06
 -0.33065029D-04  0.34944540D-05  0.30027994D-06  0.81127513D-04 -0.16392578D-03
  0.42385972D-06 -0.24229003D-03  0.24687068D-03 -0.13246995D-05 -0.10925071D-05
  0.24490665D-03  0.31187163D-05 -0.90664405D-04 -0.16351699D-03 -0.24110570D-03
  0.10144646D-02  0.69036748D-03  0.44192407D-05  0.81312187D-06 -0.58136874D-04
  0.33348718D-04  0.13369504D-06  0.30319758D-03 -0.42435343D-04  0.98841536D-06
  0.11179132D-03  0.76346663D-04 -0.14237364D-03  0.24758705D-04  0.11761493D-03
  0.14602695D-05  0.10135053D-05  0.14333335D-03 -0.14136459D-04 -0.20963218D-04
  0.35099677D-04  0.24654459D-06  0.27152941D-06 -0.62438283D-04 -0.90663984D-04
 -0.16351623D-03 -0.24110458D-03  0.10144757D-02  0.69038378D-03  0.44203486D-05
 -0.49939510D-04  0.29800399D-04  0.33324814D-04  0.26261780D-03 -0.15157537D-03
 -0.42286880D-04  0.97274141D-04 -0.55028230D-04  0.76403510D-04 -0.16468871D-04
 -0.10122655D-03  0.11769542D-03 -0.14397372D-03  0.12461473D-03 -0.70645499D-04
 -0.19132759D-04 -0.15934882D-04  0.35067641D-04  0.60010824D-05 -0.53962377D-04
  0.31519695D-04 -0.90310664D-04 -0.16287900D-03 -0.24016499D-03  0.10157976D-02
  0.67004487D-03  0.37489784D-05  0.52479332D-04  0.30299323D-04  0.25145734D-04
 -0.26799579D-03 -0.15470144D-03 -0.43038673D-04 -0.94547603D-04 -0.54547258D-04
  0.75213013D-04 -0.12345030D-04 -0.96175038D-04  0.10852007D-03  0.14503816D-03
 -0.11655666D-03 -0.67111953D-04 -0.18638620D-04 -0.15934553D-04  0.34573173D-04
 -0.46427163D-05  0.55043509D-04  0.31802714D-04  0.91169474D-01  0.17056836D+00
  0.29470429D+00  0.47775028D+00  0.72550964D+00  0.10083901D+01  0.11988986D+01
  0.10680205D+01  0.53040159D+00  0.85390168D-01  0.90091671D-03  0.42684892D-03
  0.14238966D-01  0.49619944D-01  0.17868945D+00  0.39389866D+00  0.55448219D+00
 -0.26450607D-01 -0.72563623D+00 -0.42906416D+00  0.62620678D-05  0.75848933D-04
  0.15817495D-03  0.45361823D-03  0.23555763D-04 -0.19562218D-02 -0.50545014D-02
  0.41181698D-02 -0.28502623D-01  0.14121761D-02 -0.18273423D-03 -0.17309560D-01
 -0.22800739D-01 -0.25152784D-01 -0.20891357D-01 -0.11093890D-01 -0.28622817D-02
 -0.67001107D-02 -0.88256132D-02 -0.97360329D-02 -0.80865376D-02 -0.42941759D-02
 -0.11079198D-02  0.99211111D+01  0.13068424D+02  0.14416518D+02  0.11974047D+02
  0.63585510D+01  0.16405394D+01  0.40489506D-06 -0.39142649D-05 -0.55195221D-05
 -0.78943768D-05  0.39976013D-07  0.72398881D-05  0.12206468D-06 -0.11800428D-05
 -0.16639836D-05 -0.23799367D-05  0.12051664D-07  0.21826264D-05 -0.33676502D-03
  0.32556276D-02  0.45907747D-02  0.65660223D-02 -0.33249413D-04 -0.60216617D-02
 -0.12214684D-03 -0.46417909D-04  0.72612163D-01  0.79313775D-06  0.35529239D-06
 -0.30451041D-03  0.96503110D-07  0.54263091D-07 -0.38862909D-05  0.45544450D-03
  0.45480682D-03 -0.91025132D-03  0.11039748D-05  0.10979221D-06 -0.83921097D-06
 -0.31005097D-03 -0.30969057D-03  0.61974154D-03 -0.62400107D-06  0.30873037D-06
  0.79357725D-06  0.44461136D-05  0.43169349D-05 -0.87630485D-05  0.22353086D-06
 -0.38579955D-06 -0.23060842D-06  0.39481201D-06 -0.14029515D-04 -0.46837692D-04
  0.37353334D-06  0.43080708D-04  0.70558208D-04 -0.15579694D-05 -0.99216201D-06
  0.69954867D-04  0.10913455D-05 -0.87235638D-07  0.40707710D-05 -0.62730963D-04
 -0.81073772D-07 -0.12285396D-04  0.94068370D-04  0.34278069D-06  0.73082904D-07
  0.94124518D-04 -0.11070482D-06 -0.63828502D-02 -0.11897644D-01 -0.20169157D-01