 clch3f_ts-wavefunction
GAUSSIAN            211 MOL ORBITALS    339 PRIMITIVES        6 NUCLEI
  C    1    (CENTRE  1)   0.00033070  0.00005480 -0.94053370  CHARGE =  6.0
  H    2    (CENTRE  2)   0.00003590 -1.98906904 -1.17300214  CHARGE =  1.0
  H    3    (CENTRE  3)  -1.72213010  0.97578843 -1.17398291  CHARGE =  1.0
  H    4    (CENTRE  4)   1.72295780  0.99424539 -1.17459707  CHARGE =  1.0
  Cl   5    (CENTRE  5)   0.00104880  0.00181792  3.10806659  CHARGE = 17.0
  F    6    (CENTRE  6)  -0.00035149 -0.00174044 -4.90094425  CHARGE =  9.0
CENTRE ASSIGNMENTS    1  1  1  1  1  1  1  1  1  1  1  1  1  1  1  1  1  1  1  1
CENTRE ASSIGNMENTS    1  1  1  1  1  1  1  1  1  1  1  1  1  1  1  1  1  1  1  1
CENTRE ASSIGNMENTS    1  1  1  1  1  1  1  1  1  1  1  1  1  1  1  1  1  1  1  1
CENTRE ASSIGNMENTS    1  1  1  1  1  1  1  1  1  1  1  1  2  2  2  2  2  2  2  2
CENTRE ASSIGNMENTS    2  2  2  2  2  2  2  2  2  2  2  2  2  2  2  2  2  2  2  3
CENTRE ASSIGNMENTS    3  3  3  3  3  3  3  3  3  3  3  3  3  3  3  3  3  3  3  3
CENTRE ASSIGNMENTS    3  3  3  3  3  3  4  4  4  4  4  4  4  4  4  4  4  4  4  4
CENTRE ASSIGNMENTS    4  4  4  4  4  4  4  4  4  4  4  4  4  5  5  5  5  5  5  5
CENTRE ASSIGNMENTS    5  5  5  5  5  5  5  5  5  5  5  5  5  5  5  5  5  5  5  5
CENTRE ASSIGNMENTS    5  5  5  5  5  5  5  5  5  5  5  5  5  5  5  5  5  5  5  5
CENTRE ASSIGNMENTS    5  5  5  5  5  5  5  5  5  5  5  5  5  5  5  5  5  5  5  5
CENTRE ASSIGNMENTS    5  5  5  5  5  5  5  5  5  5  5  5  5  5  5  5  5  5  5  5
CENTRE ASSIGNMENTS    5  5  5  5  5  5  5  5  5  5  5  5  5  5  5  5  5  5  5  5
CENTRE ASSIGNMENTS    5  5  5  5  5  5  5  6  6  6  6  6  6  6  6  6  6  6  6  6
CENTRE ASSIGNMENTS    6  6  6  6  6  6  6  6  6  6  6  6  6  6  6  6  6  6  6  6
CENTRE ASSIGNMENTS    6  6  6  6  6  6  6  6  6  6  6  6  6  6  6  6  6  6  6  6
CENTRE ASSIGNMENTS    6  6  6  6  6  6  6  6  6  6  6  6  6  6  6  6  6  6  6
TYPE ASSIGNMENTS      1  1  1  1  1  1  1  1  1  1  1  1  1  1  1  1  2  2  2  3
TYPE ASSIGNMENTS      3  3  4  4  4  2  3  4  2  3  4  2  3  4  5  6  7  8  9 10
TYPE ASSIGNMENTS      5  6  7  8  9 10  5  6  7  8  9 10 11 12 13 17 14 15 18 19
TYPE ASSIGNMENTS     16 20 11 12 13 17 14 15 18 19 16 20  1  1  1  1  1  1  2  3
TYPE ASSIGNMENTS      4  2  3  4  2  3  4  5  6  7  8  9 10  5  6  7  8  9 10  1
TYPE ASSIGNMENTS      1  1  1  1  1  2  3  4  2  3  4  2  3  4  5  6  7  8  9 10
TYPE ASSIGNMENTS      5  6  7  8  9 10  1  1  1  1  1  1  2  3  4  2  3  4  2  3
TYPE ASSIGNMENTS      4  5  6  7  8  9 10  5  6  7  8  9 10  1  1  1  1  1  1  1
TYPE ASSIGNMENTS      1  1  1  1  1  1  1  1  1  1  1  1  1  1  1  1  1  1  1  1
TYPE ASSIGNMENTS      1  1  1  1  2  2  2  2  2  2  3  3  3  3  3  3  4  4  4  4
TYPE ASSIGNMENTS      4  4  2  2  2  2  2  2  3  3  3  3  3  3  4  4  4  4  4  4
TYPE ASSIGNMENTS      2  3  4  2  3  4  2  3  4  5  6  7  8  9 10  5  6  7  8  9
TYPE ASSIGNMENTS     10  5  6  7  8  9 10 11 12 13 17 14 15 18 19 16 20 11 12 13
TYPE ASSIGNMENTS     17 14 15 18 19 16 20  1  1  1  1  1  1  1  1  1  1  1  1  1
TYPE ASSIGNMENTS      1  1  1  2  2  2  3  3  3  4  4  4  2  3  4  2  3  4  2  3
TYPE ASSIGNMENTS      4  5  6  7  8  9 10  5  6  7  8  9 10  5  6  7  8  9 10 11
TYPE ASSIGNMENTS     12 13 17 14 15 18 19 16 20 11 12 13 17 14 15 18 19 16 20
EXPONENTS  0.8236000D+04 0.1235000D+04 0.2808000D+03 0.7927000D+02 0.2559000D+02
EXPONENTS  0.8997000D+01 0.3319000D+01 0.2808000D+03 0.7927000D+02 0.2559000D+02
EXPONENTS  0.8997000D+01 0.3319000D+01 0.3643000D+00 0.9059000D+00 0.1285000D+00
EXPONENTS  0.4402000D-01 0.1871000D+02 0.4133000D+01 0.1200000D+01 0.1871000D+02
EXPONENTS  0.4133000D+01 0.1200000D+01 0.1871000D+02 0.4133000D+01 0.1200000D+01
EXPONENTS  0.3827000D+00 0.3827000D+00 0.3827000D+00 0.1209000D+00 0.1209000D+00
EXPONENTS  0.1209000D+00 0.3569000D-01 0.3569000D-01 0.3569000D-01 0.1097000D+01
EXPONENTS  0.1097000D+01 0.1097000D+01 0.1097000D+01 0.1097000D+01 0.1097000D+01
EXPONENTS  0.3180000D+00 0.3180000D+00 0.3180000D+00 0.3180000D+00 0.3180000D+00
EXPONENTS  0.3180000D+00 0.1000000D+00 0.1000000D+00 0.1000000D+00 0.1000000D+00
EXPONENTS  0.1000000D+00 0.1000000D+00 0.7610000D+00 0.7610000D+00 0.7610000D+00
EXPONENTS  0.7610000D+00 0.7610000D+00 0.7610000D+00 0.7610000D+00 0.7610000D+00
EXPONENTS  0.7610000D+00 0.7610000D+00 0.2680000D+00 0.2680000D+00 0.2680000D+00
EXPONENTS  0.2680000D+00 0.2680000D+00 0.2680000D+00 0.2680000D+00 0.2680000D+00
EXPONENTS  0.2680000D+00 0.2680000D+00 0.3387000D+02 0.5095000D+01 0.1159000D+01
EXPONENTS  0.3258000D+00 0.1027000D+00 0.2526000D-01 0.1407000D+01 0.1407000D+01
EXPONENTS  0.1407000D+01 0.3880000D+00 0.3880000D+00 0.3880000D+00 0.1020000D+00
EXPONENTS  0.1020000D+00 0.1020000D+00 0.1057000D+01 0.1057000D+01 0.1057000D+01
EXPONENTS  0.1057000D+01 0.1057000D+01 0.1057000D+01 0.2470000D+00 0.2470000D+00
EXPONENTS  0.2470000D+00 0.2470000D+00 0.2470000D+00 0.2470000D+00 0.3387000D+02
EXPONENTS  0.5095000D+01 0.1159000D+01 0.3258000D+00 0.1027000D+00 0.2526000D-01
EXPONENTS  0.1407000D+01 0.1407000D+01 0.1407000D+01 0.3880000D+00 0.3880000D+00
EXPONENTS  0.3880000D+00 0.1020000D+00 0.1020000D+00 0.1020000D+00 0.1057000D+01
EXPONENTS  0.1057000D+01 0.1057000D+01 0.1057000D+01 0.1057000D+01 0.1057000D+01
EXPONENTS  0.2470000D+00 0.2470000D+00 0.2470000D+00 0.2470000D+00 0.2470000D+00
EXPONENTS  0.2470000D+00 0.3387000D+02 0.5095000D+01 0.1159000D+01 0.3258000D+00
EXPONENTS  0.1027000D+00 0.2526000D-01 0.1407000D+01 0.1407000D+01 0.1407000D+01
EXPONENTS  0.3880000D+00 0.3880000D+00 0.3880000D+00 0.1020000D+00 0.1020000D+00
EXPONENTS  0.1020000D+00 0.1057000D+01 0.1057000D+01 0.1057000D+01 0.1057000D+01
EXPONENTS  0.1057000D+01 0.1057000D+01 0.2470000D+00 0.2470000D+00 0.2470000D+00
EXPONENTS  0.2470000D+00 0.2470000D+00 0.2470000D+00 0.4561000D+06 0.6833000D+05
EXPONENTS  0.1555000D+05 0.4405000D+04 0.1439000D+04 0.5204000D+03 0.2031000D+03
EXPONENTS  0.8396000D+02 0.3620000D+02 0.1583000D+02 0.6334000D+01 0.4405000D+04
EXPONENTS  0.1439000D+04 0.5204000D+03 0.2031000D+03 0.8396000D+02 0.3620000D+02
EXPONENTS  0.1583000D+02 0.6334000D+01 0.2694000D+01 0.1439000D+04 0.2031000D+03
EXPONENTS  0.8396000D+02 0.3620000D+02 0.1583000D+02 0.6334000D+01 0.2694000D+01
EXPONENTS  0.4313000D+00 0.9768000D+00 0.1625000D+00 0.5910000D-01 0.6633000D+03
EXPONENTS  0.1568000D+03 0.4998000D+02 0.1842000D+02 0.7240000D+01 0.2922000D+01
EXPONENTS  0.6633000D+03 0.1568000D+03 0.4998000D+02 0.1842000D+02 0.7240000D+01
EXPONENTS  0.2922000D+01 0.6633000D+03 0.1568000D+03 0.4998000D+02 0.1842000D+02
EXPONENTS  0.7240000D+01 0.2922000D+01 0.1568000D+03 0.4998000D+02 0.1842000D+02
EXPONENTS  0.7240000D+01 0.2922000D+01 0.3818000D+00 0.1568000D+03 0.4998000D+02
EXPONENTS  0.1842000D+02 0.7240000D+01 0.2922000D+01 0.3818000D+00 0.1568000D+03
EXPONENTS  0.4998000D+02 0.1842000D+02 0.7240000D+01 0.2922000D+01 0.3818000D+00
EXPONENTS  0.1022000D+01 0.1022000D+01 0.1022000D+01 0.1301000D+00 0.1301000D+00
EXPONENTS  0.1301000D+00 0.4190000D-01 0.4190000D-01 0.4190000D-01 0.1046000D+01
EXPONENTS  0.1046000D+01 0.1046000D+01 0.1046000D+01 0.1046000D+01 0.1046000D+01
EXPONENTS  0.3440000D+00 0.3440000D+00 0.3440000D+00 0.3440000D+00 0.3440000D+00
EXPONENTS  0.3440000D+00 0.1350000D+00 0.1350000D+00 0.1350000D+00 0.1350000D+00
EXPONENTS  0.1350000D+00 0.1350000D+00 0.7060000D+00 0.7060000D+00 0.7060000D+00
EXPONENTS  0.7060000D+00 0.7060000D+00 0.7060000D+00 0.7060000D+00 0.7060000D+00
EXPONENTS  0.7060000D+00 0.7060000D+00 0.3120000D+00 0.3120000D+00 0.3120000D+00
EXPONENTS  0.3120000D+00 0.3120000D+00 0.3120000D+00 0.3120000D+00 0.3120000D+00
EXPONENTS  0.3120000D+00 0.3120000D+00 0.1950000D+05 0.2923000D+04 0.6645000D+03
EXPONENTS  0.1875000D+03 0.6062000D+02 0.2142000D+02 0.7950000D+01 0.6645000D+03
EXPONENTS  0.1875000D+03 0.6062000D+02 0.2142000D+02 0.7950000D+01 0.8815000D+00
EXPONENTS  0.2257000D+01 0.3041000D+00 0.9158000D-01 0.4388000D+02 0.9926000D+01
EXPONENTS  0.2930000D+01 0.4388000D+02 0.9926000D+01 0.2930000D+01 0.4388000D+02
EXPONENTS  0.9926000D+01 0.2930000D+01 0.9132000D+00 0.9132000D+00 0.9132000D+00
EXPONENTS  0.2672000D+00 0.2672000D+00 0.2672000D+00 0.7361000D-01 0.7361000D-01
EXPONENTS  0.7361000D-01 0.3107000D+01 0.3107000D+01 0.3107000D+01 0.3107000D+01
EXPONENTS  0.3107000D+01 0.3107000D+01 0.8550000D+00 0.8550000D+00 0.8550000D+00
EXPONENTS  0.8550000D+00 0.8550000D+00 0.8550000D+00 0.2920000D+00 0.2920000D+00
EXPONENTS  0.2920000D+00 0.2920000D+00 0.2920000D+00 0.2920000D+00 0.1917000D+01
EXPONENTS  0.1917000D+01 0.1917000D+01 0.1917000D+01 0.1917000D+01 0.1917000D+01
EXPONENTS  0.1917000D+01 0.1917000D+01 0.1917000D+01 0.1917000D+01 0.7240000D+00
EXPONENTS  0.7240000D+00 0.7240000D+00 0.7240000D+00 0.7240000D+00 0.7240000D+00
EXPONENTS  0.7240000D+00 0.7240000D+00 0.7240000D+00 0.7240000D+00
MO    1     MO 0.0        OCC NO =    2.0000300  ORB. ENERGY =    0.000000
  0.87769305D-05  0.16361967D-04  0.27653953D-04  0.41569049D-04  0.51060131D-04
  0.43092949D-04  0.16204074D-04 -0.13040252D-07 -0.97467807D-07 -0.36425945D-06
 -0.10162271D-05 -0.13614642D-05  0.16076354D-05  0.36091310D-05 -0.15161965D-04
 -0.51402985D-06 -0.30726372D-05 -0.28807927D-05 -0.20512960D-05  0.11083289D-03
  0.10391288D-03  0.73992159D-04 -0.42347160D-06 -0.39703154D-06 -0.28271011D-06
 -0.10223528D-04  0.36134338D-03  0.10837784D-05 -0.11909629D-04  0.46233401D-03
  0.34787087D-06 -0.30195270D-06  0.94587792D-05  0.24215531D-08  0.65387922D-04
 -0.64222406D-04 -0.11655157D-05 -0.30424349D-05  0.12228905D-04 -0.50867338D-03
  0.19289683D-03 -0.19564705D-03  0.27502242D-05 -0.62936535D-05 -0.35434819D-05
  0.98676809D-04  0.41388231D-04 -0.40661083D-04 -0.72714766D-06 -0.11424111D-05
  0.14927628D-05 -0.65909178D-04 -0.31185915D-05  0.92387010D-04 -0.16731095D-06
  0.60473087D-06  0.92562842D-04  0.26318726D-04  0.87510437D-05 -0.36972387D-03
 -0.25816793D-04 -0.38463737D-05  0.13270419D-06 -0.25506263D-04 -0.12466821D-06
  0.20093246D-05 -0.30220218D-04  0.50991458D-04 -0.24074372D-05  0.10673901D-03
 -0.50617454D-04 -0.16204620D-05 -0.39931642D-04 -0.72018361D-04 -0.10619103D-03
  0.37595728D-03  0.11255942D-02 -0.11889614D-04 -0.23820254D-06  0.71669703D-04
  0.23809149D-04 -0.28663606D-05  0.28935026D-03  0.27281931D-03 -0.12983350D-05
  0.17299139D-03  0.22146528D-04 -0.11028324D-03  0.42262402D-04  0.68020837D-04
 -0.11420602D-05  0.13778491D-05  0.29838564D-03 -0.43968322D-04 -0.12215774D-04
  0.56184095D-04 -0.67229131D-06 -0.11238152D-05  0.31297095D-04  0.20630721D-04
  0.37208355D-04  0.54863698D-04 -0.18273457D-03 -0.58548159D-03  0.61252153D-05
 -0.30331745D-04  0.21324791D-04 -0.12635906D-04 -0.91918932D-04  0.13691179D-03
 -0.14266399D-03 -0.45050252D-04  0.99918222D-04 -0.12033855D-04  0.93674377D-05
  0.26277660D-04 -0.35645098D-04  0.80064972D-04 -0.15536077D-03  0.41358064D-04
  0.20639612D-04  0.72886818D-05 -0.27928294D-04  0.26246213D-04  0.11931764D-04
  0.54062931D-04  0.19330301D-04  0.34862993D-04  0.51405463D-04 -0.16694753D-03
 -0.53862539D-03  0.58241710D-05  0.27153772D-04  0.20850045D-04 -0.11075601D-04
  0.83637318D-04  0.12855640D-03 -0.12992931D-03  0.38195311D-04  0.97488640D-04
 -0.10923291D-04  0.82454334D-05  0.24232832D-04 -0.32478265D-04 -0.75222027D-04
  0.14404942D-03  0.35320514D-04  0.20102759D-04  0.57303124D-05 -0.25833071D-04
 -0.25142592D-04 -0.13758103D-04  0.53817388D-04 -0.46372286D-05 -0.86757599D-05
 -0.14989789D-04 -0.24300209D-04 -0.36902199D-04 -0.51290585D-04 -0.60980575D-04
 -0.54323615D-04 -0.26978256D-04 -0.43432710D-05 -0.45824074D-07 -0.20732687D-07
 -0.69160773D-06 -0.24101145D-05 -0.86792124D-05 -0.19132244D-04 -0.26932024D-04
  0.12847453D-05  0.35245231D-04  0.20840284D-04 -0.22896332D-08 -0.27733050D-07
 -0.57834351D-07 -0.16585885D-06 -0.86128191D-08  0.71526380D-06  0.18481043D-05
 -0.15057484D-05  0.15690518D-05  0.35238454D-05  0.70686500D-06 -0.29384973D+00
 -0.38706883D+00 -0.42699751D+00 -0.35465486D+00 -0.18833157D+00 -0.48590531D-01
  0.11607031D+02  0.15289175D+02  0.16866353D+02  0.14008827D+02  0.74390757D+01
  0.19193204D+01 -0.46631307D-02 -0.61424340D-02 -0.67760662D-02 -0.56280536D-02
 -0.29886526D-02 -0.77108800D-03  0.11607661D-04 -0.11221540D-03 -0.15823543D-03
 -0.22631852D-03  0.11460451D-05  0.20755543D-03 -0.45937204D-03  0.44409134D-02
  0.62621514D-02  0.89565331D-02 -0.45354623D-04 -0.82139856D-02  0.13762503D-06
 -0.13304702D-05 -0.18761019D-05 -0.26833221D-05  0.13587965D-07  0.24608594D-05
 -0.19393515D-02  0.76626018D-01 -0.30078334D-04  0.16515379D-04 -0.64380721D-03
 -0.64209633D-06  0.14857871D-05 -0.57965102D-04 -0.21633395D-07  0.12416010D-04
 -0.13124518D-04  0.70850826D-06 -0.10731766D-05  0.24404441D-04 -0.98065667D-03
 -0.43603477D-05  0.46030575D-05 -0.24270971D-06  0.28210531D-06 -0.87176260D-05
  0.35583214D-03  0.12688733D-05 -0.13100116D-05  0.41138313D-07 -0.72927813D-07
  0.14113222D-05 -0.60855956D-04  0.38752131D-07  0.20398782D-05 -0.40821854D-07
 -0.69906491D-07  0.27301707D-05  0.35080230D-04 -0.46349901D-07 -0.88498053D-05
 -0.34957765D-04 -0.12355042D-05 -0.38743684D-06  0.14762527D-04  0.13942914D-06
 -0.37831614D-06  0.14536569D-04 -0.72971904D-05  0.15406266D-05 -0.58824150D-04
  0.68789030D-05  0.24346446D-06 -0.12376703D-05 -0.23070196D-05 -0.39109122D-05
 -0.59216500D-05 -0.74033668D-05 -0.63682230D-05 -0.24423506D-05  0.47802164D-08
  0.63281114D-07  0.22984852D-06  0.68184131D-06  0.78568439D-06 -0.95433071D-06
  0.26831087D-07  0.23552604D-05  0.13261194D-05  0.63216511D-05  0.61824367D-05
  0.40849973D-05 -0.29022255D-03 -0.28383131D-03 -0.18753935D-03  0.21741459D-05
  0.21262673D-05  0.14049147D-05  0.21239510D-08 -0.83689509D-05  0.96880581D-06
  0.14597147D-05 -0.66545044D-04  0.69141735D-06  0.50540130D-06 -0.19603942D-04
  0.14143941D-06  0.71138863D-04 -0.70691424D-04 -0.44743917D-06 -0.24806124D-05
  0.42732779D-05 -0.13340606D-03 -0.35762965D-04  0.35406199D-04  0.35676609D-06
  0.12660386D-05 -0.29361262D-05  0.10222382D-03  0.18185921D-04 -0.17910434D-04
 -0.27548690D-06 -0.69353095D-06  0.18023419D-05 -0.73949287D-04  0.15285454D-05
 -0.71361882D-04  0.11641547D-05  0.15148130D-05 -0.69919609D-04 -0.19091931D-03
 -0.61004493D-05  0.28400526D-03  0.18742685D-03  0.78552350D-05 -0.53258837D-06
  0.25311116D-04 -0.41714897D-06 -0.53198322D-06  0.24891518D-04  0.60706674D-04
  0.21297483D-05 -0.10082487D-03 -0.59455227D-04 -0.25240909D-05
MO    2     MO 0.0        OCC NO =    2.0000300  ORB. ENERGY =    0.000000
  0.13763302D-04  0.25657568D-04  0.43364785D-04  0.65185360D-04  0.80068539D-04
  0.67575022D-04  0.25409973D-04  0.32357816D-08  0.24185463D-07  0.90386597D-07
  0.25216453D-06  0.33783095D-06 -0.39891536D-06  0.17203201D-05 -0.22958943D-04
 -0.59087831D-06  0.11244507D-03  0.10542440D-03  0.75068451D-04  0.26096151D-05
  0.24466800D-05  0.17421819D-05 -0.29155551D-06 -0.27335182D-06 -0.19464278D-06
  0.37120163D-03  0.82408480D-05 -0.18568120D-05  0.46785483D-03  0.11628444D-04
  0.12682843D-05  0.91887396D-05  0.17012923D-06  0.12836741D-07  0.97571841D-06
 -0.46992938D-06 -0.50578904D-06  0.13010260D-03 -0.50870041D-03 -0.13499815D-04
  0.25764284D-05 -0.46550188D-05  0.20785904D-05  0.39192759D-03  0.98380337D-04
  0.14489747D-05  0.10815665D-05 -0.65954657D-06 -0.42201997D-06  0.82730767D-04
 -0.66585757D-04 -0.18576751D-05  0.94236965D-04  0.24690226D-05  0.40841857D-06
  0.90269096D-04  0.26388013D-05 -0.16657676D-05 -0.37297999D-03 -0.10045869D-04
  0.44051195D-06  0.48534254D-04 -0.26411259D-04  0.14819361D-06  0.80896394D-07
 -0.28658850D-04 -0.34635249D-05  0.83462884D-06  0.10789263D-03  0.30189440D-05
 -0.10773180D-05  0.10131698D-03 -0.89433563D-06 -0.16129711D-05 -0.23783250D-05
  0.17053798D-04  0.27840277D-04 -0.34339806D-06  0.40188527D-05  0.24914839D-05
  0.81207590D-06  0.87519879D-04  0.78870885D-05  0.62675081D-05  0.76545655D-04
  0.46127964D-05  0.20610964D-06 -0.29076413D-05  0.96318784D-06  0.19444534D-05
  0.33342638D-04 -0.46637299D-04  0.66478592D-05 -0.15004096D-05 -0.56237613D-06
  0.20627857D-05  0.29561329D-04  0.61830836D-04  0.68507921D-06 -0.33906980D-04
 -0.61152634D-04 -0.90169524D-04  0.33051342D-03  0.97665648D-03 -0.10462134D-04
  0.56330379D-04 -0.30002946D-04  0.22082792D-04  0.23947192D-03 -0.85388442D-04
  0.23485909D-03  0.15008294D-03 -0.38485977D-04  0.18874768D-04  0.10728528D-04
 -0.69757806D-04  0.59029277D-04 -0.10375181D-03  0.21130051D-03 -0.14715412D-03
 -0.10643795D-04 -0.37877489D-04  0.48521283D-04 -0.15605656D-04  0.39448041D-04
  0.15241272D-04  0.35316530D-04  0.63694816D-04  0.93917968D-04 -0.31935137D-03
 -0.99362328D-03  0.10904352D-04  0.56079851D-04  0.29911312D-04 -0.21057413D-04
  0.24022628D-03  0.94751278D-04 -0.23736394D-03  0.15011539D-03  0.44631457D-04
 -0.19597297D-04 -0.10210998D-04  0.69128990D-04 -0.58917993D-04 -0.11132570D-03
  0.21489278D-03  0.14967094D-03  0.11170982D-04  0.37156565D-04 -0.48327547D-04
 -0.17229841D-04  0.38523071D-04 -0.11814269D-04 -0.36939810D-04 -0.69110444D-04
 -0.11940752D-03 -0.19357362D-03 -0.29396011D-03 -0.40857690D-03 -0.48576662D-03
 -0.43273779D-03 -0.21490674D-03 -0.34598166D-04 -0.36503109D-06 -0.17289728D-06
 -0.57675637D-05 -0.20098805D-04 -0.72379051D-04 -0.15955061D-03 -0.22459576D-03
  0.10713950D-04  0.29392256D-03  0.17379457D-03 -0.44155743D-08 -0.53483388D-07
 -0.11153397D-06 -0.31986000D-06 -0.16609884D-07  0.13793914D-05  0.35640826D-05
 -0.29038467D-05  0.10939950D-04  0.77898677D-06  0.44130374D-06  0.11607014D+02
  0.15289153D+02  0.16866329D+02  0.14008807D+02  0.74390651D+01  0.19193177D+01
  0.29384480D+00  0.38706235D+00  0.42699036D+00  0.35464892D+00  0.18832842D+00
  0.48589717D-01 -0.47064959D-02 -0.61995562D-02 -0.68390809D-02 -0.56803922D-02
 -0.30164459D-02 -0.77825880D-03 -0.45941845D-03  0.44413619D-02  0.62627839D-02
  0.89574378D-02 -0.45359204D-04 -0.82148153D-02 -0.11652617D-04  0.11265000D-03
  0.15884826D-03  0.22719504D-03 -0.11504837D-05 -0.20835928D-03  0.17731869D-06
 -0.17142030D-05 -0.24172051D-05 -0.34572428D-05  0.17506991D-07  0.31706177D-05
  0.76630094D-01  0.19405297D-02 -0.31174014D-04 -0.64280584D-03 -0.16060285D-04
 -0.88396112D-07 -0.57881440D-04 -0.14470789D-05 -0.75568799D-08 -0.49830732D-06
 -0.29292819D-06  0.79123551D-06  0.24008459D-04 -0.98158830D-03 -0.25274182D-04
  0.15199541D-06  0.17513698D-06 -0.32713239D-06 -0.84497705D-05  0.35708275D-03
  0.93300436D-05 -0.67961139D-08 -0.20413029D-07  0.27209143D-07  0.24143719D-05
 -0.61275977D-04 -0.16792791D-05  0.24603025D-05  0.74823438D-07  0.62668465D-08
  0.25860429D-05  0.29441617D-06  0.58680927D-06 -0.99669504D-05 -0.51888649D-06
 -0.60560981D-06  0.69553128D-04  0.14685515D-04  0.37785464D-06  0.96403033D-07
  0.14685286D-04  0.30284402D-06 -0.26842855D-06 -0.58741831D-04 -0.14364079D-05
 -0.20780550D-07 -0.14161524D-04  0.63273783D-06  0.11794244D-05  0.19993871D-05
  0.30273425D-05  0.37848449D-05  0.32556453D-05  0.12486100D-05  0.38276827D-08
  0.50671352D-07  0.18404757D-06  0.54597365D-06  0.62912435D-06 -0.76416523D-06
  0.18497036D-06  0.16910076D-05  0.68860165D-06 -0.28972591D-03 -0.28334561D-03
 -0.18721842D-03 -0.83600156D-05 -0.81759127D-05 -0.54021712D-05 -0.12495912D-05
 -0.12220729D-05 -0.80747522D-06 -0.87986342D-05 -0.42785095D-06 -0.19018578D-06
 -0.66598236D-04 -0.19138308D-05  0.70513942D-06 -0.19481027D-04 -0.48455483D-06
  0.39427992D-07  0.13418171D-05 -0.11146149D-05 -0.22720218D-06  0.14160088D-03
 -0.13073167D-03 -0.24166247D-05 -0.68324061D-06  0.52683964D-06  0.15640097D-06
 -0.71052471D-04  0.10102913D-03  0.22121313D-05  0.28164848D-06 -0.27749331D-06
 -0.41551774D-08  0.35963389D-04 -0.73878085D-04 -0.19421413D-05 -0.71835210D-04
 -0.22765856D-05  0.41379668D-06 -0.70845764D-04 -0.15179759D-05 -0.32447729D-05
  0.28635139D-03  0.83477327D-05  0.20033829D-05 -0.37589963D-03  0.25510961D-04
  0.80865779D-06 -0.14214153D-06  0.25213691D-04  0.57507269D-06  0.10310846D-05
 -0.10174657D-03 -0.30010461D-05 -0.60466005D-06  0.11933443D-03
MO    3     MO 0.0        OCC NO =    2.0000210  ORB. ENERGY =    0.000000
 -0.14447072D-01 -0.26932252D-01 -0.45519176D-01 -0.68423811D-01 -0.84046397D-01
 -0.70932194D-01 -0.26672357D-01 -0.38098258D-05 -0.28476088D-04 -0.10642164D-03
 -0.29689981D-03 -0.39776389D-03  0.46968499D-03 -0.87252386D-03 -0.19387310D-02
 -0.82423168D-04 -0.15977120D-05 -0.14979566D-05 -0.10666343D-05  0.18607160D-05
  0.17445396D-05  0.12422161D-05  0.11681538D-02  0.10952184D-02  0.77986078D-03
  0.69155463D-05 -0.19152873D-05  0.60871732D-03  0.37635222D-05  0.16409476D-05
 -0.37982290D-03 -0.23666044D-07 -0.57573761D-07  0.46637189D-05 -0.10677987D-03
 -0.10521885D-03  0.21199872D-03  0.18801666D-05  0.10771895D-06  0.83215770D-06
 -0.24705697D-04 -0.22758773D-04  0.47464469D-04  0.23974842D-05 -0.18174831D-05
 -0.67593573D-07  0.11602680D-04  0.11188491D-04 -0.22791171D-04  0.47691716D-06
  0.35896116D-06  0.29816669D-06  0.43038859D-06  0.36308713D-04  0.78323583D-05
 -0.71986021D-06 -0.10879445D-03 -0.11316003D-04 -0.57130557D-06 -0.13168783D-06
 -0.12181072D-04 -0.22010034D-06  0.35799012D-06  0.51734393D-04 -0.85781058D-04
 -0.12631996D-05 -0.15508343D-03  0.12886069D-03  0.18922923D-06 -0.11975056D-06
  0.12848249D-03 -0.40390089D-06 -0.49843794D-05 -0.89895335D-05 -0.13255062D-04
  0.75121143D-03  0.23987693D-03  0.49501411D-05 -0.89268076D-06  0.95909378D-04
  0.28092368D-04  0.27210550D-05  0.19775115D-03 -0.43374267D-05  0.75443696D-06
  0.44434375D-04  0.39263010D-04 -0.73727156D-04  0.53781438D-04  0.19945718D-04
  0.76687667D-06  0.95493008D-06  0.75826000D-04 -0.95493138D-05 -0.12239029D-04
  0.21788342D-04  0.54497270D-06 -0.13543465D-06 -0.34667142D-04 -0.43054526D-05
 -0.77650611D-05 -0.11449578D-04  0.76057661D-03  0.24402464D-03  0.51947714D-05
  0.84474921D-04 -0.49097245D-04  0.30005165D-04  0.17613900D-03 -0.95089056D-04
 -0.55203530D-05  0.39831498D-04 -0.21423636D-04  0.39298507D-04  0.23331085D-04
 -0.43718967D-04  0.20387882D-04 -0.10903786D-03  0.67344989D-04 -0.36380386D-04
 -0.11082233D-04 -0.10488142D-04  0.21570375D-04  0.19978868D-05 -0.30414145D-04
  0.17240781D-04 -0.48005055D-05 -0.86579094D-05 -0.12766082D-04  0.74772613D-03
  0.22773992D-03  0.51259822D-05 -0.82487260D-04 -0.47807644D-04  0.28403692D-04
 -0.17110387D-03 -0.97221541D-04 -0.39004490D-05 -0.37079637D-04 -0.21122481D-04
  0.38120221D-04  0.22043665D-04 -0.42158315D-04  0.20114651D-04  0.10970806D-03
 -0.66231956D-04 -0.37547662D-04 -0.11477215D-04 -0.10096623D-04  0.21573839D-04
 -0.23498633D-05  0.29768840D-04  0.17340801D-04 -0.15457539D+00 -0.28919407D+00
 -0.49966320D+00 -0.81001276D+00 -0.12300821D+01 -0.17096984D+01 -0.20327004D+01
 -0.18108001D+01 -0.89928163D+00 -0.14477673D+00 -0.15274801D-02 -0.72271515D-03
 -0.24108567D-01 -0.84013531D-01 -0.30254633D+00 -0.66692573D+00 -0.93881618D+00
  0.44784591D-01  0.12286040D+01  0.72646585D+00 -0.15530206D-04 -0.18810871D-03
 -0.39228089D-03 -0.11249933D-02 -0.58419336D-04  0.48515167D-02  0.12535387D-01
 -0.10213244D-01  0.46591207D-01 -0.38384709D-03 -0.13187883D-03  0.34216212D-03
  0.45070756D-03  0.49720099D-03  0.41296435D-03  0.21929553D-03  0.56579393D-04
  0.21569268D-02  0.28411772D-02  0.31342632D-02  0.26032510D-02  0.13823985D-02
  0.35666604D-03  0.59443454D+01  0.78300935D+01  0.86378188D+01  0.71743848D+01
  0.38097974D+01  0.98294765D+00 -0.11686342D-07  0.11297603D-06  0.15930800D-06
  0.22785258D-06 -0.11538134D-08 -0.20896231D-06 -0.89499251D-07  0.86522117D-06
  0.12200522D-05  0.17449974D-05 -0.88364210D-08 -0.16003272D-05 -0.21093721D-03
  0.20392052D-02  0.28754922D-02  0.41127145D-02 -0.20826207D-04 -0.37717471D-02
  0.28536299D-05  0.15542722D-04  0.41674927D-01 -0.21856729D-06 -0.35900353D-06
 -0.48431074D-03  0.22465252D-07  0.25929333D-07 -0.98484912D-05 -0.67348183D-05
 -0.69775231D-05  0.13712341D-04 -0.14020624D-06 -0.39092473D-07 -0.66082492D-06
 -0.11167189D-03 -0.11159687D-03  0.22326876D-03  0.27874163D-07  0.31155527D-06
  0.68652135D-06 -0.14371199D-04 -0.14319543D-04  0.28690742D-04 -0.66999012D-08
  0.87642674D-07  0.49176886D-07 -0.82973865D-07 -0.71949962D-05  0.54291865D-05
  0.14520406D-06  0.21575337D-04 -0.84641074D-05  0.10371754D-06  0.96519257D-08
 -0.78234520D-05 -0.10833770D-06  0.46277032D-07  0.20890632D-05 -0.33820562D-04
 -0.19023219D-07 -0.61010133D-05  0.50867657D-04 -0.11980788D-06 -0.16617637D-06
  0.50594027D-04  0.10959205D-08 -0.87982755D-03 -0.16400001D-02 -0.27801655D-02
 -0.42095465D-02 -0.52628603D-02 -0.45270036D-02 -0.17362033D-02 -0.68592286D-06
 -0.90803343D-05 -0.32981426D-04 -0.97838780D-04 -0.11273943D-03  0.13693883D-03
 -0.96042048D-04 -0.15997369D-03  0.12305291D-04  0.10475764D-05  0.10245068D-05
  0.67693497D-06  0.11935158D-05  0.11672324D-05  0.77123982D-06  0.39032952D-02
  0.38173375D-02  0.25222763D-02  0.81589112D-08 -0.16964785D-06  0.87950158D-03
  0.11418156D-06  0.13231965D-06  0.21181600D-04  0.47583931D-07  0.23260414D-07
  0.93348285D-05 -0.35703832D-04 -0.35586558D-04  0.71290390D-04 -0.44792497D-06
  0.42496325D-06  0.96966977D-06  0.21155155D-04  0.21092254D-04 -0.42247409D-04
  0.20672445D-06 -0.21367643D-06 -0.44574023D-06  0.18094613D-04  0.18141810D-04
 -0.36236424D-04 -0.92266715D-07 -0.47667222D-07  0.44560977D-07 -0.22210041D-06
 -0.30665107D-05  0.46195470D-04 -0.12964095D-06  0.83608800D-05 -0.68661953D-04
  0.79594217D-06  0.83865217D-06 -0.69924458D-04  0.69254601D-06  0.89472653D-07
  0.98279699D-06 -0.25321733D-04  0.60172126D-07 -0.26327348D-05  0.37800401D-04
 -0.32859009D-06 -0.31565615D-06  0.38164797D-04 -0.21965629D-06
MO    4     MO 0.0        OCC NO =    2.0000123  ORB. ENERGY =    0.000000
  0.27013047D-01  0.50357762D-01  0.85111479D-01  0.12793843D+00  0.15714944D+00
  0.13262859D+00  0.49871812D-01 -0.14226297D-05 -0.10633275D-04 -0.39738978D-04
 -0.11086556D-03 -0.14852929D-03  0.17538539D-03  0.26610091D-02 -0.36213572D-02
 -0.43149132D-04  0.38234722D-05  0.35847482D-05  0.25525543D-05  0.29039239D-06
  0.27226133D-06  0.19386629D-06  0.36702745D-02  0.34411156D-02  0.24502793D-02
  0.10063871D-04 -0.50345843D-05  0.13073120D-02  0.66470237D-05  0.56659859D-06
 -0.41814491D-03 -0.82809995D-08 -0.64543755D-07  0.36771119D-05 -0.31941253D-03
 -0.31867184D-03  0.63808437D-03  0.18577915D-05  0.86645281D-06  0.15999798D-05
  0.66506576D-05  0.13121288D-04 -0.19771946D-04  0.25484324D-05 -0.33661748D-05
  0.33862329D-06 -0.18169259D-04 -0.17557352D-04  0.35726610D-04  0.31089245D-06
  0.53339261D-06  0.36730905D-06 -0.30120210D-06 -0.42562718D-04  0.22833917D-04
  0.10059476D-05  0.12774018D-03 -0.33883011D-04 -0.10234128D-06 -0.52024088D-07
 -0.34618739D-04 -0.71933652D-06  0.53394044D-06  0.82003289D-04 -0.16388845D-03
 -0.20384961D-05 -0.24585381D-03  0.24672421D-03  0.43667478D-06 -0.15605960D-06
  0.24494113D-03 -0.16103694D-06 -0.90429656D-04 -0.16309361D-03 -0.24048143D-03
  0.10189540D-02  0.68239735D-03  0.41705675D-05 -0.13513596D-05 -0.58303562D-04
  0.32624817D-04  0.33802209D-05  0.30108271D-03 -0.42425942D-04  0.71800683D-06
  0.11078427D-03  0.76197224D-04 -0.14185492D-03  0.23206714D-04  0.11864820D-03
 -0.24944862D-06  0.17060986D-05  0.14234144D-03 -0.14611350D-04 -0.21443967D-04
  0.36055317D-04  0.67531277D-06 -0.61675202D-07 -0.62837355D-04 -0.90802315D-04
 -0.16376571D-03 -0.24147245D-03  0.10376151D-02  0.70166736D-03  0.44555522D-05
 -0.48338728D-04  0.25232894D-04  0.36368738D-04  0.26880340D-03 -0.14733225D-03
 -0.45837011D-04  0.98525748D-04 -0.55619926D-04  0.76852467D-04 -0.15579259D-04
 -0.10249870D-03  0.11807796D-03 -0.14663661D-03  0.12680370D-03 -0.69026822D-04
 -0.19360560D-04 -0.16534422D-04  0.35894982D-04  0.51888052D-05 -0.55191975D-04
  0.31736062D-04 -0.90480991D-04 -0.16318619D-03 -0.24061795D-03  0.10198906D-02
  0.67598380D-03  0.43084718D-05  0.51151068D-04  0.28938946D-04  0.33278690D-04
 -0.26231353D-03 -0.15036473D-03 -0.42702946D-04 -0.94407256D-04 -0.55095502D-04
  0.75116003D-04 -0.18492547D-04 -0.10026594D-03  0.11875849D-03  0.14259938D-03
 -0.12389643D-03 -0.70627451D-04 -0.19677625D-04 -0.16030349D-04  0.35707974D-04
 -0.54834280D-05  0.53969242D-04  0.31673756D-04  0.91351487D-01  0.17090888D+00
  0.29529264D+00  0.47870407D+00  0.72695807D+00  0.10104033D+01  0.12012921D+01
  0.10701528D+01  0.53146049D+00  0.85560643D-01  0.90271533D-03  0.42770631D-03
  0.14267567D-01  0.49719613D-01  0.17904838D+00  0.39468987D+00  0.55559595D+00
 -0.26503737D-01 -0.72709378D+00 -0.42992600D+00  0.62804775D-05  0.76071920D-04
  0.15863997D-03  0.45495181D-03  0.23625014D-04 -0.19619729D-02 -0.50693611D-02
  0.41302768D-02 -0.28556856D-01  0.14195571D-02 -0.18109241D-03  0.50782978D-02
  0.66893062D-02  0.73793519D-02  0.61291295D-02  0.32547379D-02  0.83973938D-03
  0.42312080D-02  0.55734908D-02  0.61484327D-02  0.51067548D-02  0.27118285D-02
  0.69966593D-03  0.99125760D+01  0.13057182D+02  0.14404115D+02  0.11963745D+02
  0.63530808D+01  0.16391281D+01 -0.17175863D-06  0.16604519D-05  0.23414105D-05
  0.33488364D-05 -0.16958036D-07 -0.30711989D-05 -0.16443017D-06  0.15896051D-05
  0.22415091D-05  0.32059510D-05 -0.16234485D-07 -0.29401594D-05 -0.33687928D-03
  0.32567322D-02  0.45923323D-02  0.65682500D-02 -0.33260694D-04 -0.60237048D-02
  0.37046476D-04  0.31572028D-04  0.72542998D-01 -0.35624854D-06 -0.26815190D-06
 -0.30726799D-03  0.13692560D-07  0.36838791D-07 -0.39813954D-05  0.45484781D-03
  0.45478825D-03 -0.90963606D-03 -0.22404824D-06 -0.16048802D-05 -0.21406681D-05
 -0.30997228D-03 -0.30989574D-03  0.61986802D-03  0.42968805D-07  0.99212580D-06
  0.14207777D-05  0.42401222D-05  0.42877009D-05 -0.85278231D-05  0.25596848D-07
  0.69050585D-07 -0.35768002D-07 -0.14067861D-06 -0.14447015D-04 -0.46930697D-04
  0.32048138D-06  0.43553708D-04  0.69882947D-04  0.10155446D-06 -0.21266430D-06
  0.70909143D-04  0.11235874D-06  0.93345347D-07  0.42363264D-05 -0.62715974D-04
 -0.39864577D-07 -0.12432661D-04  0.94313673D-04 -0.24017147D-06 -0.27631823D-06
  0.93834249D-04 -0.93512617D-07 -0.63636969D-02 -0.11861942D-01 -0.20108634D-01