 clch3f_ts-wavefunction
GAUSSIAN            211 MOL ORBITALS    339 PRIMITIVES        6 NUCLEI
  C    1    (CENTRE  1)   0.00033070  0.00005480 -0.94053370  CHARGE =  6.0
  H    2    (CENTRE  2)   0.00003590 -1.98906904 -1.17300214  CHARGE =  1.0
  H    3    (CENTRE  3)  -1.72213010  0.99468570 -1.17398291  CHARGE =  1.0
  H    4    (CENTRE  4)   1.72295780  0.99424539 -1.17459707  CHARGE =  1.0
  Cl   5    (CENTRE  5)   0.00104880  0.00181792  3.10806659  CHARGE = 17.0
  F    6    (CENTRE  6)  -0.01924875 -0.00174044 -4.90094425  CHARGE =  9.0
CENTRE ASSIGNMENTS    1  1  1  1  1  1  1  1  1  1  1  1  1  1  1  1  1  1  1  1
CENTRE ASSIGNMENTS    1  1  1  1  1  1  1  1  1  1  1  1  1  1  1  1  1  1  1  1
CENTRE ASSIGNMENTS    1  1  1  1  1  1  1  1  1  1  1  1  1  1  1  1  1  1  1  1
CENTRE ASSIGNMENTS    1  1  1  1  1  1  1  1  1  1  1  1  2  2  2  2  2  2  2  2
CENTRE ASSIGNMENTS    2  2  2  2  2  2  2  2  2  2  2  2  2  2  2  2  2  2  2  3
CENTRE ASSIGNMENTS    3  3  3  3  3  3  3  3  3  3  3  3  3  3  3  3  3  3  3  3
CENTRE ASSIGNMENTS    3  3  3  3  3  3  4  4  4  4  4  4  4  4  4  4  4  4  4  4
CENTRE ASSIGNMENTS    4  4  4  4  4  4  4  4  4  4  4  4  4  5  5  5  5  5  5  5
CENTRE ASSIGNMENTS    5  5  5  5  5  5  5  5  5  5  5  5  5  5  5  5  5  5  5  5
CENTRE ASSIGNMENTS    5  5  5  5  5  5  5  5  5  5  5  5  5  5  5  5  5  5  5  5
CENTRE ASSIGNMENTS    5  5  5  5  5  5  5  5  5  5  5  5  5  5  5  5  5  5  5  5
CENTRE ASSIGNMENTS    5  5  5  5  5  5  5  5  5  5  5  5  5  5  5  5  5  5  5  5
CENTRE ASSIGNMENTS    5  5  5  5  5  5  5  5  5  5  5  5  5  5  5  5  5  5  5  5
CENTRE ASSIGNMENTS    5  5  5  5  5  5  5  6  6  6  6  6  6  6  6  6  6  6  6  6
CENTRE ASSIGNMENTS    6  6  6  6  6  6  6  6  6  6  6  6  6  6  6  6  6  6  6  6
CENTRE ASSIGNMENTS    6  6  6  6  6  6  6  6  6  6  6  6  6  6  6  6  6  6  6  6
CENTRE ASSIGNMENTS    6  6  6  6  6  6  6  6  6  6  6  6  6  6  6  6  6  6  6
TYPE ASSIGNMENTS      1  1  1  1  1  1  1  1  1  1  1  1  1  1  1  1  2  2  2  3
TYPE ASSIGNMENTS      3  3  4  4  4  2  3  4  2  3  4  2  3  4  5  6  7  8  9 10
TYPE ASSIGNMENTS      5  6  7  8  9 10  5  6  7  8  9 10 11 12 13 17 14 15 18 19
TYPE ASSIGNMENTS     16 20 11 12 13 17 14 15 18 19 16 20  1  1  1  1  1  1  2  3
TYPE ASSIGNMENTS      4  2  3  4  2  3  4  5  6  7  8  9 10  5  6  7  8  9 10  1
TYPE ASSIGNMENTS      1  1  1  1  1  2  3  4  2  3  4  2  3  4  5  6  7  8  9 10
TYPE ASSIGNMENTS      5  6  7  8  9 10  1  1  1  1  1  1  2  3  4  2  3  4  2  3
TYPE ASSIGNMENTS      4  5  6  7  8  9 10  5  6  7  8  9 10  1  1  1  1  1  1  1
TYPE ASSIGNMENTS      1  1  1  1  1  1  1  1  1  1  1  1  1  1  1  1  1  1  1  1
TYPE ASSIGNMENTS      1  1  1  1  2  2  2  2  2  2  3  3  3  3  3  3  4  4  4  4
TYPE ASSIGNMENTS      4  4  2  2  2  2  2  2  3  3  3  3  3  3  4  4  4  4  4  4
TYPE ASSIGNMENTS      2  3  4  2  3  4  2  3  4  5  6  7  8  9 10  5  6  7  8  9
TYPE ASSIGNMENTS     10  5  6  7  8  9 10 11 12 13 17 14 15 18 19 16 20 11 12 13
TYPE ASSIGNMENTS     17 14 15 18 19 16 20  1  1  1  1  1  1  1  1  1  1  1  1  1
TYPE ASSIGNMENTS      1  1  1  2  2  2  3  3  3  4  4  4  2  3  4  2  3  4  2  3
TYPE ASSIGNMENTS      4  5  6  7  8  9 10  5  6  7  8  9 10  5  6  7  8  9 10 11
TYPE ASSIGNMENTS     12 13 17 14 15 18 19 16 20 11 12 13 17 14 15 18 19 16 20
EXPONENTS  0.8236000D+04 0.1235000D+04 0.2808000D+03 0.7927000D+02 0.2559000D+02
EXPONENTS  0.8997000D+01 0.3319000D+01 0.2808000D+03 0.7927000D+02 0.2559000D+02
EXPONENTS  0.8997000D+01 0.3319000D+01 0.3643000D+00 0.9059000D+00 0.1285000D+00
EXPONENTS  0.4402000D-01 0.1871000D+02 0.4133000D+01 0.1200000D+01 0.1871000D+02
EXPONENTS  0.4133000D+01 0.1200000D+01 0.1871000D+02 0.4133000D+01 0.1200000D+01
EXPONENTS  0.3827000D+00 0.3827000D+00 0.3827000D+00 0.1209000D+00 0.1209000D+00
EXPONENTS  0.1209000D+00 0.3569000D-01 0.3569000D-01 0.3569000D-01 0.1097000D+01
EXPONENTS  0.1097000D+01 0.1097000D+01 0.1097000D+01 0.1097000D+01 0.1097000D+01
EXPONENTS  0.3180000D+00 0.3180000D+00 0.3180000D+00 0.3180000D+00 0.3180000D+00
EXPONENTS  0.3180000D+00 0.1000000D+00 0.1000000D+00 0.1000000D+00 0.1000000D+00
EXPONENTS  0.1000000D+00 0.1000000D+00 0.7610000D+00 0.7610000D+00 0.7610000D+00
EXPONENTS  0.7610000D+00 0.7610000D+00 0.7610000D+00 0.7610000D+00 0.7610000D+00
EXPONENTS  0.7610000D+00 0.7610000D+00 0.2680000D+00 0.2680000D+00 0.2680000D+00
EXPONENTS  0.2680000D+00 0.2680000D+00 0.2680000D+00 0.2680000D+00 0.2680000D+00
EXPONENTS  0.2680000D+00 0.2680000D+00 0.3387000D+02 0.5095000D+01 0.1159000D+01
EXPONENTS  0.3258000D+00 0.1027000D+00 0.2526000D-01 0.1407000D+01 0.1407000D+01
EXPONENTS  0.1407000D+01 0.3880000D+00 0.3880000D+00 0.3880000D+00 0.1020000D+00
EXPONENTS  0.1020000D+00 0.1020000D+00 0.1057000D+01 0.1057000D+01 0.1057000D+01
EXPONENTS  0.1057000D+01 0.1057000D+01 0.1057000D+01 0.2470000D+00 0.2470000D+00
EXPONENTS  0.2470000D+00 0.2470000D+00 0.2470000D+00 0.2470000D+00 0.3387000D+02
EXPONENTS  0.5095000D+01 0.1159000D+01 0.3258000D+00 0.1027000D+00 0.2526000D-01
EXPONENTS  0.1407000D+01 0.1407000D+01 0.1407000D+01 0.3880000D+00 0.3880000D+00
EXPONENTS  0.3880000D+00 0.1020000D+00 0.1020000D+00 0.1020000D+00 0.1057000D+01
EXPONENTS  0.1057000D+01 0.1057000D+01 0.1057000D+01 0.1057000D+01 0.1057000D+01
EXPONENTS  0.2470000D+00 0.2470000D+00 0.2470000D+00 0.2470000D+00 0.2470000D+00
EXPONENTS  0.2470000D+00 0.3387000D+02 0.5095000D+01 0.1159000D+01 0.3258000D+00
EXPONENTS  0.1027000D+00 0.2526000D-01 0.1407000D+01 0.1407000D+01 0.1407000D+01
EXPONENTS  0.3880000D+00 0.3880000D+00 0.3880000D+00 0.1020000D+00 0.1020000D+00
EXPONENTS  0.1020000D+00 0.1057000D+01 0.1057000D+01 0.1057000D+01 0.1057000D+01
EXPONENTS  0.1057000D+01 0.1057000D+01 0.2470000D+00 0.2470000D+00 0.2470000D+00
EXPONENTS  0.2470000D+00 0.2470000D+00 0.2470000D+00 0.4561000D+06 0.6833000D+05
EXPONENTS  0.1555000D+05 0.4405000D+04 0.1439000D+04 0.5204000D+03 0.2031000D+03
EXPONENTS  0.8396000D+02 0.3620000D+02 0.1583000D+02 0.6334000D+01 0.4405000D+04
EXPONENTS  0.1439000D+04 0.5204000D+03 0.2031000D+03 0.8396000D+02 0.3620000D+02
EXPONENTS  0.1583000D+02 0.6334000D+01 0.2694000D+01 0.1439000D+04 0.2031000D+03
EXPONENTS  0.8396000D+02 0.3620000D+02 0.1583000D+02 0.6334000D+01 0.2694000D+01
EXPONENTS  0.4313000D+00 0.9768000D+00 0.1625000D+00 0.5910000D-01 0.6633000D+03
EXPONENTS  0.1568000D+03 0.4998000D+02 0.1842000D+02 0.7240000D+01 0.2922000D+01
EXPONENTS  0.6633000D+03 0.1568000D+03 0.4998000D+02 0.1842000D+02 0.7240000D+01
EXPONENTS  0.2922000D+01 0.6633000D+03 0.1568000D+03 0.4998000D+02 0.1842000D+02
EXPONENTS  0.7240000D+01 0.2922000D+01 0.1568000D+03 0.4998000D+02 0.1842000D+02
EXPONENTS  0.7240000D+01 0.2922000D+01 0.3818000D+00 0.1568000D+03 0.4998000D+02
EXPONENTS  0.1842000D+02 0.7240000D+01 0.2922000D+01 0.3818000D+00 0.1568000D+03
EXPONENTS  0.4998000D+02 0.1842000D+02 0.7240000D+01 0.2922000D+01 0.3818000D+00
EXPONENTS  0.1022000D+01 0.1022000D+01 0.1022000D+01 0.1301000D+00 0.1301000D+00
EXPONENTS  0.1301000D+00 0.4190000D-01 0.4190000D-01 0.4190000D-01 0.1046000D+01
EXPONENTS  0.1046000D+01 0.1046000D+01 0.1046000D+01 0.1046000D+01 0.1046000D+01
EXPONENTS  0.3440000D+00 0.3440000D+00 0.3440000D+00 0.3440000D+00 0.3440000D+00
EXPONENTS  0.3440000D+00 0.1350000D+00 0.1350000D+00 0.1350000D+00 0.1350000D+00
EXPONENTS  0.1350000D+00 0.1350000D+00 0.7060000D+00 0.7060000D+00 0.7060000D+00
EXPONENTS  0.7060000D+00 0.7060000D+00 0.7060000D+00 0.7060000D+00 0.7060000D+00
EXPONENTS  0.7060000D+00 0.7060000D+00 0.3120000D+00 0.3120000D+00 0.3120000D+00
EXPONENTS  0.3120000D+00 0.3120000D+00 0.3120000D+00 0.3120000D+00 0.3120000D+00
EXPONENTS  0.3120000D+00 0.3120000D+00 0.1950000D+05 0.2923000D+04 0.6645000D+03
EXPONENTS  0.1875000D+03 0.6062000D+02 0.2142000D+02 0.7950000D+01 0.6645000D+03
EXPONENTS  0.1875000D+03 0.6062000D+02 0.2142000D+02 0.7950000D+01 0.8815000D+00
EXPONENTS  0.2257000D+01 0.3041000D+00 0.9158000D-01 0.4388000D+02 0.9926000D+01
EXPONENTS  0.2930000D+01 0.4388000D+02 0.9926000D+01 0.2930000D+01 0.4388000D+02
EXPONENTS  0.9926000D+01 0.2930000D+01 0.9132000D+00 0.9132000D+00 0.9132000D+00
EXPONENTS  0.2672000D+00 0.2672000D+00 0.2672000D+00 0.7361000D-01 0.7361000D-01
EXPONENTS  0.7361000D-01 0.3107000D+01 0.3107000D+01 0.3107000D+01 0.3107000D+01
EXPONENTS  0.3107000D+01 0.3107000D+01 0.8550000D+00 0.8550000D+00 0.8550000D+00
EXPONENTS  0.8550000D+00 0.8550000D+00 0.8550000D+00 0.2920000D+00 0.2920000D+00
EXPONENTS  0.2920000D+00 0.2920000D+00 0.2920000D+00 0.2920000D+00 0.1917000D+01
EXPONENTS  0.1917000D+01 0.1917000D+01 0.1917000D+01 0.1917000D+01 0.1917000D+01
EXPONENTS  0.1917000D+01 0.1917000D+01 0.1917000D+01 0.1917000D+01 0.7240000D+00
EXPONENTS  0.7240000D+00 0.7240000D+00 0.7240000D+00 0.7240000D+00 0.7240000D+00
EXPONENTS  0.7240000D+00 0.7240000D+00 0.7240000D+00 0.7240000D+00
MO    1     MO 0.0        OCC NO =    2.0000300  ORB. ENERGY =    0.000000
 -0.25191473D-05 -0.46961980D-05 -0.79372145D-05 -0.11931114D-04 -0.14655236D-04
 -0.12368502D-04 -0.46508799D-05  0.41596834D-08  0.31091056D-07  0.11619438D-06
  0.32416422D-06  0.43429068D-06 -0.51281631D-06 -0.83275959D-06  0.35648220D-05
  0.14874612D-05 -0.78925622D-04 -0.73997787D-04 -0.52690833D-04  0.78153724D-04
  0.73274084D-04  0.52175513D-04 -0.20381470D-05 -0.19108924D-05 -0.13606692D-05
 -0.25742620D-03  0.25490254D-03  0.10035896D-05 -0.32885841D-03  0.32563484D-03
 -0.14177996D-05 -0.65946808D-05  0.65287914D-05 -0.17268681D-07  0.45391857D-04
 -0.44774776D-04 -0.61708018D-06 -0.90824319D-04  0.36240849D-03 -0.35881977D-03
  0.13661483D-03 -0.13610156D-03 -0.51326348D-06 -0.27567932D-03 -0.70112717D-04
  0.69692734D-04  0.28783235D-04 -0.29099077D-04  0.31584215D-06 -0.58452367D-04
  0.46765892D-04 -0.46247834D-04 -0.65675831D-04  0.64922664D-04  0.46448077D-06
 -0.65802882D-04  0.65439106D-04  0.17367842D-04  0.26283038D-03 -0.26020710D-03
 -0.18761285D-04 -0.35914993D-04  0.19041748D-04 -0.18948726D-04 -0.30304176D-06
  0.18646433D-04 -0.18229937D-04  0.35894945D-04 -0.75771678D-04  0.75076116D-04
 -0.34985820D-04 -0.71797225D-04 -0.28070861D-04 -0.50626954D-04 -0.74649414D-04
  0.25526403D-03  0.79095532D-03 -0.86809027D-05 -0.32364757D-05  0.49949178D-04
  0.16827849D-04 -0.58877168D-04  0.20174103D-03  0.19068645D-03 -0.53749139D-04
  0.12141677D-03  0.15795864D-04 -0.76925647D-04  0.29542465D-04  0.47383182D-04
 -0.21586754D-04  0.33551594D-04  0.21019219D-03 -0.30543378D-04 -0.82931622D-05
  0.38836540D-04 -0.20588109D-04 -0.43376063D-04  0.21758371D-04  0.38743564D-04
  0.69875613D-04  0.10303155D-03 -0.35661301D-03 -0.10875352D-02  0.11781589D-04
 -0.59433401D-04  0.35694111D-04 -0.22859604D-04 -0.23101355D-03  0.15728358D-03
 -0.26361567D-03 -0.13484462D-03  0.10007324D-03 -0.22026785D-04 -0.77520486D-06
  0.66383319D-04 -0.65608114D-04  0.13135854D-03 -0.25603652D-03  0.13390849D-03
  0.22478217D-04  0.31336818D-04 -0.53815034D-04  0.30051525D-04 -0.18666579D-04
  0.28516933D-04 -0.10481883D-04 -0.18904507D-04 -0.27874685D-04  0.94197668D-04
  0.29638792D-03 -0.32893314D-05 -0.18199566D-04 -0.55809927D-05  0.64052867D-05
 -0.10560754D-03  0.32593027D-04  0.71120185D-04 -0.75882539D-04  0.40418484D-04
  0.58620559D-05  0.13989551D-04 -0.31746293D-04  0.17756742D-04  0.19288394D-04
 -0.45462818D-04 -0.78855802D-04  0.69404997D-05 -0.21373511D-04  0.14433011D-04
 -0.67270709D-05 -0.36479994D-04  0.47278132D-04 -0.31080816D-04 -0.58148890D-04
 -0.10046838D-03 -0.16287106D-03 -0.24733533D-03 -0.34377284D-03 -0.40871956D-03
 -0.36410159D-03 -0.18082055D-03 -0.29110578D-04 -0.30713380D-06 -0.14600484D-06
 -0.48704771D-05 -0.16972638D-04 -0.61121216D-04 -0.13473411D-03 -0.18966215D-03
  0.90475026D-05  0.24820586D-03  0.14676257D-03 -0.26786032D-08 -0.32444426D-07
 -0.67659430D-07 -0.19403547D-06 -0.10075992D-07  0.83677503D-06  0.21620660D-05
 -0.17615496D-05  0.88621352D-05 -0.95103367D-06 -0.25058439D-06 -0.82501024D+01
 -0.10867315D+02 -0.11988349D+02 -0.99572628D+01 -0.52875829D+01 -0.13642240D+01
  0.81697673D+01  0.10761495D+02  0.11871613D+02  0.98603043D+01  0.52360952D+01
  0.13509399D+01 -0.65759345D-02 -0.86620440D-02 -0.95555905D-02 -0.79366661D-02
 -0.42145899D-02 -0.10873862D-02  0.32650651D-03 -0.31564548D-02 -0.44509308D-02
 -0.63660085D-02  0.32236571D-04  0.58382302D-02 -0.32332643D-03  0.31257119D-02
  0.44075801D-02  0.63040055D-02 -0.31922596D-04 -0.57813676D-02  0.23710351D-06
 -0.22921642D-05 -0.32321907D-05 -0.46228878D-05  0.23409653D-07  0.42396241D-05
 -0.54465784D-01  0.53935408D-01 -0.43345120D-04  0.45739884D-03 -0.45295094D-03
  0.33217766D-06  0.41185587D-04 -0.40784679D-04  0.57509680D-07  0.84601818D-05
 -0.91509315D-05  0.69074972D-06 -0.17192874D-04  0.69672740D-03 -0.68990832D-03
 -0.31170000D-05  0.31444488D-05 -0.27448798D-07  0.61065547D-05 -0.25290320D-03
  0.25042187D-03  0.88839437D-06 -0.95189684D-06  0.63502473D-07 -0.18207656D-05
  0.43349264D-04 -0.42922773D-04 -0.16655731D-05  0.16593895D-05 -0.57065382D-07
 -0.16875338D-05  0.15967369D-05  0.24796714D-04  0.66842530D-05 -0.65749053D-05
 -0.24625518D-04 -0.49926549D-04 -0.10410342D-04  0.10302786D-04 -0.34201068D-08
 -0.10404671D-04  0.10327282D-04 -0.50168040D-05  0.41635698D-04 -0.41235641D-04
  0.50270643D-05  0.10239873D-04  0.39428856D-05  0.73495456D-05  0.12459117D-04
  0.18864788D-04  0.23585140D-04  0.20287450D-04  0.77806738D-05 -0.70986280D-08
 -0.93972544D-07 -0.34132538D-06 -0.10125353D-05 -0.11667424D-05  0.14171825D-05
  0.15118503D-06 -0.24022822D-05 -0.27168857D-05  0.20688447D-03  0.20232849D-03
  0.13368699D-03 -0.20490340D-03 -0.20039105D-03 -0.13240684D-03 -0.48087585D-05
 -0.47028608D-05 -0.31073789D-05  0.69366868D-05 -0.68864814D-05  0.65159222D-06
  0.46780621D-04 -0.46326676D-04 -0.29693681D-05  0.13877745D-04 -0.13744617D-04
 -0.38111786D-06  0.49688347D-04 -0.50430768D-04  0.74242055D-06 -0.10108839D-03
  0.93512979D-04 -0.92497814D-04 -0.25135762D-04  0.25271791D-04 -0.13602874D-06
  0.50869279D-04 -0.71947732D-04  0.71193756D-04  0.13170911D-04 -0.12526984D-04
 -0.64392689D-06 -0.25916184D-04  0.51965714D-04 -0.51432283D-04  0.49191955D-04
 -0.49403449D-04  0.11782109D-05  0.51972016D-04 -0.49092808D-04 -0.13645430D-03
 -0.19954788D-03  0.19730316D-03  0.13291967D-03  0.27170430D-03 -0.17501626D-04
  0.17540723D-04 -0.54931621D-06 -0.18359416D-04  0.17458210D-04  0.43661189D-04
  0.70864295D-04 -0.70080380D-04 -0.42013240D-04 -0.86395714D-04
MO    2     MO 0.0        OCC NO =    2.0000300  ORB. ENERGY =    0.000000
  0.24528796D-05  0.45726618D-05  0.77284214D-05  0.11617259D-04  0.14269722D-04
  0.12043142D-04  0.45285358D-05 -0.41299783D-08 -0.30869029D-07 -0.11536461D-06
 -0.32184930D-06 -0.43118932D-06  0.50915419D-06  0.81934004D-06 -0.35325264D-05
 -0.14798597D-05  0.78135250D-04  0.73256763D-04  0.52163180D-04  0.78901846D-04
  0.73975496D-04  0.52674960D-04  0.19575938D-05  0.18353686D-05  0.13068918D-05
  0.25609766D-03  0.25859795D-03 -0.12311697D-05  0.32682793D-03  0.33002119D-03
  0.11421766D-05  0.66119570D-05  0.66752926D-05  0.11741761D-07  0.45629488D-04
 -0.46562117D-04  0.93262984D-06  0.90929096D-04 -0.35856002D-03 -0.36202247D-03
  0.13790414D-03 -0.13835146D-03  0.44732371D-06  0.27342586D-03  0.68029018D-04
  0.68965010D-04  0.29342069D-04 -0.29070392D-04 -0.27167662D-06  0.57755803D-04
 -0.46857180D-04 -0.47255496D-04  0.65492063D-04  0.66219773D-04 -0.23352401D-06
  0.65397557D-04  0.65727979D-04  0.17830136D-04 -0.26187375D-03 -0.26438730D-03
 -0.17129564D-04  0.33998002D-04 -0.18871251D-04 -0.18991687D-04  0.23535394D-06
 -0.19206586D-04 -0.19634809D-04  0.35414578D-04  0.75820339D-04  0.76609871D-04
 -0.36120640D-04  0.70949014D-04 -0.28631393D-04 -0.51637896D-04 -0.76140048D-04
  0.26439778D-03  0.80025750D-03 -0.84569031D-05  0.31681902D-05  0.51560656D-04
  0.17267534D-04  0.59149633D-04  0.20632611D-03  0.19231262D-03  0.53034414D-04
  0.12256319D-03  0.15622761D-04 -0.79101585D-04  0.30786737D-04  0.48314848D-04
  0.21529228D-04 -0.32723210D-04  0.21086859D-03 -0.30980108D-04 -0.86747191D-05
  0.39654827D-04  0.20434961D-04  0.43271811D-04  0.22399169D-04 -0.10275140D-04
 -0.18531639D-04 -0.27324890D-04  0.96031178D-04  0.28603882D-03 -0.29788150D-05
  0.18357932D-04 -0.54228873D-05  0.60955896D-05  0.10432392D-03  0.32430109D-04
  0.69073377D-04  0.74389081D-04  0.41271686D-04  0.56326057D-05  0.13770929D-04
 -0.31184689D-04  0.17413760D-04 -0.19746215D-04  0.42725243D-04 -0.76498010D-04
  0.70105490D-05 -0.21270089D-04  0.14259540D-04  0.71806244D-05  0.36676576D-04
  0.47234338D-04  0.38713602D-04  0.69821575D-04  0.10295187D-03 -0.35334148D-03
 -0.10861065D-02  0.11623509D-04  0.59480105D-04  0.35644760D-04 -0.23813222D-04
  0.22996508D-03  0.15852299D-03 -0.25993964D-03  0.13422632D-03  0.10039556D-03
 -0.21113603D-04 -0.72549658D-06  0.66210418D-04 -0.65484922D-04 -0.13208388D-03
  0.25426365D-03  0.13239735D-03  0.22435634D-04  0.31033120D-04 -0.53468754D-04
 -0.30123133D-04  0.17641674D-04  0.28907718D-04  0.30973249D-04  0.57947644D-04
  0.10012068D-03  0.16230738D-03  0.24647933D-03  0.34258308D-03  0.40730503D-03
  0.36284147D-03  0.18019475D-03  0.29009830D-04  0.30607084D-06  0.14549435D-06
  0.48534478D-05  0.16913294D-04  0.60907510D-04  0.13426303D-03  0.18899901D-03
 -0.90158686D-05 -0.24733802D-03 -0.14624942D-03  0.26761608D-08  0.32414842D-07
  0.67597736D-07  0.19385854D-06  0.10066804D-07 -0.83601203D-06 -0.21600945D-05
  0.17599434D-05 -0.88317210D-05  0.93254468D-06  0.24594791D-06  0.81697659D+01
  0.10761493D+02  0.11871611D+02  0.98603026D+01  0.52360943D+01  0.13509397D+01
  0.82501011D+01  0.10867313D+02  0.11988347D+02  0.99572612D+01  0.52875820D+01
  0.13642238D+01 -0.60489524D-03 -0.79678854D-03 -0.87898249D-03 -0.73006378D-03
 -0.38768412D-03 -0.10002453D-03 -0.32335305D-03  0.31259692D-02  0.44079429D-02
  0.63045244D-02 -0.31925224D-04 -0.57818435D-02 -0.32653190D-03  0.31567003D-02
  0.44512769D-02  0.63665035D-02 -0.32239078D-04 -0.58386842D-02  0.47201101D-07
 -0.45630987D-06 -0.64344455D-06 -0.92029593D-06  0.46602490D-08  0.84399816D-06
  0.53936370D-01  0.54466722D-01 -0.40652800D-05 -0.45271130D-03 -0.45716893D-03
  0.69908651D-07 -0.40779577D-04 -0.41180729D-04 -0.21464614D-07  0.90786501D-05
 -0.89945621D-05 -0.84087987D-07  0.17284275D-04 -0.69069620D-03 -0.69745346D-03
 -0.30357110D-05  0.32277518D-05 -0.19204080D-06 -0.59782525D-05  0.25103916D-03
  0.25348856D-03  0.89445388D-06 -0.86881550D-06 -0.25638385D-07  0.17060530D-05
 -0.43023198D-04 -0.43442031D-04  0.16633792D-05  0.16483677D-05  0.63082701D-07
  0.16843433D-05  0.17503723D-05  0.24669421D-04 -0.66744808D-05 -0.66954753D-05
 -0.24858669D-04  0.48988841D-04  0.10347350D-04  0.10457620D-04  0.39063875D-07
  0.10344287D-04  0.10425641D-04 -0.50862400D-05 -0.41386337D-04 -0.41798501D-04
  0.49690484D-05 -0.10038717D-04 -0.39196769D-05 -0.73062845D-05 -0.12385780D-04
 -0.18753746D-04 -0.23446313D-04 -0.20168034D-04 -0.77348750D-05  0.71458490D-08
  0.94597661D-07  0.34359592D-06  0.10192708D-05  0.11745037D-05 -0.14266097D-05
 -0.14950898D-06  0.24159632D-05  0.27081645D-05 -0.20471278D-03 -0.20020463D-03
 -0.13228367D-03 -0.20675503D-03 -0.20220191D-03 -0.13360335D-03  0.49400906D-05
  0.48313007D-05  0.31922447D-05 -0.52031089D-05 -0.52723083D-05 -0.65402880D-06
 -0.47619703D-04 -0.48087016D-04  0.30204273D-05 -0.13773587D-04 -0.13910702D-04
  0.39171475D-06  0.50514144D-04 -0.49845815D-04 -0.66832954D-06  0.99214486D-04
 -0.93602453D-04 -0.94419498D-04 -0.25127437D-04  0.25051429D-04  0.76007421D-07
 -0.49579552D-04  0.72040968D-04  0.72696264D-04  0.12265246D-04 -0.12962104D-04
  0.69685810D-06  0.24907747D-04 -0.52786886D-04 -0.53277258D-04 -0.51858484D-04
 -0.51534215D-04 -0.13900500D-05 -0.49342687D-04 -0.52027687D-04 -0.12978075D-03
  0.20491814D-03  0.20663033D-03  0.13395090D-03 -0.26043141D-03  0.18385535D-04
  0.18312509D-04  0.62524292D-06  0.17612700D-04  0.18452499D-04  0.40847260D-04
 -0.72769305D-04 -0.73390025D-04 -0.42722989D-04  0.82503468D-04
MO    3     MO 0.0        OCC NO =    2.0000210  ORB. ENERGY =    0.000000
 -0.14454786D-01 -0.26946634D-01 -0.45543483D-01 -0.68460349D-01 -0.84091277D-01
 -0.70970071D-01 -0.26686600D-01 -0.38142883D-05 -0.28509442D-04 -0.10654629D-03
 -0.29724757D-03 -0.39822979D-03  0.47023513D-03 -0.87198237D-03 -0.19345444D-02
 -0.82091163D-04  0.14240095D-06  0.13350994D-06  0.95067034D-07  0.50714618D-06
  0.47548178D-06  0.33857135D-06  0.11672366D-02  0.10943585D-02  0.77924846D-03
  0.33404389D-06  0.26541429D-06  0.60718675D-03 -0.92107575D-06 -0.16815785D-06
 -0.37921477D-03  0.67903093D-08  0.18528494D-08  0.46684720D-05 -0.10555723D-03
 -0.10555863D-03  0.21111587D-03  0.62382931D-07 -0.38046695D-06  0.27142698D-06
 -0.24078699D-04 -0.24079659D-04  0.48158358D-04 -0.39325787D-06  0.13108731D-05
  0.66874323D-07  0.11426103D-04  0.11426993D-04 -0.22853096D-04 -0.10459891D-06
 -0.30263500D-07 -0.30377855D-07 -0.97625260D-07  0.36270354D-04  0.77205725D-05
 -0.42032997D-07 -0.10882993D-03 -0.11534160D-04  0.33490878D-06  0.18865315D-07
 -0.11627558D-04  0.51906679D-06  0.14091809D-06  0.51881062D-04 -0.85668753D-04
  0.22018743D-06 -0.15541823D-03  0.12857115D-03 -0.64294169D-06 -0.22495034D-06
  0.12843511D-03  0.43312277D-06 -0.48279244D-05 -0.87073605D-05 -0.12838998D-04
  0.75279121D-03  0.23596501D-03  0.50650490D-05  0.76394656D-07  0.95868328D-04
  0.28429205D-04 -0.28167693D-06  0.19934658D-03 -0.42487344D-05 -0.13187718D-06
  0.44037300D-04  0.38734741D-04 -0.73923233D-04  0.54244300D-04  0.19678934D-04
  0.13718232D-07 -0.24664410D-06  0.76007031D-04 -0.96546274D-05 -0.12044896D-04
  0.21699523D-04 -0.12176711D-06  0.10831722D-06 -0.34558805D-04 -0.48543764D-05
 -0.87550678D-05 -0.12909342D-04  0.75244520D-03  0.23440061D-03  0.50502359D-05
  0.82903434D-04 -0.47828236D-04  0.28561531D-04  0.17226414D-03 -0.99666351D-04
 -0.34959073D-05  0.37853558D-04 -0.21924610D-04  0.38779684D-04  0.22138597D-04
 -0.41807915D-04  0.19669318D-04 -0.11078587D-03  0.66223421D-04 -0.38312009D-04
 -0.11489154D-04 -0.10196473D-04  0.21685626D-04  0.20927126D-05 -0.29757806D-04
  0.17278244D-04 -0.48009089D-05 -0.86586369D-05 -0.12767155D-04  0.75314486D-03
  0.23754419D-03  0.50809863D-05 -0.83127177D-04 -0.48003462D-04  0.28423660D-04
 -0.17301551D-03 -0.99687491D-04 -0.47584660D-05 -0.38391666D-04 -0.22063621D-04
  0.38749665D-04  0.22212770D-04 -0.42008466D-04  0.19795696D-04  0.11109451D-03
 -0.65563843D-04 -0.37612571D-04 -0.11382090D-04 -0.10284276D-04  0.21666366D-04
 -0.19949694D-05  0.30154452D-04  0.17367106D-04 -0.15460265D+00 -0.28924506D+00
 -0.49975130D+00 -0.81015558D+00 -0.12302990D+01 -0.17099998D+01 -0.20330588D+01
 -0.18111194D+01 -0.89944020D+00 -0.14480226D+00 -0.15277494D-02 -0.72284229D-03
 -0.24112809D-01 -0.84028311D-01 -0.30259955D+00 -0.66704306D+00 -0.93898133D+00
  0.44792470D-01  0.12288201D+01  0.72659366D+00 -0.15531738D-04 -0.18812727D-03
 -0.39231959D-03 -0.11251043D-02 -0.58425099D-04  0.48519953D-02  0.12536624D-01
 -0.10214251D-01  0.46600055D-01 -0.38430204D-03 -0.13194620D-03  0.25012570D-03
  0.32947405D-03  0.36346146D-03  0.30188320D-03  0.16030835D-03  0.41360393D-04
  0.25952656D-02  0.34185719D-02  0.37712199D-02  0.31322934D-02  0.16633347D-02
  0.42914905D-03  0.59413853D+01  0.78261943D+01  0.86335174D+01  0.71708122D+01
  0.38079002D+01  0.98245816D+00 -0.18553726D-07  0.17936548D-06  0.25292405D-06
  0.36174831D-06 -0.18318425D-08 -0.33175731D-06 -0.92080754D-07  0.89017748D-06
  0.12552432D-05  0.17953298D-05 -0.90912973D-08 -0.16464867D-05 -0.21079609D-03
  0.20378410D-02  0.28735685D-02  0.41099631D-02 -0.20812275D-04 -0.37692238D-02
  0.14084017D-05  0.18193045D-04  0.41653925D-01  0.78075581D-07 -0.21054135D-06
 -0.48395849D-03 -0.54732348D-08 -0.43070976D-08 -0.98425392D-05 -0.71332119D-05
 -0.71327212D-05  0.14265933D-04  0.14259900D-06 -0.12483661D-06  0.19370662D-07
 -0.11142128D-03 -0.11142144D-03  0.22284272D-03 -0.43999545D-07 -0.11374557D-06
  0.29067125D-06 -0.14325456D-04 -0.14325363D-04  0.28650819D-04 -0.17400033D-08
 -0.10325838D-06  0.37048438D-07  0.79201989D-07 -0.72133320D-05  0.54465898D-05
  0.68124943D-07  0.21626771D-04 -0.81795263D-05 -0.30573091D-06  0.13224938D-07
 -0.81602432D-05 -0.16791664D-06 -0.48703306D-07  0.20731427D-05 -0.33741043D-04
 -0.45532802D-07 -0.61318494D-05  0.50614378D-04  0.19164272D-06 -0.87578633D-07
  0.50608751D-04  0.91194314D-07 -0.87943843D-03 -0.16392747D-02 -0.27789359D-02
 -0.42076848D-02 -0.52605327D-02 -0.45250015D-02 -0.17354355D-02 -0.68420921D-06
 -0.90576489D-05 -0.32899029D-04 -0.97594349D-04 -0.11245777D-03  0.13659672D-03
 -0.95962192D-04 -0.15938393D-03  0.12436716D-04  0.22761067D-04  0.22259827D-04
  0.14708009D-04  0.17930943D-05  0.17536071D-05  0.11586823D-05  0.39017893D-02
  0.38158647D-02  0.25213031D-02  0.58954911D-05  0.40391496D-06  0.87917834D-03
 -0.34066309D-06  0.91196502D-08  0.21399145D-04  0.10703082D-06  0.47921333D-08
  0.93387651D-05 -0.35637046D-04 -0.35639178D-04  0.71276224D-04 -0.75567848D-06
  0.12348136D-05  0.10841116D-06  0.21091691D-04  0.21091933D-04 -0.42183624D-04
  0.33382572D-06 -0.49745346D-06 -0.61946449D-07  0.18113198D-04  0.18117827D-04
 -0.36231025D-04 -0.67997827D-07 -0.11601904D-05 -0.50690355D-07 -0.13147291D-05
 -0.30061189D-05  0.46407372D-04 -0.13200484D-05  0.88670539D-05 -0.69585418D-04
  0.52642357D-05  0.15130269D-06 -0.69636699D-04 -0.13859517D-05  0.54871121D-06
  0.95511054D-06 -0.25387776D-04  0.55040638D-06 -0.27870412D-05  0.38071178D-04
 -0.21965400D-05 -0.78290421D-07  0.38092150D-04  0.45259937D-06
MO    4     MO 0.0        OCC NO =    2.0000123  ORB. ENERGY =    0.000000
  0.26825149D-01  0.50007481D-01  0.84519456D-01  0.12704851D+00  0.15605633D+00
  0.13170604D+00  0.49524911D-01 -0.14574123D-05 -0.10893254D-04 -0.40710577D-04
 -0.11357617D-03 -0.15216076D-03  0.17967348D-03  0.26462288D-02 -0.36110797D-02
 -0.42309575D-04  0.41384419D-05  0.38800523D-05  0.27628284D-05  0.15992303D-05
  0.14993801D-05  0.10676479D-05  0.36697363D-02  0.34406110D-02  0.24499200D-02
 -0.11375501D-05  0.57144842D-06  0.13052334D-02 -0.10009641D-05 -0.18164917D-06
 -0.41705316D-03 -0.19125899D-07  0.14047452D-08  0.37026445D-05 -0.31918153D-03
 -0.31919245D-03  0.63837399D-03 -0.44660406D-07  0.53289906D-06  0.83653412D-06
  0.95952100D-05  0.95978294D-05 -0.19193039D-04 -0.13952538D-05  0.14177541D-05
 -0.30739501D-07 -0.17856103D-04 -0.17855498D-04  0.35711601D-04 -0.52175571D-07
  0.45899228D-06  0.47895958D-07 -0.22596830D-06 -0.42204581D-04  0.22565313D-04
 -0.29033531D-06  0.12656006D-03 -0.33907165D-04  0.96824020D-06  0.53684236D-07
 -0.33788774D-04  0.72777214D-07  0.14314139D-06  0.82087588D-04 -0.16373351D-03
  0.26855493D-06 -0.24583734D-03  0.24570761D-03 -0.69797911D-06 -0.42542499D-06
  0.24549292D-03  0.72572385D-06 -0.90318831D-04 -0.16289373D-03 -0.24018671D-03
  0.10231181D-02  0.68432225D-03  0.42694384D-05  0.11946079D-06 -0.57753996D-04
  0.33549419D-04 -0.46767449D-06  0.30467986D-03 -0.43219497D-04 -0.29534808D-07
  0.11105980D-03  0.75812793D-04 -0.14239698D-03  0.24269448D-04  0.11812753D-03
  0.76966504D-07  0.18188137D-06  0.14267045D-03 -0.14797118D-04 -0.21044232D-04
  0.35841350D-04 -0.18130733D-06  0.43049689D-07 -0.62802013D-04 -0.90385428D-04
 -0.16301384D-03 -0.24036382D-03  0.10206655D-02  0.68344875D-03  0.41673100D-05
 -0.50398722D-04  0.29194219D-04  0.33405428D-04  0.26266106D-03 -0.15200676D-03
 -0.42409755D-04  0.96011197D-04 -0.55442143D-04  0.75834997D-04 -0.17422190D-04
 -0.10043459D-03  0.11785678D-03 -0.14373106D-03  0.12401119D-03 -0.71295105D-04
 -0.19612726D-04 -0.16353357D-04  0.35966084D-04  0.54201621D-05 -0.54482866D-04
  0.31538730D-04 -0.90249128D-04 -0.16276802D-03 -0.24000135D-03  0.10255784D-02
  0.68519698D-03  0.43728960D-05  0.49655318D-04  0.28601713D-04  0.33625171D-04
 -0.26507654D-03 -0.15272744D-03 -0.43628668D-04 -0.96289202D-04 -0.55519574D-04
  0.75937286D-04 -0.17479323D-04 -0.10112182D-03  0.11860115D-03  0.14472252D-03
 -0.12309629D-03 -0.70912625D-04 -0.19311429D-04 -0.16321205D-04  0.35632635D-04
 -0.53072947D-05  0.54377468D-04  0.31400325D-04  0.91313573D-01  0.17083795D+00
  0.29517009D+00  0.47850539D+00  0.72665635D+00  0.10099840D+01  0.12007935D+01
  0.10697086D+01  0.53123992D+00  0.85525132D-01  0.90234066D-03  0.42752885D-03
  0.14261647D-01  0.49698983D-01  0.17897409D+00  0.39452610D+00  0.55536542D+00
 -0.26492740D-01 -0.72679209D+00 -0.42974761D+00  0.62778726D-05  0.76040368D-04
  0.15857417D-03  0.45476311D-03  0.23615215D-04 -0.19611591D-02 -0.50672585D-02
  0.41285637D-02 -0.28545046D-01  0.14183063D-02 -0.18170459D-03 -0.50710765D-02
 -0.66797940D-02 -0.73688584D-02 -0.61204139D-02 -0.32501096D-02 -0.83854527D-03
  0.43137725D-02  0.56822475D-02  0.62684085D-02  0.52064041D-02  0.27647450D-02
  0.71331867D-03  0.99146561D+01  0.13059921D+02  0.14407138D+02  0.11966256D+02
  0.63544140D+01  0.16394720D+01  0.15042983D-06 -0.14542588D-05 -0.20506567D-05
 -0.29329815D-05  0.14852205D-07  0.26898206D-05 -0.14652482D-06  0.14165076D-05
  0.19974236D-05  0.28568442D-05 -0.14466657D-07 -0.26199956D-05 -0.33686742D-03
  0.32566174D-02  0.45921705D-02  0.65680186D-02 -0.33259522D-04 -0.60234925D-02
 -0.36436311D-04  0.31568876D-04  0.72557534D-01 -0.15153710D-06 -0.13562268D-06
 -0.30643820D-03 -0.96870444D-08 -0.17498514D-08 -0.39586703D-05  0.45445044D-03
  0.45445046D-03 -0.90890090D-03  0.16989155D-06  0.10281293D-05 -0.11874317D-05
 -0.30967039D-03 -0.30967047D-03  0.61934085D-03 -0.59098507D-07 -0.44703901D-06
  0.80946451D-06  0.43301083D-05  0.43302081D-05 -0.86603164D-05  0.12945253D-07
  0.88473508D-07 -0.10308998D-07  0.77197057D-07 -0.14494857D-04 -0.46948944D-04
  0.55045220D-07  0.43605660D-04  0.70404270D-04 -0.28663639D-06 -0.12109031D-06
  0.70442562D-04  0.37209802D-07 -0.38621134D-07  0.42138252D-05 -0.62583297D-04
 -0.32242536D-07 -0.12476943D-04  0.93880511D-04  0.14810594D-06 -0.16453221D-06
  0.93869382D-04  0.23013151D-07 -0.63569595D-02 -0.11849383D-01 -0.20087345D-01