 Entering Gaussian System, Link 0=/home/bruns/programas/chemistry/gaussian/g09/g09
 Input=GAUSSIAN.com
 Output=GAUSSIAN.log
 Initial command:
 /home/bruns/programas/chemistry/gaussian/g09/l1.exe /home/bruns/programas/chemistry/gaussian/work/Gau-79581.inp -scrdir=/home/bruns/programas/chemistry/gaussian/work/
 Entering Link 1 = /home/bruns/programas/chemistry/gaussian/g09/l1.exe PID=     79583.
  
 Copyright (c) 1988,1990,1992,1993,1995,1998,2003,2009,2010,
            Gaussian, Inc.  All Rights Reserved.
  
 This is part of the Gaussian(R) 09 program.  It is based on
 the Gaussian(R) 03 system (copyright 2003, Gaussian, Inc.),
 the Gaussian(R) 98 system (copyright 1998, Gaussian, Inc.),
 the Gaussian(R) 94 system (copyright 1995, Gaussian, Inc.),
 the Gaussian 92(TM) system (copyright 1992, Gaussian, Inc.),
 the Gaussian 90(TM) system (copyright 1990, Gaussian, Inc.),
 the Gaussian 88(TM) system (copyright 1988, Gaussian, Inc.),
 the Gaussian 86(TM) system (copyright 1986, Carnegie Mellon
 University), and the Gaussian 82(TM) system (copyright 1983,
 Carnegie Mellon University). Gaussian is a federally registered
 trademark of Gaussian, Inc.
  
 This software contains proprietary and confidential information,
 including trade secrets, belonging to Gaussian, Inc.
  
 This software is provided under written license and may be
 used, copied, transmitted, or stored only in accord with that
 written license.
  
 The following legend is applicable only to US Government
 contracts under FAR:
  
                    RESTRICTED RIGHTS LEGEND
  
 Use, reproduction and disclosure by the US Government is
 subject to restrictions as set forth in subparagraphs (a)
 and (c) of the Commercial Computer Software - Restricted
 Rights clause in FAR 52.227-19.
  
 Gaussian, Inc.
 340 Quinnipiac St., Bldg. 40, Wallingford CT 06492
  
  
 ---------------------------------------------------------------
 Warning -- This program may not be used in any manner that
 competes with the business of Gaussian, Inc. or will provide
 assistance to any competitor of Gaussian, Inc.  The licensee
 of this program is prohibited from giving any competitor of
 Gaussian, Inc. access to this program.  By using this program,
 the user acknowledges that Gaussian, Inc. is engaged in the
 business of creating and licensing software in the field of
 computational chemistry and represents and warrants to the
 licensee that it is not a competitor of Gaussian, Inc. and that
 it will not use this program in any manner prohibited above.
 ---------------------------------------------------------------
  

 Cite this work as:
 Gaussian 09, Revision B.01,
 M. J. Frisch, G. W. Trucks, H. B. Schlegel, G. E. Scuseria, 
 M. A. Robb, J. R. Cheeseman, G. Scalmani, V. Barone, B. Mennucci, 
 G. A. Petersson, H. Nakatsuji, M. Caricato, X. Li, H. P. Hratchian, 
 A. F. Izmaylov, J. Bloino, G. Zheng, J. L. Sonnenberg, M. Hada, 
 M. Ehara, K. Toyota, R. Fukuda, J. Hasegawa, M. Ishida, T. Nakajima, 
 Y. Honda, O. Kitao, H. Nakai, T. Vreven, J. A. Montgomery, Jr., 
 J. E. Peralta, F. Ogliaro, M. Bearpark, J. J. Heyd, E. Brothers, 
 K. N. Kudin, V. N. Staroverov, T. Keith, R. Kobayashi, J. Normand, 
 K. Raghavachari, A. Rendell, J. C. Burant, S. S. Iyengar, J. Tomasi, 
 M. Cossi, N. Rega, J. M. Millam, M. Klene, J. E. Knox, J. B. Cross, 
 V. Bakken, C. Adamo, J. Jaramillo, R. Gomperts, R. E. Stratmann, 
 O. Yazyev, A. J. Austin, R. Cammi, C. Pomelli, J. W. Ochterski, 
 R. L. Martin, K. Morokuma, V. G. Zakrzewski, G. A. Voth, 
 P. Salvador, J. J. Dannenberg, S. Dapprich, A. D. Daniels, 
 O. Farkas, J. B. Foresman, J. V. Ortiz, J. Cioslowski, 
 and D. J. Fox, Gaussian, Inc., Wallingford CT, 2010.
 
 ******************************************
 Gaussian 09:  EM64L-G09RevB.01 12-Aug-2010
                24-Aug-2020 
 ******************************************
 %nproc=8
 Will use up to    8 processors via shared memory.
 %mem=8GB
 -----------------------------------------------------
 # QCISD aug-cc-pvtz nosymm density=current output=wfn
 -----------------------------------------------------
 1/30=1,38=1/1;
 2/12=2,15=1,17=6,18=5,40=1/2;
 3/5=16,6=1,7=10,11=9,16=1,25=1,30=1,71=1/1,2,3;
 4//1;
 5/5=2,38=5/2;
 8/6=4,9=120000,10=1/1,4;
 9/5=8,15=1/13;
 11/28=-7,31=1,32=3,42=3/11;
 10/5=6,13=10,31=1/2;
 6/7=2,8=2,9=2,10=2,22=-1,31=1/1;
 99/5=1,6=1100,9=1/99;
 ----------------------
 clch3f_ts-wavefunction
 ----------------------
 Symbolic Z-matrix:
 Charge = -1 Multiplicity = 1
 C                     0.00018   0.00003  -0.49771 
 H                     0.00002  -1.05257  -0.62073 
 H                    -0.91131   0.52637  -0.61125 
 H                     0.91175   0.52613  -0.62157 
 Cl                    0.00056   0.00096   1.64472 
 F                    -0.00019  -0.00092  -2.59347 
 
                          Input orientation:                          
 ---------------------------------------------------------------------
 Center     Atomic      Atomic             Coordinates (Angstroms)
 Number     Number       Type             X           Y           Z
 ---------------------------------------------------------------------
      1          6           0        0.000175    0.000029   -0.497709
      2          1           0        0.000019   -1.052570   -0.620726
      3          1           0       -0.911312    0.526365   -0.611245
      4          1           0        0.911750    0.526132   -0.621570
      5         17           0        0.000555    0.000962    1.644718
      6          9           0       -0.000186   -0.000921   -2.593468
 ---------------------------------------------------------------------
                    Distance matrix (angstroms):
                    1          2          3          4          5
     1  C    0.000000
     2  H    1.059763   0.000000
     3  H    1.058645   1.823088   0.000000
     4  H    1.059762   1.823062   1.823091   0.000000
     5  Cl   2.142427   2.498433   2.489361   2.498428   0.000000
     6  F    2.095759   2.235548   2.244413   2.235575   4.238186
                    6
     6  F    0.000000
 Symmetry turned off by external request.
 This structure is nearly, but not quite of a higher symmetry.
 Consider Symm=Loose if the higher symmetry is desired.
 Stoichiometry    CH3ClF(1-)
 Framework group  C1[X(CH3ClF)]
 Deg. of freedom    12
 Full point group                 C1      NOp   1
 Rotational constants (GHZ):    150.8791548      2.2148440      2.2148439
 Standard basis: Aug-CC-pVTZ (5D, 7F)
 Integral buffers will be    131072 words long.
 Raffenetti 1 integral format.
 Two-electron integral symmetry is turned off.
   211 basis functions,   339 primitive gaussians,   244 cartesian basis functions
    18 alpha electrons       18 beta electrons
       nuclear repulsion energy        84.9921735603 Hartrees.
 NAtoms=    6 NActive=    6 NUniq=    6 SFac= 1.00D+00 NAtFMM=   50 NAOKFM=F Big=F
 One-electron integrals computed using PRISM.
 NBasis=   211 RedAO= T  NBF=   211
 NBsUse=   211 1.00D-06 NBFU=   211
 Harris functional with IExCor=  205 diagonalized for initial guess.
 ExpMin= 2.53D-02 ExpMax= 4.56D+05 ExpMxC= 1.44D+03 IAcc=3 IRadAn=         0 AccDes= 0.00D+00
 HarFok:  IExCor=  205 AccDes= 0.00D+00 IRadAn=         0 IDoV= 1
 ScaDFX=  1.000000  1.000000  1.000000  1.000000
 FoFCou: FMM=F IPFlag=           0 FMFlag=      100000 FMFlg1=           0
         NFxFlg=           0 DoJE=T BraDBF=F KetDBF=T FulRan=T
         Omega=  0.000000  0.000000  1.000000  0.000000  0.000000 ICntrl=     500 IOpCl=  0
         NMat0=    1 NMatS0=    1 NMatT0=    0 NMatD0=    1 NMtDS0=    0 NMtDT0=    0
         I1Cent=           4 NGrid=           0.
 Symmetry not used in FoFCou.
 Requested convergence on RMS density matrix=1.00D-08 within 128 cycles.
 Requested convergence on MAX density matrix=1.00D-06.
 Requested convergence on             energy=1.00D-06.
 No special actions if energy rises.
 Keep R1 ints in memory in canonical form, NReq=454274131.
 SCF Done:  E(RHF) =  -598.617115446     A.U. after   12 cycles
             Convg  =    0.9464D-08             -V/T =  2.0001
 ExpMin= 2.53D-02 ExpMax= 4.56D+05 ExpMxC= 1.44D+03 IAcc=3 IRadAn=         5 AccDes= 0.00D+00
 HarFok:  IExCor=  205 AccDes= 0.00D+00 IRadAn=         5 IDoV=-2
 ScaDFX=  1.000000  1.000000  1.000000  1.000000
 DSYEVD returned Info=         101 IAlg= 4 N=    50 NDim=    50 NE2=    21472034 trying DSYEV.
 DSYEVD returned Info=          93 IAlg= 4 N=    46 NDim=    46 NE2=    21472034 trying DSYEV.
 Range of M.O.s used for correlation:     8   211
 NBasis=   211 NAE=    18 NBE=    18 NFC=     7 NFV=     0
 NROrb=    204 NOA=    11 NOB=    11 NVA=   193 NVB=   193

 **** Warning!!: The largest alpha MO coefficient is  0.35859218D+02

 Semi-Direct transformation.
 ModeAB=           2 MOrb=            11 LenV=    1072528236
 LASXX=     44979418 LTotXX=    44979418 LenRXX=    44979418
 LTotAB=    45631872 MaxLAS=    67073160 LenRXY=    67073160
 NonZer=    89958836 LenScr=   135708672 LnRSAI=           0
 LnScr1=           0 LExtra=           0 Total=    247761250
 MaxDsk=          -1 SrtSym=           F ITran=            4
 JobTyp=0 Pass  1:  I=   1 to  11.
 (rs|ai) integrals will be sorted in core.
 Spin components of T(2) and E(2):
     alpha-alpha T2 =       0.2567283554D-01 E2=     -0.8208097219D-01
     alpha-beta  T2 =       0.1452367692D+00 E2=     -0.5099611987D+00
     beta-beta   T2 =       0.2567283554D-01 E2=     -0.8208097219D-01
 ANorm=    0.1093884107D+01
 E2 =    -0.6741231431D+00 EUMP2 =    -0.59929123858869D+03
 R2 and R3 integrals will be kept in memory, NReq=   900794930.
 Iterations=  50 Convergence= 0.100D-07
 Iteration Nr.   1
 **********************
 DD1Dir will call FoFMem   1 times, MxPair=       132
 NAB=    66 NAA=     0 NBB=     0.
 MP4(R+Q)=  0.14436972D-01
 E3=       -0.18693226D-01        EUMP3=      -0.59930993182D+03
 E4(DQ)=   -0.45119497D-03        UMP4(DQ)=   -0.59931038301D+03
 E4(SDQ)=  -0.98192037D-02        UMP4(SDQ)=  -0.59931975102D+03
 DE(Corr)= -0.67837940     E(Corr)=     -599.29549484    
 NORM(A)=   0.10996707D+01
 Iteration Nr.   2
 **********************
 DD1Dir will call FoFMem   1 times, MxPair=       132
 NAB=    66 NAA=     0 NBB=     0.
 DE(Corr)= -0.70058051     E(CORR)=     -599.31769596     Delta=-2.22D-02
 NORM(A)=   0.11070259D+01
 Iteration Nr.   3
 **********************
 DD1Dir will call FoFMem   1 times, MxPair=       132
 NAB=    66 NAA=     0 NBB=     0.
 DE(Corr)= -0.69818324     E(CORR)=     -599.31529868     Delta= 2.40D-03
 NORM(A)=   0.11110119D+01
 Iteration Nr.   4
 **********************
 DD1Dir will call FoFMem   1 times, MxPair=       132
 NAB=    66 NAA=     0 NBB=     0.
 DE(Corr)= -0.70124242     E(CORR)=     -599.31835787     Delta=-3.06D-03
 NORM(A)=   0.11131170D+01
 Iteration Nr.   5
 **********************
 DD1Dir will call FoFMem   1 times, MxPair=       132
 NAB=    66 NAA=     0 NBB=     0.
 DE(Corr)= -0.70183736     E(CORR)=     -599.31895281     Delta=-5.95D-04
 NORM(A)=   0.11141464D+01
 Iteration Nr.   6
 **********************
 DD1Dir will call FoFMem   1 times, MxPair=       132
 NAB=    66 NAA=     0 NBB=     0.
 DE(Corr)= -0.70198386     E(CORR)=     -599.31909931     Delta=-1.46D-04
 NORM(A)=   0.11144710D+01
 Iteration Nr.   7
 **********************
 DD1Dir will call FoFMem   1 times, MxPair=       132
 NAB=    66 NAA=     0 NBB=     0.
 DE(Corr)= -0.70201346     E(CORR)=     -599.31912891     Delta=-2.96D-05
 NORM(A)=   0.11145018D+01
 Iteration Nr.   8
 **********************
 DD1Dir will call FoFMem   1 times, MxPair=       132
 NAB=    66 NAA=     0 NBB=     0.
 DE(Corr)= -0.70202723     E(CORR)=     -599.31914268     Delta=-1.38D-05
 NORM(A)=   0.11145194D+01
 Iteration Nr.   9
 **********************
 DD1Dir will call FoFMem   1 times, MxPair=       132
 NAB=    66 NAA=     0 NBB=     0.
 DE(Corr)= -0.70200413     E(CORR)=     -599.31911958     Delta= 2.31D-05
 NORM(A)=   0.11145225D+01
 Iteration Nr.  10
 **********************
 DD1Dir will call FoFMem   1 times, MxPair=       132
 NAB=    66 NAA=     0 NBB=     0.
 DE(Corr)= -0.70202333     E(CORR)=     -599.31913878     Delta=-1.92D-05
 NORM(A)=   0.11145227D+01
 Iteration Nr.  11
 **********************
 DD1Dir will call FoFMem   1 times, MxPair=       132
 NAB=    66 NAA=     0 NBB=     0.
 DE(Corr)= -0.70201418     E(CORR)=     -599.31912962     Delta= 9.16D-06
 NORM(A)=   0.11145256D+01
 Iteration Nr.  12
 **********************
 DD1Dir will call FoFMem   1 times, MxPair=       132
 NAB=    66 NAA=     0 NBB=     0.
 DE(Corr)= -0.70201792     E(CORR)=     -599.31913337     Delta=-3.75D-06
 NORM(A)=   0.11145261D+01
 Iteration Nr.  13
 **********************
 DD1Dir will call FoFMem   1 times, MxPair=       132
 NAB=    66 NAA=     0 NBB=     0.
 DE(Corr)= -0.70201850     E(CORR)=     -599.31913394     Delta=-5.72D-07
 NORM(A)=   0.11145268D+01
 Iteration Nr.  14
 **********************
 DD1Dir will call FoFMem   1 times, MxPair=       132
 NAB=    66 NAA=     0 NBB=     0.
 DE(Corr)= -0.70201872     E(CORR)=     -599.31913416     Delta=-2.21D-07
 NORM(A)=   0.11145269D+01
 Iteration Nr.  15
 **********************
 DD1Dir will call FoFMem   1 times, MxPair=       132
 NAB=    66 NAA=     0 NBB=     0.
 DE(Corr)= -0.70201863     E(CORR)=     -599.31913407     Delta= 8.83D-08
 NORM(A)=   0.11145268D+01
 Iteration Nr.  16
 **********************
 DD1Dir will call FoFMem   1 times, MxPair=       132
 NAB=    66 NAA=     0 NBB=     0.
 DE(Corr)= -0.70201883     E(CORR)=     -599.31913428     Delta=-2.03D-07
 NORM(A)=   0.11145267D+01
 Iteration Nr.  17
 **********************
 DD1Dir will call FoFMem   1 times, MxPair=       132
 NAB=    66 NAA=     0 NBB=     0.
 DE(Corr)= -0.70201870     E(CORR)=     -599.31913415     Delta= 1.29D-07
 NORM(A)=   0.11145266D+01
 Iteration Nr.  18
 **********************
 DD1Dir will call FoFMem   1 times, MxPair=       132
 NAB=    66 NAA=     0 NBB=     0.
 DE(Corr)= -0.70201874     E(CORR)=     -599.31913418     Delta=-3.64D-08
 NORM(A)=   0.11145264D+01
 Iteration Nr.  19
 **********************
 DD1Dir will call FoFMem   1 times, MxPair=       132
 NAB=    66 NAA=     0 NBB=     0.
 DE(Corr)= -0.70201869     E(CORR)=     -599.31913413     Delta= 5.17D-08
 NORM(A)=   0.11145263D+01
 Iteration Nr.  20
 **********************
 DD1Dir will call FoFMem   1 times, MxPair=       132
 NAB=    66 NAA=     0 NBB=     0.
 DE(Corr)= -0.70201869     E(CORR)=     -599.31913414     Delta=-2.72D-09
 NORM(A)=   0.11145263D+01
 Iteration Nr.  21
 **********************
 DD1Dir will call FoFMem   1 times, MxPair=       132
 NAB=    66 NAA=     0 NBB=     0.
 DE(Corr)= -0.70201867     E(CORR)=     -599.31913412     Delta= 1.97D-08
 NORM(A)=   0.11145262D+01
 Iteration Nr.  22
 **********************
 DD1Dir will call FoFMem   1 times, MxPair=       132
 NAB=    66 NAA=     0 NBB=     0.
 DE(Corr)= -0.70201867     E(CORR)=     -599.31913411     Delta= 2.35D-09
 NORM(A)=   0.11145262D+01
 Iteration Nr.  23
 **********************
 DD1Dir will call FoFMem   1 times, MxPair=       132
 NAB=    66 NAA=     0 NBB=     0.
 DE(Corr)= -0.70201866     E(CORR)=     -599.31913411     Delta= 4.83D-09
 NORM(A)=   0.11145262D+01
 Iteration Nr.  24
 **********************
 DD1Dir will call FoFMem   1 times, MxPair=       132
 NAB=    66 NAA=     0 NBB=     0.
 DE(Corr)= -0.70201866     E(CORR)=     -599.31913411     Delta=-7.73D-10
 NORM(A)=   0.11145262D+01
 Iteration Nr.  25
 **********************
 DD1Dir will call FoFMem   1 times, MxPair=       132
 NAB=    66 NAA=     0 NBB=     0.
 DE(Corr)= -0.70201866     E(CORR)=     -599.31913410     Delta= 5.35D-09
 NORM(A)=   0.11145262D+01
 Iteration Nr.  26
 **********************
 DD1Dir will call FoFMem   1 times, MxPair=       132
 NAB=    66 NAA=     0 NBB=     0.
 DE(Corr)= -0.70201866     E(CORR)=     -599.31913411     Delta=-5.24D-09
 NORM(A)=   0.11145262D+01
 Iteration Nr.  27
 **********************
 DD1Dir will call FoFMem   1 times, MxPair=       132
 NAB=    66 NAA=     0 NBB=     0.
 DE(Corr)= -0.70201866     E(CORR)=     -599.31913410     Delta= 4.59D-09
 NORM(A)=   0.11145262D+01
 Iteration Nr.  28
 **********************
 DD1Dir will call FoFMem   1 times, MxPair=       132
 NAB=    66 NAA=     0 NBB=     0.
 DE(Corr)= -0.70201866     E(CORR)=     -599.31913411     Delta=-4.18D-09
 NORM(A)=   0.11145262D+01
 Largest amplitude= 6.62D-02

 Z-AMPLITUDE ITERATIONS

 Iteration Nr.   1
 **********************
 DD1Dir will call FoFMem   1 times, MxPair=       132
 NAB=    66 NAA=     0 NBB=     0.
 DE(Z)  -0.68262996D+00          E(Z)=    -0.59929974540D+03
 NORM(A)=   0.11203396D+01
 Iteration Nr.   2
 **********************
 DD1Dir will call FoFMem   1 times, MxPair=       132
 NAB=    66 NAA=     0 NBB=     0.
 DE(Z)  -0.68325808D+00          E(Z)=    -0.59930037353D+03
 NORM(A)=   0.11146589D+01
 Iteration Nr.   3
 **********************
 DD1Dir will call FoFMem   1 times, MxPair=       132
 NAB=    66 NAA=     0 NBB=     0.
 DE(Z)  -0.68264257D+00          E(Z)=    -0.59929975802D+03
 NORM(A)=   0.11149133D+01
 Iteration Nr.   4
 **********************
 DD1Dir will call FoFMem   1 times, MxPair=       132
 NAB=    66 NAA=     0 NBB=     0.
 DE(Z)  -0.68266857D+00          E(Z)=    -0.59929978401D+03
 NORM(A)=   0.11260236D+01
 Iteration Nr.   5
 **********************
 DD1Dir will call FoFMem   1 times, MxPair=       132
 NAB=    66 NAA=     0 NBB=     0.
 DE(Z)  -0.68371492D+00          E(Z)=    -0.59930083036D+03
 NORM(A)=   0.11078719D+01
 Iteration Nr.   6
 **********************
 DD1Dir will call FoFMem   1 times, MxPair=       132
 NAB=    66 NAA=     0 NBB=     0.
 DE(Z)  -0.68196111D+00          E(Z)=    -0.59929907656D+03
 NORM(A)=   0.11078670D+01
 Iteration Nr.   7
 **********************
 DD1Dir will call FoFMem   1 times, MxPair=       132
 NAB=    66 NAA=     0 NBB=     0.
 DE(Z)  -0.68196337D+00          E(Z)=    -0.59929907882D+03
 NORM(A)=   0.11078604D+01
 Iteration Nr.   8
 **********************
 DD1Dir will call FoFMem   1 times, MxPair=       132
 NAB=    66 NAA=     0 NBB=     0.
 DE(Z)  -0.68196168D+00          E(Z)=    -0.59929907713D+03
 NORM(A)=   0.11078580D+01
 Iteration Nr.   9
 **********************
 DD1Dir will call FoFMem   1 times, MxPair=       132
 NAB=    66 NAA=     0 NBB=     0.
 DE(Z)  -0.68196114D+00          E(Z)=    -0.59929907658D+03
 NORM(A)=   0.11078570D+01
 Iteration Nr.  10
 **********************
 DD1Dir will call FoFMem   1 times, MxPair=       132
 NAB=    66 NAA=     0 NBB=     0.
 DE(Z)  -0.68196155D+00          E(Z)=    -0.59929907699D+03
 NORM(A)=   0.11078565D+01
 Iteration Nr.  11
 **********************
 DD1Dir will call FoFMem   1 times, MxPair=       132
 NAB=    66 NAA=     0 NBB=     0.
 DE(Z)  -0.68196141D+00          E(Z)=    -0.59929907685D+03
 NORM(A)=   0.11078564D+01
 Iteration Nr.  12
 **********************
 DD1Dir will call FoFMem   1 times, MxPair=       132
 NAB=    66 NAA=     0 NBB=     0.
 DE(Z)  -0.68196132D+00          E(Z)=    -0.59929907677D+03
 NORM(A)=   0.11078565D+01
 Iteration Nr.  13
 **********************
 DD1Dir will call FoFMem   1 times, MxPair=       132
 NAB=    66 NAA=     0 NBB=     0.
 DE(Z)  -0.68196143D+00          E(Z)=    -0.59929907687D+03
 NORM(A)=   0.11078565D+01
 Iteration Nr.  14
 **********************
 DD1Dir will call FoFMem   1 times, MxPair=       132
 NAB=    66 NAA=     0 NBB=     0.
 DE(Z)  -0.68196141D+00          E(Z)=    -0.59929907686D+03
 NORM(A)=   0.11078565D+01
 Iteration Nr.  15
 **********************
 DD1Dir will call FoFMem   1 times, MxPair=       132
 NAB=    66 NAA=     0 NBB=     0.
 DE(Z)  -0.68196142D+00          E(Z)=    -0.59929907687D+03
 NORM(A)=   0.11078565D+01
 Iteration Nr.  16
 **********************
 DD1Dir will call FoFMem   1 times, MxPair=       132
 NAB=    66 NAA=     0 NBB=     0.
 DE(Z)  -0.68196141D+00          E(Z)=    -0.59929907685D+03
 NORM(A)=   0.11078564D+01
 Iteration Nr.  17
 **********************
 DD1Dir will call FoFMem   1 times, MxPair=       132
 NAB=    66 NAA=     0 NBB=     0.
 DE(Z)  -0.68196142D+00          E(Z)=    -0.59929907686D+03
 NORM(A)=   0.11078564D+01
 Iteration Nr.  18
 **********************
 DD1Dir will call FoFMem   1 times, MxPair=       132
 NAB=    66 NAA=     0 NBB=     0.
 DE(Z)  -0.68196142D+00          E(Z)=    -0.59929907686D+03
 NORM(A)=   0.11078564D+01
 Iteration Nr.  19
 **********************
 DD1Dir will call FoFMem   1 times, MxPair=       132
 NAB=    66 NAA=     0 NBB=     0.
 DE(Z)  -0.68196142D+00          E(Z)=    -0.59929907687D+03
 NORM(A)=   0.11078564D+01
 Iteration Nr.  20
 **********************
 DD1Dir will call FoFMem   1 times, MxPair=       132
 NAB=    66 NAA=     0 NBB=     0.
 DE(Z)  -0.68196142D+00          E(Z)=    -0.59929907687D+03
 NORM(A)=   0.11078564D+01
 Discarding MO integrals.
          Differentiating once with respect to electric field.
                with respect to dipole field.
          Electric field/nuclear overlap derivatives assumed to be zero.
          Keep R1 ints in memory in canonical form, NReq=448662239.
          There are     1 degrees of freedom in the 1st order CPHF.  IDoFFX=0.
 LinEq1:  Iter=  0 NonCon=     1 RMS=3.11D-03 Max=1.21D-01
 AX will form     1 AO Fock derivatives at one time.
 LinEq1:  Iter=  1 NonCon=     1 RMS=6.94D-04 Max=9.45D-03
 LinEq1:  Iter=  2 NonCon=     1 RMS=2.30D-04 Max=5.71D-03
 LinEq1:  Iter=  3 NonCon=     1 RMS=9.50D-05 Max=1.45D-03
 LinEq1:  Iter=  4 NonCon=     1 RMS=3.84D-05 Max=4.09D-04
 LinEq1:  Iter=  5 NonCon=     1 RMS=1.06D-05 Max=2.25D-04
 LinEq1:  Iter=  6 NonCon=     1 RMS=2.42D-06 Max=4.23D-05
 LinEq1:  Iter=  7 NonCon=     1 RMS=6.05D-07 Max=9.11D-06
 LinEq1:  Iter=  8 NonCon=     1 RMS=1.49D-07 Max=1.80D-06
 LinEq1:  Iter=  9 NonCon=     1 RMS=3.03D-08 Max=7.46D-07
 LinEq1:  Iter= 10 NonCon=     1 RMS=6.54D-09 Max=8.91D-08
 LinEq1:  Iter= 11 NonCon=     1 RMS=1.05D-09 Max=1.16D-08
 LinEq1:  Iter= 12 NonCon=     1 RMS=1.68D-10 Max=2.84D-09
 LinEq1:  Iter= 13 NonCon=     0 RMS=2.39D-11 Max=3.20D-10
 Linear equations converged to 1.000D-10 1.000D-09 after    13 iterations.
 End of Minotr Frequency-dependent properties file   721 does not exist.
 End of Minotr Frequency-dependent properties file   722 does not exist.

 **********************************************************************

            Population analysis using the QCI/CC density.

 **********************************************************************

     Natural Orbital Coefficients:
                           1         2         3         4         5
     Eigenvalues --     2.00003   2.00003   2.00002   2.00001   2.00001
   1 1   C  1S          0.00017   0.00000  -0.04319   0.08124   0.97613
   2        2S          0.00001   0.00000   0.00131   0.00049  -0.01332
   3        3S          0.00001   0.00000  -0.00131   0.00404   0.03985
   4        4S         -0.00020   0.00000  -0.01270  -0.02368   0.00290
   5        5S         -0.00001   0.00000  -0.00121  -0.00064  -0.00064
   6        6PX         0.00005   0.00003   0.00000   0.00001   0.00000
   7        6PY        -0.00003   0.00004   0.00000   0.00000   0.00000
   8        6PZ         0.00000   0.00000   0.00054   0.00168   0.00086
   9        7PX         0.00074   0.00043   0.00000   0.00000   0.00000
  10        7PY        -0.00043   0.00074   0.00000   0.00000   0.00000
  11        7PZ         0.00000   0.00000   0.00142   0.00304  -0.00090
  12        8PX         0.00398   0.00229   0.00002   0.00004   0.00000
  13        8PY        -0.00230   0.00397  -0.00002  -0.00003   0.00000
  14        8PZ        -0.00007   0.00000  -0.00377  -0.00415  -0.00305
  15        9PX         0.00036   0.00021   0.00000   0.00000   0.00000
  16        9PY        -0.00021   0.00036   0.00000   0.00000   0.00000
  17        9PZ         0.00000   0.00000   0.00021   0.00017  -0.00049
  18       10D 0        0.00000   0.00000   0.00011   0.00033  -0.00058
  19       10D+1       -0.00013  -0.00008   0.00000   0.00000  -0.00001
  20       10D-1        0.00008  -0.00013   0.00000   0.00000   0.00000
  21       10D+2       -0.00002   0.00003   0.00000   0.00000   0.00000
  22       10D-2        0.00003   0.00002   0.00000   0.00000   0.00000
  23       11D 0        0.00001   0.00000   0.00022  -0.00007  -0.00027
  24       11D+1        0.00024   0.00013   0.00001   0.00002   0.00001
  25       11D-1       -0.00014   0.00022   0.00000  -0.00001  -0.00001
  26       11D+2       -0.00051   0.00089   0.00000   0.00000   0.00000
  27       11D-2        0.00089   0.00051   0.00000   0.00000   0.00000
  28       12D 0        0.00000   0.00000  -0.00078   0.00120  -0.00237
  29       12D+1       -0.00111  -0.00065   0.00001   0.00002  -0.00001
  30       12D-1        0.00064  -0.00113  -0.00001  -0.00001   0.00001
  31       12D+2       -0.00082   0.00143  -0.00001  -0.00001   0.00000
  32       12D-2        0.00143   0.00082   0.00001   0.00002   0.00000
  33       13F 0        0.00000   0.00000   0.00001   0.00003   0.00019
  34       13F+1       -0.00016  -0.00009   0.00000   0.00000   0.00000
  35       13F-1        0.00010  -0.00016   0.00000   0.00000   0.00000
  36       13F+2       -0.00001   0.00001   0.00000   0.00000   0.00000
  37       13F-2        0.00002   0.00001   0.00000   0.00000   0.00000
  38       13F+3        0.00000   0.00000   0.00000   0.00000   0.00000
  39       13F-3        0.00000   0.00000  -0.00006   0.00007   0.00090
  40       14F 0       -0.00001   0.00000  -0.00113  -0.00215  -0.00018
  41       14F+1        0.00050   0.00029   0.00000  -0.00001   0.00000
  42       14F-1       -0.00029   0.00049   0.00000   0.00000   0.00000
  43       14F+2       -0.00018   0.00029   0.00000  -0.00001  -0.00001
  44       14F-2        0.00030   0.00017   0.00000   0.00001   0.00002
  45       14F+3        0.00000   0.00000   0.00000   0.00000   0.00000
  46       14F-3       -0.00002   0.00000  -0.00087  -0.00138  -0.00193
  47 2   H  1S          0.00008  -0.00014  -0.00002  -0.00035  -0.00135
  48        2S         -0.00057   0.00105   0.00246   0.00336  -0.00061
  49        3S         -0.00435   0.00759   0.00181   0.00525  -0.00431
  50        4S          0.00014  -0.00024   0.00011   0.00009  -0.00013
  51        5PX         0.00000   0.00000   0.00000   0.00000   0.00000
  52        5PY        -0.00002   0.00003   0.00004  -0.00003  -0.00048
  53        5PZ        -0.00001   0.00001   0.00001   0.00002  -0.00009
  54        6PX         0.00017   0.00010   0.00000   0.00000   0.00000
  55        6PY        -0.00033   0.00058   0.00046   0.00070  -0.00079
  56        6PZ        -0.00031   0.00053  -0.00001  -0.00010   0.00023
  57        7PX         0.00081   0.00047   0.00001   0.00001   0.00000
  58        7PY        -0.00105   0.00183   0.00053   0.00134  -0.00100
  59        7PZ        -0.00014   0.00024   0.00047   0.00092  -0.00006
  60        8D 0       -0.00002   0.00003   0.00001   0.00007   0.00014
  61        8D+1       -0.00001  -0.00001   0.00000   0.00000   0.00000
  62        8D-1       -0.00005   0.00008   0.00002   0.00005  -0.00004
  63        8D+2        0.00002  -0.00004  -0.00004  -0.00005   0.00028
  64        8D-2        0.00001   0.00001   0.00000   0.00000   0.00000
  65        9D 0       -0.00019   0.00034   0.00015   0.00026   0.00063
  66        9D+1        0.00022   0.00012   0.00000   0.00000   0.00001
  67        9D-1       -0.00007   0.00011  -0.00014  -0.00026   0.00001
  68        9D+2        0.00006  -0.00011   0.00001   0.00002  -0.00010
  69        9D-2        0.00011   0.00006   0.00000   0.00000   0.00000
  70 3   H  1S         -0.00015   0.00000  -0.00002  -0.00035  -0.00135
  71        2S          0.00126   0.00000   0.00247   0.00335  -0.00062
  72        3S          0.00881   0.00000   0.00189   0.00540  -0.00430
  73        4S         -0.00028   0.00000   0.00012   0.00011  -0.00013
  74        5PX         0.00003   0.00000   0.00004  -0.00002  -0.00042
  75        5PY        -0.00002   0.00000  -0.00002   0.00001   0.00024
  76        5PZ         0.00001   0.00000   0.00001   0.00002  -0.00008
  77        6PX         0.00058   0.00010   0.00039   0.00059  -0.00069
  78        6PY        -0.00034   0.00017  -0.00023  -0.00034   0.00040
  79        6PZ         0.00064   0.00000  -0.00002  -0.00010   0.00026
  80        7PX         0.00184   0.00047   0.00048   0.00119  -0.00087
  81        7PY        -0.00106   0.00081  -0.00027  -0.00069   0.00050
  82        7PZ         0.00028   0.00000   0.00048   0.00093  -0.00004
  83        8D 0        0.00004   0.00000   0.00001   0.00007   0.00014
  84        8D+1        0.00008  -0.00001   0.00002   0.00004  -0.00003
  85        8D-1       -0.00005  -0.00001  -0.00001  -0.00002   0.00002
  86        8D+2        0.00002   0.00001   0.00002   0.00003  -0.00014
  87        8D-2       -0.00004   0.00000  -0.00004  -0.00005   0.00024
  88        9D 0        0.00039   0.00000   0.00015   0.00026   0.00063
  89        9D+1        0.00011   0.00012  -0.00012  -0.00022   0.00002
  90        9D-1       -0.00006   0.00021   0.00007   0.00013  -0.00001
  91        9D+2        0.00006   0.00011  -0.00001  -0.00001   0.00005
  92        9D-2       -0.00011   0.00006   0.00001   0.00002  -0.00009
  93 4   H  1S          0.00008   0.00014  -0.00002  -0.00035  -0.00135
  94        2S         -0.00057  -0.00105   0.00246   0.00336  -0.00061
  95        3S         -0.00435  -0.00759   0.00181   0.00525  -0.00431
  96        4S          0.00014   0.00024   0.00011   0.00009  -0.00013
  97        5PX         0.00001   0.00002  -0.00004   0.00002   0.00042
  98        5PY         0.00001   0.00001  -0.00002   0.00001   0.00024
  99        5PZ        -0.00001  -0.00001   0.00001   0.00002  -0.00009
 100        6PX         0.00037   0.00045  -0.00040  -0.00061   0.00069
 101        6PY         0.00002   0.00037  -0.00023  -0.00035   0.00040
 102        6PZ        -0.00031  -0.00054  -0.00001  -0.00010   0.00023
 103        7PX         0.00131   0.00135  -0.00046  -0.00116   0.00087
 104        7PY        -0.00018   0.00132  -0.00027  -0.00068   0.00050
 105        7PZ        -0.00014  -0.00024   0.00047   0.00092  -0.00006
 106        8D 0       -0.00002  -0.00003   0.00001   0.00007   0.00014
 107        8D+1        0.00004   0.00007  -0.00002  -0.00004   0.00003
 108        8D-1        0.00003   0.00003  -0.00001  -0.00002   0.00002
 109        8D+2       -0.00002  -0.00002   0.00002   0.00003  -0.00014
 110        8D-2       -0.00002  -0.00004   0.00004   0.00005  -0.00024
 111        9D 0       -0.00019  -0.00034   0.00015   0.00026   0.00063
 112        9D+1        0.00016   0.00003   0.00012   0.00022   0.00000
 113        9D-1       -0.00015   0.00016   0.00007   0.00013  -0.00001
 114        9D+2       -0.00012   0.00000  -0.00001  -0.00001   0.00005
 115        9D-2        0.00000  -0.00013  -0.00001  -0.00002   0.00009
 116 5   Cl 1S         -0.00001   0.00000  -0.25044   0.14824  -0.02295
 117        2S          0.00002   0.00000   0.84537  -0.50111   0.07868
 118        3S         -0.00001   0.00000  -0.02308   0.00936  -0.00239
 119        4S          0.00000   0.00000   0.06651  -0.04082   0.00646
 120        5S          0.00003   0.00000  -0.00208   0.00781   0.00350
 121        6S          0.00000   0.00000  -0.00154  -0.00212   0.00300
 122        7PX         0.84755   0.48972  -0.00089  -0.00147  -0.00006
 123        7PY        -0.48972   0.84755   0.00079   0.00130   0.00001
 124        7PZ         0.00225  -0.00046   0.50176   0.83532  -0.04790
 125        8PX        -0.01658  -0.00958   0.00001   0.00002   0.00000
 126        8PY         0.00958  -0.01658  -0.00001  -0.00002   0.00000
 127        8PZ        -0.00005   0.00001  -0.00880  -0.01404   0.00012
 128        9PX         0.04532   0.02618  -0.00005  -0.00008   0.00000
 129        9PY        -0.02618   0.04532   0.00004   0.00008   0.00000
 130        9PZ         0.00012  -0.00002   0.02849   0.04950  -0.00272
 131       10PX        -0.00500  -0.00289   0.00001   0.00001   0.00001
 132       10PY         0.00289  -0.00500  -0.00001  -0.00001  -0.00001
 133       10PZ        -0.00003   0.00000  -0.00436  -0.00277  -0.00346
 134       11PX        -0.00186  -0.00107   0.00000   0.00000   0.00000
 135       11PY         0.00107  -0.00186   0.00000   0.00000   0.00000
 136       11PZ         0.00000   0.00000  -0.00037  -0.00015  -0.00053
 137       12D 0        0.00000   0.00000   0.00001  -0.00051  -0.00017
 138       12D+1       -0.00028  -0.00016   0.00000   0.00000   0.00000
 139       12D-1        0.00016  -0.00027   0.00000   0.00000   0.00000
 140       12D+2        0.00000   0.00001   0.00000   0.00000   0.00000
 141       12D-2        0.00001   0.00000   0.00000   0.00000   0.00000
 142       13D 0        0.00001   0.00000   0.00088   0.00243   0.00041
 143       13D+1        0.00070   0.00040   0.00000   0.00000   0.00000
 144       13D-1       -0.00041   0.00070   0.00000   0.00000   0.00000
 145       13D+2        0.00001  -0.00002   0.00000   0.00000   0.00000
 146       13D-2       -0.00002  -0.00001   0.00000   0.00000   0.00000
 147       14D 0        0.00000   0.00000   0.00058  -0.00017   0.00079
 148       14D+1       -0.00062  -0.00035   0.00000   0.00000  -0.00001
 149       14D-1        0.00036  -0.00061   0.00000   0.00000   0.00000
 150       14D+2       -0.00002   0.00003   0.00000   0.00000   0.00000
 151       14D-2        0.00003   0.00002   0.00000   0.00000   0.00000
 152       15F 0        0.00000   0.00000   0.00001  -0.00007  -0.00003
 153       15F+1       -0.00001   0.00000   0.00000   0.00000   0.00000
 154       15F-1        0.00000   0.00000   0.00000   0.00000   0.00000
 155       15F+2       -0.00001   0.00002   0.00000   0.00000   0.00000
 156       15F-2        0.00002   0.00001   0.00000   0.00000   0.00000
 157       15F+3        0.00000   0.00000   0.00000   0.00000   0.00000
 158       15F-3        0.00000   0.00000   0.00001   0.00003   0.00000
 159       16F 0        0.00000   0.00000  -0.00032  -0.00058  -0.00031
 160       16F+1       -0.00019  -0.00011   0.00000   0.00000   0.00000
 161       16F-1        0.00011  -0.00019   0.00000   0.00000   0.00000
 162       16F+2        0.00002  -0.00003   0.00000   0.00000   0.00000
 163       16F-2       -0.00003  -0.00002   0.00000   0.00000   0.00000
 164       16F+3        0.00000   0.00000   0.00000   0.00000   0.00000
 165       16F-3        0.00000   0.00000  -0.00002  -0.00005   0.00002
 166 6   F  1S          0.00000   0.00000  -0.00144  -0.01037  -0.04967
 167        2S          0.00000   0.00000   0.00020   0.00043   0.00079
 168        3S          0.00000   0.00000  -0.00007  -0.00045  -0.00202
 169        4S         -0.00001   0.00000  -0.00055  -0.00105   0.00057
 170        5S          0.00001   0.00000   0.00010  -0.00166   0.00180
 171        6PX        -0.00004  -0.00002   0.00000   0.00000   0.00000
 172        6PY         0.00002  -0.00004   0.00000   0.00000   0.00000
 173        6PZ         0.00000   0.00000   0.00058   0.00111   0.00011
 174        7PX         0.00000   0.00000   0.00000   0.00000   0.00000
 175        7PY         0.00000  -0.00001   0.00000   0.00000   0.00000
 176        7PZ         0.00000   0.00000   0.00069   0.00132   0.00001
 177        8PX        -0.00021  -0.00012   0.00000   0.00000   0.00000
 178        8PY         0.00012  -0.00021   0.00000   0.00000   0.00000
 179        8PZ         0.00000   0.00000   0.00008   0.00017   0.00049
 180        9PX        -0.00031  -0.00018   0.00000   0.00000   0.00000
 181        9PY         0.00018  -0.00031   0.00000   0.00000   0.00000
 182        9PZ         0.00000   0.00000   0.00017  -0.00008   0.00072
 183       10D 0        0.00000   0.00000   0.00001   0.00001  -0.00002
 184       10D+1       -0.00001   0.00000   0.00000   0.00000   0.00000
 185       10D-1        0.00000  -0.00001   0.00000   0.00000   0.00000
 186       10D+2        0.00000   0.00001   0.00000   0.00000   0.00000
 187       10D-2        0.00001   0.00000   0.00000   0.00000   0.00000
 188       11D 0        0.00000   0.00000  -0.00003  -0.00010   0.00001
 189       11D+1        0.00004   0.00002   0.00000   0.00000   0.00000
 190       11D-1       -0.00002   0.00004   0.00000   0.00000   0.00000
 191       11D+2        0.00002  -0.00003   0.00000   0.00000   0.00000
 192       11D-2       -0.00003  -0.00002   0.00000   0.00000   0.00000
 193       12D 0        0.00000   0.00000  -0.00019  -0.00012   0.00012
 194       12D+1       -0.00020  -0.00011   0.00000   0.00000   0.00000
 195       12D-1        0.00011  -0.00019   0.00000   0.00000   0.00000
 196       12D+2       -0.00005   0.00009   0.00000   0.00000   0.00000
 197       12D-2        0.00009   0.00005   0.00000   0.00000   0.00000
 198       13F 0        0.00000   0.00000   0.00001  -0.00001  -0.00004
 199       13F+1        0.00002   0.00001   0.00000   0.00000   0.00000
 200       13F-1       -0.00001   0.00002   0.00000   0.00000   0.00000
 201       13F+2        0.00001  -0.00001   0.00000   0.00000   0.00000
 202       13F-2       -0.00001  -0.00001   0.00000   0.00000   0.00000
 203       13F+3        0.00000   0.00000   0.00000   0.00000   0.00000
 204       13F-3        0.00000   0.00000   0.00000   0.00000   0.00000
 205       14F 0        0.00000   0.00000  -0.00004   0.00002   0.00013
 206       14F+1       -0.00005  -0.00003   0.00000   0.00000   0.00000
 207       14F-1        0.00003  -0.00005   0.00000   0.00000   0.00000
 208       14F+2       -0.00002   0.00004   0.00000   0.00000   0.00000
 209       14F-2        0.00004   0.00002   0.00000   0.00000   0.00000
 210       14F+3        0.00000   0.00000   0.00000   0.00000   0.00000
 211       14F-3        0.00000   0.00000   0.00000   0.00000  -0.00001
                           6         7         8         9        10
     Eigenvalues --     2.00000   2.00000   1.98361   1.97544   1.96949
   1 1   C  1S          0.05030  -0.00046   0.01541  -0.07349  -0.14374
   2        2S         -0.00012  -0.00001  -0.04199   0.19942   0.39735
   3        3S          0.00230  -0.00003  -0.01040   0.04628   0.09617
   4        4S         -0.00715   0.00016   0.00577   0.07921   0.19077
   5        5S         -0.00018   0.00010   0.00791  -0.00691  -0.02898
   6        6PX         0.00000   0.00000  -0.00003  -0.00025  -0.00027
   7        6PY         0.00000   0.00000   0.00002   0.00015   0.00014
   8        6PZ         0.00004   0.00000   0.00642   0.01048  -0.02683
   9        7PX         0.00001   0.00000  -0.00010  -0.00027  -0.00033
  10        7PY        -0.00001   0.00000   0.00006   0.00016   0.00017
  11        7PZ        -0.00075   0.00000   0.00700   0.01806  -0.03197
  12        8PX         0.00001   0.00000  -0.00021  -0.00011  -0.00009
  13        8PY         0.00000   0.00000   0.00013   0.00007   0.00004
  14        8PZ         0.00518   0.00009   0.01653   0.00595  -0.02253
  15        9PX         0.00000   0.00000  -0.00001  -0.00001  -0.00001
  16        9PY         0.00000   0.00000   0.00000   0.00001   0.00000
  17        9PZ         0.00011   0.00001  -0.00071   0.00032  -0.00409
  18       10D 0        0.00004   0.00000   0.00051  -0.00215  -0.00958
  19       10D+1        0.00000   0.00000   0.00001  -0.00004  -0.00009
  20       10D-1        0.00000   0.00000   0.00000   0.00002   0.00004
  21       10D+2        0.00000   0.00000   0.00000   0.00001   0.00001
  22       10D-2        0.00000   0.00000   0.00000  -0.00002  -0.00003
  23       11D 0       -0.00022  -0.00002  -0.00530   0.00458  -0.01878
  24       11D+1        0.00001   0.00000   0.00006  -0.00008  -0.00022
  25       11D-1        0.00000   0.00000  -0.00004   0.00005   0.00011
  26       11D+2       -0.00001   0.00000   0.00004   0.00002   0.00001
  27       11D-2        0.00001   0.00000  -0.00008  -0.00003  -0.00002
  28       12D 0        0.00027   0.00008   0.00210  -0.00840  -0.01678
  29       12D+1        0.00001   0.00000   0.00001   0.00000  -0.00003
  30       12D-1        0.00000   0.00000   0.00000  -0.00001   0.00000
  31       12D+2       -0.00001   0.00000   0.00005  -0.00001  -0.00003
  32       12D-2        0.00001   0.00000  -0.00008   0.00002   0.00006
  33       13F 0       -0.00007   0.00000   0.00001   0.00241   0.00062
  34       13F+1        0.00000   0.00000   0.00000   0.00001   0.00001
  35       13F-1        0.00000   0.00000   0.00000   0.00000  -0.00001
  36       13F+2        0.00000   0.00000   0.00000   0.00001   0.00002
  37       13F-2        0.00000   0.00000   0.00001  -0.00002  -0.00003
  38       13F+3        0.00000   0.00000   0.00000   0.00000   0.00000
  39       13F-3        0.00001   0.00000  -0.00014   0.00194   0.00397
  40       14F 0        0.00127  -0.00001   0.00469   0.00263  -0.00194
  41       14F+1        0.00001   0.00000   0.00000   0.00002   0.00002
  42       14F-1        0.00000   0.00000   0.00001  -0.00001  -0.00001
  43       14F+2        0.00000   0.00000  -0.00002   0.00002   0.00004
  44       14F-2        0.00000   0.00000   0.00004  -0.00003  -0.00007
  45       14F+3        0.00000   0.00000   0.00000   0.00000   0.00000
  46       14F-3       -0.00046   0.00003   0.00190  -0.00098   0.00402
  47 2   H  1S         -0.00008   0.00000  -0.00859   0.03714   0.08043
  48        2S          0.00100  -0.00006  -0.01530   0.04369   0.08362
  49        3S          0.00182   0.00004  -0.00074  -0.00492  -0.01213
  50        4S          0.00004   0.00000  -0.00047   0.00052   0.00040
  51        5PX         0.00000   0.00000   0.00000   0.00000   0.00000
  52        5PY         0.00001   0.00000  -0.00109   0.00399   0.00862
  53        5PZ        -0.00004   0.00000   0.00028   0.00095   0.00035
  54        6PX         0.00000   0.00000  -0.00003  -0.00001   0.00000
  55        6PY         0.00008   0.00000  -0.00072   0.00080   0.00122
  56        6PZ         0.00032  -0.00001   0.00005   0.00246  -0.00044
  57        7PX         0.00001   0.00000  -0.00005   0.00001   0.00003
  58        7PY         0.00044   0.00001   0.00139  -0.00495  -0.01031
  59        7PZ        -0.00055   0.00001  -0.00279  -0.00171  -0.00129
  60        8D 0        0.00006   0.00000   0.00014  -0.00035  -0.00091
  61        8D+1        0.00000   0.00000   0.00000   0.00000   0.00000
  62        8D-1       -0.00001   0.00000  -0.00015   0.00050   0.00024
  63        8D+2       -0.00002   0.00000   0.00003  -0.00054  -0.00137
  64        8D-2        0.00000   0.00000   0.00000   0.00000   0.00000
  65        9D 0        0.00009  -0.00001  -0.00007   0.00122   0.00102
  66        9D+1        0.00000   0.00000   0.00001   0.00000  -0.00001
  67        9D-1        0.00014   0.00000  -0.00006   0.00005  -0.00036
  68        9D+2        0.00004   0.00000  -0.00099   0.00226   0.00415
  69        9D-2        0.00000   0.00000  -0.00001   0.00000   0.00000
  70 3   H  1S         -0.00008   0.00000  -0.00850   0.03753   0.08067
  71        2S          0.00103  -0.00006  -0.01544   0.04409   0.08382
  72        3S          0.00185   0.00004  -0.00138  -0.00496  -0.01197
  73        4S          0.00003   0.00000  -0.00049   0.00049   0.00041
  74        5PX         0.00001   0.00000  -0.00094   0.00350   0.00750
  75        5PY        -0.00001   0.00000   0.00054  -0.00202  -0.00433
  76        5PZ        -0.00004   0.00000   0.00028   0.00093   0.00028
  77        6PX         0.00008   0.00000  -0.00068   0.00071   0.00102
  78        6PY        -0.00005   0.00000   0.00040  -0.00041  -0.00059
  79        6PZ         0.00032  -0.00001   0.00019   0.00235  -0.00061
  80        7PX         0.00038   0.00001   0.00107  -0.00434  -0.00897
  81        7PY        -0.00022   0.00000  -0.00062   0.00251   0.00518
  82        7PZ        -0.00055   0.00001  -0.00277  -0.00169  -0.00123
  83        8D 0        0.00006   0.00000   0.00014  -0.00036  -0.00091
  84        8D+1       -0.00001   0.00000  -0.00011   0.00042   0.00018
  85        8D-1        0.00000   0.00000   0.00006  -0.00024  -0.00010
  86        8D+2        0.00001   0.00000  -0.00002   0.00028   0.00069
  87        8D-2       -0.00001   0.00000   0.00003  -0.00048  -0.00119
  88        9D 0        0.00009  -0.00001  -0.00006   0.00123   0.00105
  89        9D+1        0.00012   0.00000  -0.00003   0.00005  -0.00030
  90        9D-1       -0.00007   0.00000   0.00002  -0.00003   0.00017
  91        9D+2       -0.00002   0.00000   0.00049  -0.00113  -0.00208
  92        9D-2        0.00003   0.00000  -0.00084   0.00196   0.00360
  93 4   H  1S         -0.00008   0.00000  -0.00858   0.03714   0.08043
  94        2S          0.00100  -0.00006  -0.01530   0.04369   0.08362
  95        3S          0.00182   0.00004  -0.00074  -0.00492  -0.01213
  96        4S          0.00004   0.00000  -0.00047   0.00052   0.00040
  97        5PX        -0.00001   0.00000   0.00094  -0.00346  -0.00747
  98        5PY        -0.00001   0.00000   0.00054  -0.00199  -0.00431
  99        5PZ        -0.00004   0.00000   0.00028   0.00096   0.00035
 100        6PX        -0.00006   0.00000   0.00061  -0.00069  -0.00106
 101        6PY        -0.00004   0.00000   0.00038  -0.00039  -0.00061
 102        6PZ         0.00032  -0.00001   0.00005   0.00246  -0.00044
 103        7PX        -0.00038  -0.00001  -0.00123   0.00430   0.00895
 104        7PY        -0.00023   0.00000  -0.00065   0.00246   0.00513
 105        7PZ        -0.00055   0.00001  -0.00279  -0.00172  -0.00129
 106        8D 0        0.00006   0.00000   0.00014  -0.00035  -0.00091
 107        8D+1        0.00001   0.00000   0.00013  -0.00043  -0.00021
 108        8D-1        0.00000   0.00000   0.00007  -0.00025  -0.00012
 109        8D+2        0.00001   0.00000  -0.00001   0.00027   0.00069
 110        8D-2        0.00001   0.00000  -0.00003   0.00047   0.00119
 111        9D 0        0.00009  -0.00001  -0.00007   0.00122   0.00102
 112        9D+1       -0.00012   0.00000   0.00006  -0.00004   0.00031
 113        9D-1       -0.00007   0.00000   0.00003  -0.00002   0.00019
 114        9D+2       -0.00002   0.00000   0.00050  -0.00113  -0.00208
 115        9D-2       -0.00003   0.00000   0.00085  -0.00196  -0.00359
 116 5   Cl 1S          0.00006   0.99708  -0.00064   0.06644  -0.03486
 117        2S         -0.00005   0.01040   0.00293  -0.25179   0.13104
 118        3S          0.00005   0.00017  -0.00391   0.52441  -0.27879
 119        4S          0.00008   0.00026  -0.00025   0.06423  -0.03755
 120        5S         -0.00180  -0.00020  -0.01232   0.35076  -0.17097
 121        6S         -0.00049  -0.00011  -0.00462   0.02454   0.01127
 122        7PX        -0.00002   0.00000   0.00000   0.00003   0.00006
 123        7PY         0.00001   0.00000   0.00000  -0.00001  -0.00002
 124        7PZ         0.00725   0.00016   0.00153   0.00464   0.02890
 125        8PX         0.00000   0.00000   0.00001  -0.00009  -0.00014
 126        8PY         0.00000   0.00000  -0.00001   0.00005   0.00004
 127        8PZ         0.00051  -0.00003  -0.00229  -0.00618  -0.07231
 128        9PX         0.00000   0.00000   0.00000  -0.00004  -0.00007
 129        9PY         0.00000   0.00000   0.00000   0.00002   0.00002
 130        9PZ         0.00031   0.00003  -0.00265   0.00060  -0.03154
 131       10PX         0.00000   0.00000   0.00000  -0.00005  -0.00005
 132       10PY         0.00000   0.00000   0.00000   0.00003   0.00000
 133       10PZ         0.00094   0.00015   0.00270   0.00295  -0.05249
 134       11PX         0.00000   0.00000   0.00000   0.00000   0.00000
 135       11PY         0.00000   0.00000   0.00000   0.00000   0.00000
 136       11PZ         0.00002   0.00002  -0.00041   0.00262  -0.00876
 137       12D 0       -0.00003   0.00001  -0.00035   0.00450   0.00455
 138       12D+1        0.00000   0.00000   0.00000   0.00001   0.00002
 139       12D-1        0.00000   0.00000   0.00000   0.00000   0.00000
 140       12D+2        0.00000   0.00000   0.00000   0.00000   0.00000
 141       12D-2        0.00000   0.00000   0.00000   0.00000   0.00000
 142       13D 0       -0.00022   0.00000  -0.00163   0.00820   0.00970
 143       13D+1        0.00000   0.00000   0.00000   0.00001   0.00000
 144       13D-1        0.00000   0.00000   0.00000   0.00000   0.00001
 145       13D+2        0.00000   0.00000   0.00000   0.00000   0.00000
 146       13D-2        0.00000   0.00000   0.00000   0.00000   0.00000
 147       14D 0       -0.00014  -0.00004  -0.00184  -0.00018   0.00538
 148       14D+1        0.00000   0.00000   0.00000   0.00001  -0.00002
 149       14D-1        0.00000   0.00000   0.00000  -0.00001   0.00002
 150       14D+2        0.00000   0.00000   0.00000   0.00000   0.00000
 151       14D-2        0.00000   0.00000   0.00000   0.00000   0.00001
 152       15F 0        0.00005   0.00000   0.00023  -0.00180  -0.00192
 153       15F+1        0.00000   0.00000   0.00000   0.00000   0.00000
 154       15F-1        0.00000   0.00000   0.00000   0.00000   0.00000
 155       15F+2        0.00000   0.00000   0.00000   0.00000   0.00000
 156       15F-2        0.00000   0.00000   0.00000   0.00000   0.00000
 157       15F+3        0.00000   0.00000   0.00000   0.00000   0.00000
 158       15F-3       -0.00001   0.00000  -0.00001   0.00002   0.00009
 159       16F 0       -0.00005   0.00001   0.00005  -0.00093  -0.00171
 160       16F+1        0.00000   0.00000   0.00000   0.00001   0.00001
 161       16F-1        0.00000   0.00000   0.00000  -0.00001  -0.00001
 162       16F+2        0.00000   0.00000   0.00000   0.00000   0.00001
 163       16F-2        0.00000   0.00000   0.00001   0.00000  -0.00001
 164       16F+3        0.00000   0.00000   0.00000   0.00000   0.00000
 165       16F-3        0.00003   0.00000   0.00002  -0.00001  -0.00021
 166 6   F  1S          0.97743  -0.00002   0.21189   0.01315   0.02154
 167        2S         -0.01503   0.00000  -0.53163  -0.03405  -0.05714
 168        3S          0.04206   0.00000  -0.16472  -0.01081  -0.01847
 169        4S          0.00193  -0.00001  -0.36878  -0.02361  -0.04372
 170        5S         -0.00082  -0.00006  -0.04528   0.00426   0.00796
 171        6PX         0.00000   0.00000  -0.00004   0.00004   0.00047
 172        6PY         0.00000   0.00000   0.00003  -0.00002  -0.00023
 173        6PZ         0.00048   0.00000   0.01360   0.01270   0.08716
 174        7PX         0.00000   0.00000  -0.00005   0.00005   0.00056
 175        7PY         0.00000   0.00000   0.00004  -0.00002  -0.00027
 176        7PZ        -0.00012   0.00000   0.01485   0.01552   0.10487
 177        8PX         0.00000   0.00000  -0.00005   0.00002   0.00043
 178        8PY         0.00000   0.00000   0.00003  -0.00001  -0.00021
 179        8PZ         0.00240  -0.00001   0.01254   0.01229   0.08346
 180        9PX         0.00000   0.00000  -0.00002   0.00001   0.00014
 181        9PY         0.00000   0.00000   0.00001   0.00000  -0.00007
 182        9PZ        -0.00008  -0.00002   0.00222   0.00318   0.02419
 183       10D 0       -0.00002   0.00000  -0.00013   0.00017   0.00060
 184       10D+1        0.00000   0.00000   0.00000   0.00000   0.00000
 185       10D-1        0.00000   0.00000   0.00000   0.00000   0.00000
 186       10D+2        0.00000   0.00000   0.00000   0.00000   0.00000
 187       10D-2        0.00000   0.00000   0.00000   0.00000   0.00000
 188       11D 0       -0.00003   0.00000  -0.00104   0.00091   0.00275
 189       11D+1        0.00000   0.00000   0.00000   0.00000   0.00000
 190       11D-1        0.00000   0.00000   0.00000   0.00000   0.00000
 191       11D+2        0.00000   0.00000   0.00000   0.00000   0.00000
 192       11D-2        0.00000   0.00000   0.00000   0.00000   0.00000
 193       12D 0        0.00080   0.00000  -0.00055   0.00036   0.00387
 194       12D+1        0.00000   0.00000   0.00000  -0.00001  -0.00001
 195       12D-1        0.00000   0.00000   0.00000   0.00001   0.00001
 196       12D+2        0.00000   0.00000   0.00000   0.00000   0.00000
 197       12D-2        0.00000   0.00000   0.00000   0.00000   0.00000
 198       13F 0       -0.00006   0.00000  -0.00002   0.00013   0.00027
 199       13F+1        0.00000   0.00000   0.00000   0.00000   0.00000
 200       13F-1        0.00000   0.00000   0.00000   0.00000   0.00000
 201       13F+2        0.00000   0.00000   0.00000   0.00000   0.00000
 202       13F-2        0.00000   0.00000   0.00000   0.00000   0.00000
 203       13F+3        0.00000   0.00000   0.00000   0.00000   0.00000
 204       13F-3        0.00001   0.00000   0.00001   0.00002   0.00003
 205       14F 0        0.00020   0.00000  -0.00040  -0.00006   0.00063
 206       14F+1        0.00000   0.00000   0.00000   0.00000  -0.00001
 207       14F-1        0.00000   0.00000   0.00000   0.00000   0.00000
 208       14F+2        0.00000   0.00000   0.00000   0.00000   0.00000
 209       14F-2        0.00000   0.00000   0.00000   0.00000   0.00000
 210       14F+3        0.00000   0.00000   0.00000   0.00000   0.00000
 211       14F-3       -0.00001   0.00000  -0.00006  -0.00006  -0.00009
                          11        12        13        14        15
     Eigenvalues --     1.96437   1.96437   1.95929   1.95924   1.94911
   1 1   C  1S          0.00000   0.00028  -0.00017   0.00000   0.00000
   2        2S          0.00000  -0.00082   0.00050   0.00000  -0.00001
   3        3S          0.00000  -0.00024   0.00014   0.00000   0.00000
   4        4S          0.00000   0.00046  -0.00181   0.00001  -0.00001
   5        5S          0.00000   0.00009  -0.00024   0.00000   0.00000
   6        6PX         0.04877   0.08523   0.20007   0.11538   0.03423
   7        6PY         0.08481  -0.04901  -0.11530   0.20021   0.05872
   8        6PZ        -0.00004  -0.00045  -0.00120  -0.00011  -0.00003
   9        7PX         0.06536   0.11424   0.26520   0.15293   0.04757
  10        7PY         0.11366  -0.06569  -0.15283   0.26536   0.08162
  11        7PZ        -0.00006  -0.00057  -0.00155  -0.00014  -0.00005
  12        8PX         0.04786   0.08337   0.20490   0.11808   0.03659
  13        8PY         0.08323  -0.04794  -0.11808   0.20490   0.06277
  14        8PZ        -0.00004  -0.00055  -0.00127  -0.00011  -0.00004
  15        9PX        -0.00111  -0.00187   0.01637   0.00947   0.00618
  16        9PY        -0.00192   0.00108  -0.00943   0.01644   0.01060
  17        9PZ         0.00000   0.00003  -0.00010  -0.00001  -0.00001
  18       10D 0        0.00000   0.00004   0.00003   0.00000   0.00000
  19       10D+1       -0.00135  -0.00229  -0.00096  -0.00064  -0.00188
  20       10D-1       -0.00234   0.00131   0.00054  -0.00110  -0.00322
  21       10D+2        0.00541  -0.00313  -0.00741   0.01285   0.00434
  22       10D-2        0.00310   0.00544   0.01287   0.00740   0.00253
  23       11D 0        0.00001   0.00005   0.00018  -0.00001   0.00001
  24       11D+1       -0.00637  -0.01081   0.00712   0.00379  -0.00780
  25       11D-1       -0.01105   0.00621  -0.00413   0.00662  -0.01337
  26       11D+2        0.01797  -0.01030  -0.02269   0.03928   0.01476
  27       11D-2        0.01032   0.01791   0.03941   0.02262   0.00858
  28       12D 0        0.00000   0.00013   0.00008   0.00000   0.00000
  29       12D+1       -0.00305  -0.00526   0.00528   0.00275   0.00055
  30       12D-1       -0.00529   0.00302  -0.00307   0.00481   0.00095
  31       12D+2        0.01747  -0.00992  -0.01809   0.03119   0.00867
  32       12D-2        0.01004   0.01727   0.03143   0.01796   0.00505
  33       13F 0        0.00000   0.00001   0.00003   0.00000   0.00000
  34       13F+1        0.00012   0.00021  -0.00175  -0.00100  -0.00113
  35       13F-1        0.00021  -0.00012   0.00101  -0.00174  -0.00193
  36       13F+2       -0.00056   0.00031   0.00004  -0.00011  -0.00029
  37       13F-2       -0.00032  -0.00054  -0.00007  -0.00007  -0.00017
  38       13F+3       -0.00001   0.00000   0.00000   0.00000   0.00000
  39       13F-3        0.00000  -0.00001  -0.00001   0.00000   0.00000
  40       14F 0        0.00000  -0.00004   0.00002   0.00001   0.00001
  41       14F+1        0.00020   0.00026  -0.00507  -0.00291  -0.00365
  42       14F-1        0.00034  -0.00014   0.00292  -0.00506  -0.00627
  43       14F+2       -0.00337   0.00187  -0.00005  -0.00008  -0.00278
  44       14F-2       -0.00193  -0.00325   0.00008  -0.00005  -0.00163
  45       14F+3       -0.00003   0.00000   0.00000   0.00001  -0.00003
  46       14F-3        0.00000   0.00009  -0.00014   0.00000   0.00000
  47 2   H  1S         -0.05835   0.03355   0.07572  -0.13134  -0.04042
  48        2S         -0.05256   0.03006   0.07742  -0.13382  -0.03980
  49        3S          0.05035  -0.02902  -0.05958   0.10354   0.00452
  50        4S         -0.00503   0.00285  -0.00865   0.01508   0.00094
  51        5PX         0.00104   0.00182   0.00378   0.00218   0.00053
  52        5PY        -0.00458   0.00263   0.00620  -0.01074  -0.00311
  53        5PZ         0.00003  -0.00002   0.00137  -0.00242   0.00016
  54        6PX         0.00399   0.00695   0.01180   0.00680   0.00186
  55        6PY         0.00627  -0.00365  -0.00555   0.00973   0.00485
  56        6PZ        -0.00242   0.00129  -0.00031   0.00034  -0.00101
  57        7PX         0.00464   0.00795   0.01172   0.00667   0.00139
  58        7PY         0.01223  -0.00711  -0.02270   0.03953   0.00839
  59        7PZ         0.00057  -0.00030  -0.00387   0.00649   0.00250
  60        8D 0        0.00036  -0.00020  -0.00068   0.00118   0.00035
  61        8D+1        0.00001   0.00002   0.00028   0.00016  -0.00002
  62        8D-1       -0.00065   0.00036   0.00011  -0.00021  -0.00025
  63        8D+2        0.00052  -0.00030  -0.00096   0.00167   0.00045
  64        8D-2        0.00052   0.00091   0.00194   0.00112   0.00030
  65        9D 0       -0.00047   0.00025  -0.00073   0.00127  -0.00013
  66        9D+1       -0.00077  -0.00132   0.00089   0.00051  -0.00059
  67        9D-1       -0.00289   0.00164  -0.00173   0.00296  -0.00040
  68        9D+2       -0.00140   0.00081   0.00134  -0.00231  -0.00093
  69        9D-2        0.00082   0.00142   0.00251   0.00144   0.00056
  70 3   H  1S          0.00013  -0.06766  -0.15160   0.00014  -0.00019
  71        2S          0.00011  -0.06123  -0.15356   0.00014  -0.00018
  72        3S         -0.00011   0.05774   0.12072  -0.00011   0.00002
  73        4S          0.00001  -0.00577   0.01737  -0.00002   0.00000
  74        5PX         0.00105  -0.00463  -0.01074   0.00221   0.00052
  75        5PY         0.00180   0.00268   0.00620   0.00380   0.00092
  76        5PZ         0.00000   0.00007  -0.00266   0.00000   0.00000
  77        6PX         0.00402   0.00622   0.00988   0.00681   0.00188
  78        6PY         0.00699  -0.00358  -0.00569   0.01182   0.00321
  79        6PZ         0.00000  -0.00284   0.00054  -0.00001  -0.00001
  80        7PX         0.00464   0.01223   0.03967   0.00664   0.00140
  81        7PY         0.00808  -0.00704  -0.02289   0.01158   0.00235
  82        7PZ        -0.00001   0.00029   0.00733  -0.00001   0.00001
  83        8D 0        0.00000   0.00042   0.00135   0.00000   0.00000
  84        8D+1        0.00000  -0.00063  -0.00016   0.00015  -0.00002
  85        8D-1        0.00001   0.00036   0.00009   0.00026  -0.00003
  86        8D+2        0.00092  -0.00030  -0.00096   0.00195   0.00052
  87        8D-2        0.00053   0.00053   0.00166   0.00112   0.00030
  88        9D 0        0.00000  -0.00057   0.00144   0.00000   0.00000
  89        9D+1       -0.00078  -0.00290   0.00293   0.00048  -0.00060
  90        9D-1       -0.00136   0.00167  -0.00169   0.00084  -0.00103
  91        9D+2        0.00145   0.00081   0.00133   0.00248   0.00097
  92        9D-2        0.00084  -0.00140  -0.00230   0.00144   0.00056
  93 4   H  1S          0.05823   0.03376   0.07597   0.13120   0.04060
  94        2S          0.05245   0.03026   0.07766   0.13368   0.03998
  95        3S         -0.05024  -0.02920  -0.05977  -0.10343  -0.00454
  96        4S          0.00502   0.00287  -0.00868  -0.01506  -0.00095
  97        5PX        -0.00448  -0.00139  -0.00350  -0.01038  -0.00297
  98        5PY        -0.00138  -0.00290  -0.00638  -0.00346  -0.00111
  99        5PZ        -0.00002  -0.00002   0.00139   0.00243  -0.00015
 100        6PX         0.00341   0.00665   0.01071   0.00501   0.00330
 101        6PY         0.00661  -0.00417  -0.00743   0.01077   0.00403
 102        6PZ         0.00241   0.00130  -0.00031  -0.00035   0.00101
 103        7PX         0.00823   0.01017   0.02557   0.03086   0.00661
 104        7PY         0.01014  -0.00330   0.00124   0.02553   0.00539
 105        7PZ        -0.00058  -0.00031  -0.00390  -0.00652  -0.00252
 106        8D 0       -0.00035  -0.00021  -0.00069  -0.00118  -0.00035
 107        8D+1       -0.00057  -0.00031   0.00004  -0.00026  -0.00021
 108        8D-1       -0.00032  -0.00020  -0.00029   0.00003  -0.00014
 109        8D+2        0.00072  -0.00064  -0.00120   0.00180   0.00048
 110        8D-2        0.00019   0.00071   0.00181   0.00088   0.00024
 111        9D 0        0.00047   0.00025  -0.00073  -0.00128   0.00013
 112        9D+1       -0.00211  -0.00209   0.00195   0.00230  -0.00006
 113        9D-1       -0.00211   0.00031   0.00009   0.00192  -0.00070
 114        9D+2        0.00002  -0.00164  -0.00284   0.00009   0.00001
 115        9D-2       -0.00163   0.00000   0.00009  -0.00271  -0.00109
 116 5   Cl 1S          0.00000   0.00010   0.00009   0.00000   0.00000
 117        2S          0.00000  -0.00037  -0.00035   0.00000   0.00000
 118        3S          0.00000   0.00078   0.00069   0.00000   0.00000
 119        4S          0.00000   0.00011   0.00010   0.00000   0.00000
 120        5S          0.00000   0.00059   0.00076   0.00000   0.00000
 121        6S          0.00000   0.00003   0.00016   0.00000   0.00000
 122        7PX        -0.00438  -0.00770  -0.03765  -0.02175   0.11259
 123        7PY        -0.00762   0.00443   0.02170  -0.03774   0.19316
 124        7PZ         0.00000  -0.00007  -0.00011   0.00002  -0.00010
 125        8PX         0.01037   0.01822   0.08895   0.05139  -0.25756
 126        8PY         0.01804  -0.01048  -0.05126   0.08917  -0.44188
 127        8PZ        -0.00001   0.00012   0.00019  -0.00005   0.00023
 128        9PX         0.00481   0.00846   0.04115   0.02377  -0.12441
 129        9PY         0.00837  -0.00486  -0.02372   0.04125  -0.21345
 130        9PZ         0.00000   0.00007   0.00013  -0.00002   0.00011
 131       10PX         0.00517   0.00914   0.04808   0.02784  -0.18517
 132       10PY         0.00900  -0.00525  -0.02771   0.04830  -0.31768
 133       10PZ         0.00000  -0.00003  -0.00016  -0.00003   0.00017
 134       11PX         0.00106   0.00182   0.00291   0.00169  -0.03133
 135       11PY         0.00184  -0.00105  -0.00168   0.00293  -0.05375
 136       11PZ         0.00000  -0.00003  -0.00007   0.00000   0.00003
 137       12D 0        0.00000  -0.00004  -0.00006   0.00001   0.00000
 138       12D+1       -0.00094  -0.00166  -0.00538  -0.00309   0.00011
 139       12D-1       -0.00164   0.00095   0.00310  -0.00536   0.00020
 140       12D+2        0.00010  -0.00006  -0.00028   0.00047   0.00022
 141       12D-2        0.00006   0.00010   0.00048   0.00027   0.00013
 142       13D 0        0.00000  -0.00003  -0.00003   0.00001   0.00000
 143       13D+1       -0.00145  -0.00255  -0.00948  -0.00547   0.00036
 144       13D-1       -0.00252   0.00147   0.00546  -0.00949   0.00062
 145       13D+2        0.00028  -0.00016  -0.00033   0.00056   0.00049
 146       13D-2        0.00016   0.00028   0.00055   0.00032   0.00029
 147       14D 0        0.00000   0.00000   0.00004   0.00000   0.00000
 148       14D+1        0.00003   0.00002   0.00004   0.00002   0.00170
 149       14D-1        0.00005  -0.00001  -0.00002   0.00003   0.00292
 150       14D+2       -0.00057   0.00032   0.00003  -0.00006   0.00008
 151       14D-2       -0.00033  -0.00056  -0.00005  -0.00004   0.00005
 152       15F 0        0.00000   0.00001   0.00001   0.00000   0.00000
 153       15F+1        0.00044   0.00077   0.00227   0.00131  -0.00071
 154       15F-1        0.00077  -0.00044  -0.00131   0.00227  -0.00121
 155       15F+2       -0.00010   0.00006   0.00017  -0.00030  -0.00009
 156       15F-2       -0.00006  -0.00010  -0.00029  -0.00017  -0.00005
 157       15F+3        0.00000   0.00000   0.00000   0.00000   0.00000
 158       15F-3        0.00000   0.00000   0.00000   0.00000   0.00000
 159       16F 0        0.00000   0.00000  -0.00001   0.00000   0.00000
 160       16F+1        0.00030   0.00053   0.00172   0.00100  -0.00090
 161       16F-1        0.00051  -0.00030  -0.00099   0.00174  -0.00155
 162       16F+2        0.00001  -0.00001  -0.00010   0.00016  -0.00017
 163       16F-2        0.00001   0.00002   0.00017   0.00010  -0.00010
 164       16F+3        0.00000   0.00000   0.00000   0.00000   0.00000
 165       16F-3        0.00000   0.00000  -0.00001   0.00000   0.00000
 166 6   F  1S          0.00000   0.00005   0.00014   0.00000   0.00000
 167        2S          0.00000  -0.00012  -0.00036   0.00000   0.00000
 168        3S          0.00000  -0.00004  -0.00012   0.00000   0.00000
 169        4S          0.00000  -0.00020  -0.00040   0.00000   0.00000
 170        5S          0.00000  -0.00008  -0.00019   0.00000   0.00000
 171        6PX         0.16562   0.28781  -0.14073  -0.08087  -0.01139
 172        6PY         0.28801  -0.16550   0.08110  -0.14032  -0.01955
 173        6PZ        -0.00016   0.00073   0.00083   0.00008   0.00002
 174        7PX         0.19757   0.34332  -0.16688  -0.09588  -0.01348
 175        7PY         0.34356  -0.19743   0.09617  -0.16638  -0.02314
 176        7PZ        -0.00019   0.00087   0.00100   0.00009   0.00003
 177        8PX         0.15971   0.27754  -0.14029  -0.08065  -0.01155
 178        8PY         0.27773  -0.15960   0.08085  -0.13995  -0.01982
 179        8PZ        -0.00016   0.00063   0.00071   0.00008   0.00002
 180        9PX         0.05019   0.08722  -0.04939  -0.02842  -0.00562
 181        9PY         0.08728  -0.05016   0.02846  -0.04932  -0.00964
 182        9PZ        -0.00005   0.00018   0.00012   0.00003   0.00001
 183       10D 0        0.00000   0.00000   0.00001   0.00000   0.00000
 184       10D+1        0.00030   0.00052   0.00008   0.00005   0.00006
 185       10D-1        0.00052  -0.00030  -0.00004   0.00008   0.00010
 186       10D+2        0.00002  -0.00001  -0.00002   0.00003   0.00001
 187       10D-2        0.00001   0.00002   0.00003   0.00002   0.00000
 188       11D 0        0.00000   0.00000   0.00002   0.00000   0.00000
 189       11D+1        0.00121   0.00210   0.00105   0.00061   0.00030
 190       11D-1        0.00210  -0.00121  -0.00060   0.00106   0.00051
 191       11D+2        0.00005  -0.00002  -0.00013   0.00022   0.00015
 192       11D-2        0.00003   0.00004   0.00022   0.00013   0.00009
 193       12D 0        0.00000  -0.00001   0.00003   0.00000   0.00000
 194       12D+1        0.00295   0.00514  -0.00306  -0.00177   0.00016
 195       12D-1        0.00514  -0.00295   0.00177  -0.00307   0.00027
 196       12D+2        0.00004   0.00000   0.00014  -0.00025  -0.00032
 197       12D-2        0.00002   0.00001  -0.00024  -0.00015  -0.00018
 198       13F 0        0.00000   0.00000   0.00000   0.00000   0.00000
 199       13F+1        0.00011   0.00019   0.00021   0.00013   0.00003
 200       13F-1        0.00019  -0.00011  -0.00012   0.00022   0.00005
 201       13F+2        0.00005  -0.00003  -0.00005   0.00010   0.00005
 202       13F-2        0.00003   0.00005   0.00010   0.00006   0.00003
 203       13F+3        0.00000   0.00000   0.00000   0.00000   0.00000
 204       13F-3        0.00000   0.00000   0.00000   0.00000   0.00000
 205       14F 0        0.00000   0.00000   0.00000   0.00000   0.00000
 206       14F+1        0.00073   0.00127  -0.00074  -0.00043   0.00001
 207       14F-1        0.00126  -0.00073   0.00043  -0.00076   0.00001
 208       14F+2       -0.00011   0.00007   0.00012  -0.00021  -0.00014
 209       14F-2       -0.00006  -0.00012  -0.00020  -0.00012  -0.00008
 210       14F+3        0.00000   0.00000   0.00000   0.00000   0.00000
 211       14F-3        0.00000   0.00000   0.00000   0.00000   0.00000
                          16        17        18        19        20
     Eigenvalues --     1.94911   1.94878   1.93536   0.06017   0.02493
   1 1   C  1S          0.00159   0.05308  -0.01612  -0.02348   0.00000
   2        2S         -0.00454  -0.15108   0.05187   0.06487  -0.00002
   3        3S         -0.00109  -0.03561   0.01696   0.02346  -0.00001
   4        4S         -0.00790  -0.29384   0.08856  -0.21825   0.00004
   5        5S         -0.00178  -0.05814   0.03929  -0.02777   0.00001
   6        6PX         0.05874  -0.00257  -0.00080   0.00144   0.07715
   7        6PY        -0.03424   0.00147   0.00039  -0.00068   0.13396
   8        6PZ        -0.00161  -0.04590  -0.12858   0.27952  -0.00007
   9        7PX         0.08160  -0.00347  -0.00109   0.00194   0.14327
  10        7PY        -0.04756   0.00198   0.00053  -0.00088   0.24876
  11        7PZ        -0.00231  -0.06504  -0.18040   0.44354  -0.00013
  12        8PX         0.06255  -0.00222  -0.00096   0.00083   0.06593
  13        8PY        -0.03646   0.00125   0.00052  -0.00037   0.11448
  14        8PZ        -0.00213  -0.06435  -0.07659   0.20141  -0.00006
  15        9PX         0.01055  -0.00037  -0.00013   0.00019   0.01469
  16        9PY        -0.00615   0.00021   0.00008  -0.00011   0.02551
  17        9PZ        -0.00007  -0.00126  -0.00167   0.00003  -0.00001
  18       10D 0        0.00028   0.00935  -0.01107  -0.00876  -0.00002
  19       10D+1       -0.00317   0.00014  -0.00004  -0.00001   0.01274
  20       10D-1        0.00185  -0.00007   0.00001   0.00000   0.02213
  21       10D+2       -0.00253   0.00010   0.00001   0.00003   0.00332
  22       10D-2        0.00434  -0.00017  -0.00002  -0.00006   0.00192
  23       11D 0        0.00143   0.04999  -0.04574   0.06616  -0.00006
  24       11D+1       -0.01319   0.00045  -0.00014   0.00028   0.02983
  25       11D-1        0.00768  -0.00021   0.00004  -0.00010   0.05186
  26       11D+2       -0.00858   0.00021   0.00005   0.00019   0.06070
  27       11D-2        0.01472  -0.00036  -0.00009  -0.00032   0.03496
  28       12D 0        0.00068   0.02788  -0.00393  -0.01629  -0.00001
  29       12D+1        0.00109   0.00009  -0.00003  -0.00002   0.00937
  30       12D-1       -0.00064  -0.00003   0.00001   0.00000   0.01629
  31       12D+2       -0.00503   0.00001   0.00006   0.00009   0.01332
  32       12D-2        0.00864  -0.00002  -0.00010  -0.00015   0.00767
  33       13F 0       -0.00005  -0.00208  -0.00328  -0.00590   0.00001
  34       13F+1       -0.00193   0.00006   0.00000  -0.00007  -0.00479
  35       13F-1        0.00113  -0.00004  -0.00001   0.00003  -0.00831
  36       13F+2        0.00016   0.00000   0.00000   0.00000   0.00268
  37       13F-2       -0.00027   0.00001   0.00000  -0.00001   0.00153
  38       13F+3        0.00000   0.00000   0.00000   0.00000   0.00002
  39       13F-3       -0.00009  -0.00307   0.00116  -0.00052   0.00000
  40       14F 0       -0.00011  -0.00539  -0.00087   0.01144   0.00000
  41       14F+1       -0.00628   0.00024  -0.00002  -0.00005  -0.00128
  42       14F-1        0.00366  -0.00015   0.00001   0.00005  -0.00222
  43       14F+2        0.00160  -0.00003   0.00002  -0.00007  -0.00180
  44       14F-2       -0.00276   0.00006  -0.00004   0.00016  -0.00104
  45       14F+3        0.00000  -0.00001   0.00000  -0.00001   0.00004
  46       14F-3       -0.00042  -0.01531   0.00920  -0.03708   0.00000
  47 2   H  1S          0.02255  -0.03466   0.02872  -0.00657   0.03521
  48        2S          0.02301  -0.00369   0.02259   0.07938   0.22410
  49        3S         -0.00205   0.02199   0.02022   0.06848   0.14403
  50        4S         -0.00051   0.00017   0.00196   0.00713   0.06236
  51        5PX         0.00091  -0.00005  -0.00002   0.00008   0.00139
  52        5PY         0.00175  -0.00221   0.00248  -0.00200  -0.00758
  53        5PZ        -0.00017  -0.00268  -0.00322   0.01432  -0.01058
  54        6PX         0.00323  -0.00009  -0.00006  -0.00003   0.00377
  55        6PY        -0.00267   0.00567  -0.00152   0.00973   0.05126
  56        6PZ         0.00054  -0.00094  -0.01028   0.02799  -0.00490
  57        7PX         0.00240   0.00010  -0.00004  -0.00019  -0.00057
  58        7PY        -0.00458   0.01134  -0.00164   0.01259   0.04402
  59        7PZ        -0.00128   0.00807   0.00314  -0.01398   0.00455
  60        8D 0       -0.00020   0.00015  -0.00085   0.00059   0.00222
  61        8D+1       -0.00003   0.00000   0.00000   0.00000   0.00090
  62        8D-1        0.00014  -0.00021  -0.00171   0.00672  -0.00346
  63        8D+2       -0.00025   0.00053  -0.00060   0.00185   0.00224
  64        8D-2        0.00052  -0.00002  -0.00001   0.00003   0.00105
  65        9D 0        0.00011   0.00088  -0.00282   0.00579  -0.00287
  66        9D+1       -0.00102   0.00003  -0.00002   0.00002   0.00225
  67        9D-1        0.00028   0.00203  -0.00054  -0.00592   0.01338
  68        9D+2        0.00057   0.00106   0.00034  -0.00111  -0.00824
  69        9D-2        0.00097   0.00000  -0.00001  -0.00008   0.00060
  70 3   H  1S         -0.04765  -0.03202   0.02895  -0.00569  -0.00004
  71        2S         -0.04616  -0.00041   0.02279   0.07979  -0.00031
  72        3S          0.00557   0.02315   0.01994   0.06709  -0.00021
  73        4S          0.00103   0.00016   0.00187   0.00702  -0.00009
  74        5PX        -0.00318  -0.00174   0.00213  -0.00156   0.00146
  75        5PY         0.00183   0.00100  -0.00123   0.00091   0.00251
  76        5PZ         0.00016  -0.00264  -0.00327   0.01433   0.00001
  77        6PX         0.00493   0.00474  -0.00144   0.00834   0.00375
  78        6PY        -0.00286  -0.00274   0.00083  -0.00480   0.00664
  79        6PZ        -0.00119  -0.00121  -0.01029   0.02751   0.00000
  80        7PX         0.00857   0.00949  -0.00154   0.01059  -0.00062
  81        7PY        -0.00496  -0.00547   0.00089  -0.00612  -0.00094
  82        7PZ         0.00307   0.00782   0.00322  -0.01435  -0.00001
  83        8D 0        0.00043   0.00015  -0.00083   0.00041   0.00000
  84        8D+1       -0.00025  -0.00019  -0.00150   0.00581   0.00089
  85        8D-1        0.00015   0.00011   0.00086  -0.00336   0.00153
  86        8D+2       -0.00027  -0.00025   0.00029  -0.00091   0.00187
  87        8D-2        0.00047   0.00043  -0.00051   0.00158   0.00108
  88        9D 0       -0.00007   0.00090  -0.00282   0.00568   0.00000
  89        9D+1       -0.00038   0.00169  -0.00046  -0.00516   0.00219
  90        9D-1        0.00022  -0.00098   0.00026   0.00299   0.00382
  91        9D+2        0.00052  -0.00055  -0.00018   0.00049   0.00097
  92        9D-2       -0.00091   0.00095   0.00031  -0.00085   0.00058
  93 4   H  1S          0.02222  -0.03466   0.02872  -0.00657  -0.03515
  94        2S          0.02269  -0.00368   0.02259   0.07938  -0.22380
  95        3S         -0.00202   0.02200   0.02022   0.06847  -0.14385
  96        4S         -0.00050   0.00017   0.00196   0.00713  -0.06227
  97        5PX        -0.00103   0.00189  -0.00216   0.00178  -0.00725
  98        5PY        -0.00166   0.00114  -0.00123   0.00094  -0.00257
  99        5PZ        -0.00017  -0.00268  -0.00321   0.01432   0.01057
 100        6PX         0.00390  -0.00495   0.00128  -0.00843   0.04245
 101        6PY        -0.00149  -0.00276   0.00080  -0.00481   0.02887
 102        6PZ         0.00053  -0.00094  -0.01028   0.02800   0.00485
 103        7PX         0.00511  -0.00977   0.00140  -0.01100   0.03837
 104        7PY         0.00017  -0.00574   0.00085  -0.00614   0.02148
 105        7PZ        -0.00127   0.00808   0.00314  -0.01397  -0.00458
 106        8D 0       -0.00020   0.00015  -0.00085   0.00060  -0.00221
 107        8D+1       -0.00013   0.00018   0.00148  -0.00582  -0.00344
 108        8D-1       -0.00004   0.00010   0.00085  -0.00336  -0.00094
 109        8D+2       -0.00033  -0.00025   0.00031  -0.00095   0.00203
 110        8D-2        0.00047  -0.00047   0.00052  -0.00159   0.00140
 111        9D 0        0.00011   0.00089  -0.00282   0.00579   0.00284
 112        9D+1       -0.00075  -0.00174   0.00046   0.00515   0.01045
 113        9D-1        0.00075  -0.00104   0.00028   0.00295   0.00864
 114        9D+2       -0.00112  -0.00053  -0.00016   0.00062  -0.00359
 115        9D-2        0.00000  -0.00092  -0.00030   0.00092  -0.00741
 116 5   Cl 1S          0.00031   0.01019   0.00048  -0.01677   0.00000
 117        2S         -0.00120  -0.03892  -0.00158   0.05627   0.00000
 118        3S          0.00247   0.08036   0.01105  -0.15648   0.00000
 119        4S          0.00038   0.01241   0.00449  -0.03985   0.00000
 120        5S          0.00221   0.06918   0.01204  -0.04630   0.00000
 121        6S          0.00075   0.02066  -0.01259   0.01543   0.00000
 122        7PX         0.19311  -0.00540   0.00008   0.00019   0.01050
 123        7PY        -0.11256   0.00315  -0.00016  -0.00020   0.01824
 124        7PZ         0.00094   0.02667  -0.21016  -0.16321  -0.00001
 125        8PX        -0.44176   0.01232  -0.00017  -0.00040  -0.01638
 126        8PY         0.25748  -0.00719   0.00035   0.00042  -0.02844
 127        8PZ        -0.00221  -0.06229   0.46472   0.36016   0.00001
 128        9PX        -0.21339   0.00597  -0.00007  -0.00025  -0.01746
 129        9PY         0.12438  -0.00349   0.00016   0.00026  -0.03031
 130        9PZ        -0.00111  -0.03106   0.21835   0.20626   0.00001
 131       10PX        -0.31763   0.00889  -0.00002  -0.00006   0.00839
 132       10PY         0.18513  -0.00521   0.00018   0.00005   0.01457
 133       10PZ        -0.00247  -0.07241   0.31799   0.02936  -0.00001
 134       11PX        -0.05374   0.00155   0.00004  -0.00012   0.00296
 135       11PY         0.03132  -0.00091   0.00000   0.00007   0.00513
 136       11PZ        -0.00081  -0.02406   0.04629   0.00730   0.00000
 137       12D 0       -0.00016  -0.00472  -0.01237   0.06740   0.00004
 138       12D+1        0.00018   0.00001   0.00004  -0.00008  -0.02892
 139       12D-1       -0.00011  -0.00001  -0.00003   0.00011  -0.05022
 140       12D+2       -0.00012   0.00000   0.00000   0.00000   0.00082
 141       12D-2        0.00021  -0.00001   0.00000  -0.00001   0.00044
 142       13D 0       -0.00026  -0.00753  -0.01940   0.09780   0.00007
 143       13D+1        0.00060   0.00004   0.00005  -0.00022  -0.04317
 144       13D-1       -0.00035  -0.00003  -0.00004   0.00022  -0.07496
 145       13D+2       -0.00027   0.00001   0.00000   0.00000   0.00130
 146       13D-2        0.00047  -0.00001   0.00000   0.00000   0.00070
 147       14D 0        0.00000   0.00156  -0.01325   0.03012   0.00001
 148       14D+1        0.00291  -0.00007  -0.00001  -0.00002  -0.00471
 149       14D-1       -0.00170   0.00004  -0.00001   0.00004  -0.00818
 150       14D+2       -0.00002   0.00000   0.00000   0.00001   0.00024
 151       14D-2        0.00004   0.00000   0.00001  -0.00001   0.00013
 152       15F 0        0.00003   0.00098   0.00458  -0.00358  -0.00001
 153       15F+1       -0.00121   0.00003  -0.00001   0.00000   0.00248
 154       15F-1        0.00071  -0.00001   0.00001  -0.00001   0.00430
 155       15F+2        0.00005   0.00000   0.00000   0.00000  -0.00019
 156       15F-2       -0.00009   0.00001   0.00000   0.00001  -0.00011
 157       15F+3        0.00000   0.00000   0.00000   0.00000   0.00000
[...]
  81        7PY        -2.11185  -9.03435   4.42738   1.07308  -3.06493
  82        7PZ        -0.39786   0.00374  -3.58274  -0.02192   0.00058
  83        8D 0       -0.03887   0.00008  -0.00151   0.02457   0.00002
  84        8D+1        0.01411  -0.02217  -0.01741   0.00906   0.00240
  85        8D-1       -0.00818  -0.03823   0.01009  -0.00518   0.00414
  86        8D+2        0.05941   0.10549   0.01823   0.02551   0.02545
  87        8D-2       -0.10266   0.06099  -0.03171  -0.04420   0.01476
  88        9D 0       -0.62389   0.00054   0.29844  -0.16049   0.00046
  89        9D+1       -0.16027   0.20854  -0.22535  -0.03983  -0.04163
  90        9D-1        0.09264   0.35922   0.12948   0.02245  -0.07188
  91        9D+2        0.10179  -1.58555  -0.69173  -0.36966  -0.50586
  92        9D-2       -0.18081  -0.91369   1.20015   0.64070  -0.29149
  93 4   H  1S         -0.03177  -0.00799  -0.01708  -0.01094   0.02288
  94        2S         -0.35382   3.02572   1.68835  -0.48997  -1.89102
  95        3S          2.45866  24.36977  15.72025  -2.92545 -22.35835
  96        4S          1.79508  -1.66745  -0.37298  -1.92620  -9.66913
  97        5PX        -0.05529   0.05801   0.07887  -0.08110  -0.10073
  98        5PY         0.00057   0.09484  -0.05221  -0.04764  -0.02772
  99        5PZ         0.05460   0.01149   0.02397   0.03095   0.00950
 100        6PX        -0.00366  -1.47824  -1.78328   0.56867   1.11122
 101        6PY        -0.46047  -1.71151   0.34049   0.34060   0.33777
 102        6PZ        -0.31844   0.00901  -0.08783  -0.16291  -0.14686
 103        7PX         1.83033  -4.72801  -8.61184   1.65196   6.46044
 104        7PY        -2.34278  -8.75707   4.91442   1.03960   1.67842
 105        7PZ        -1.98691   2.77074   1.10981   0.04068  -0.71736
 106        8D 0       -0.03313  -0.00986  -0.01872   0.02261   0.01627
 107        8D+1       -0.00037  -0.00854  -0.03095  -0.00846  -0.01306
 108        8D-1       -0.01432  -0.03006   0.02301  -0.00489  -0.00422
 109        8D+2        0.08959   0.05628  -0.06181   0.02696  -0.00442
 110        8D-2        0.08697  -0.02313   0.09043   0.04722  -0.03725
 111        9D 0       -0.39449  -0.43760  -0.40698  -0.16456   0.22962
 112        9D+1        0.18152  -0.23751   0.14334   0.03317   0.22825
 113        9D-1        0.23745   0.08506  -0.28875   0.02029   0.07872
 114        9D+2       -0.66146  -0.19568   1.57745  -0.35146  -0.37055
 115        9D-2       -0.13540   1.50059  -0.25467  -0.63092  -0.05837
 116 5   Cl 1S          0.01921  -0.00002   0.00669   0.01199   0.00000
 117        2S          0.26578  -0.00027   0.09308   0.16741   0.00000
 118        3S          0.74122  -0.00076   0.25835   0.46902   0.00000
 119        4S         -0.03959   0.00004  -0.01550  -0.01696   0.00000
 120        5S         -4.13390   0.00424  -1.43903  -3.07534   0.00004
 121        6S         -9.28482   0.00928  -3.04009 -13.23761   0.00003
 122        7PX        -0.00009   0.00058   0.00092   0.00011  -0.00146
 123        7PY         0.00005   0.00100  -0.00053  -0.00008  -0.00254
 124        7PZ        -0.00419   0.00000  -0.00097  -0.02243   0.00000
 125        8PX        -0.00373   0.01193   0.01930   0.00196  -0.02928
 126        8PY         0.00215   0.02063  -0.01117  -0.00130  -0.05087
 127        8PZ        -0.05868   0.00004  -0.01289  -0.31262   0.00003
 128        9PX         0.00056  -0.00262  -0.00420  -0.00041   0.00490
 129        9PY        -0.00033  -0.00453   0.00243   0.00028   0.00851
 130        9PZ         0.00123   0.00000  -0.00131   0.07843   0.00000
 131       10PX         0.01643  -0.05636  -0.08610  -0.00954   0.20872
 132       10PY        -0.00660  -0.09745   0.05079   0.00824   0.36262
 133       10PZ         5.60038  -0.00561   1.88676   5.09600  -0.00022
 134       11PX         0.32273  -0.57484  -0.94786  -0.00769  -0.12339
 135       11PY        -0.18753  -0.99352   0.54806   0.00626  -0.21436
 136       11PZ         0.74609  -0.00017   0.22093   3.35168   0.00013
 137       12D 0        0.06471  -0.00009   0.02224   0.00210   0.00000
 138       12D+1       -0.00838   0.01506   0.02516   0.00030  -0.00187
 139       12D-1        0.00494   0.02602  -0.01452  -0.00017  -0.00323
 140       12D+2       -0.00117  -0.00592   0.00333   0.00005   0.01036
 141       12D-2        0.00201  -0.00340  -0.00574  -0.00009   0.00596
 142       13D 0       -0.36907   0.00047  -0.12709  -0.07275  -0.00002
 143       13D+1        0.03033  -0.05576  -0.09270  -0.00150   0.01283
 144       13D-1       -0.01801  -0.09636   0.05346   0.00080   0.02224
 145       13D+2        0.00263   0.01305  -0.00764  -0.00018  -0.03747
 146       13D-2       -0.00449   0.00748   0.01313   0.00031  -0.02153
 147       14D 0       -1.31950   0.00106  -0.44010  -1.24103   0.00026
 148       14D+1       -0.08488   0.16270   0.26928   0.00918  -0.16168
 149       14D-1        0.04822   0.28114  -0.15604  -0.00645  -0.28070
 150       14D+2       -0.01097  -0.06034   0.03397   0.00018   0.17316
 151       14D-2        0.01877  -0.03472  -0.05854  -0.00031   0.09941
 152       15F 0       -0.04100   0.00003  -0.01377   0.00124   0.00002
 153       15F+1       -0.00142   0.00301   0.00461   0.00044  -0.00916
 154       15F-1        0.00077   0.00519  -0.00268  -0.00025  -0.01590
 155       15F+2       -0.00158  -0.00916   0.00520   0.00000   0.00875
 156       15F-2        0.00273  -0.00529  -0.00900  -0.00002   0.00502
 157       15F+3       -0.00001  -0.00071   0.00000   0.00001  -0.00037
 158       15F-3       -0.00921   0.00000  -0.00256   0.02329   0.00001
 159       16F 0        0.22168  -0.00020   0.07411   0.08900  -0.00007
 160       16F+1        0.00540  -0.00983  -0.01607  -0.00182   0.03131
 161       16F-1       -0.00285  -0.01691   0.00935   0.00116   0.05433
 162       16F+2        0.00766   0.04243  -0.02333  -0.00006  -0.03606
 163       16F-2       -0.01319   0.02451   0.04036   0.00014  -0.02069
 164       16F+3        0.00002   0.00158  -0.00002  -0.00002   0.00080
 165       16F-3        0.01915   0.00001   0.00525  -0.04362  -0.00003
 166 6   F  1S          0.03868  -0.00004   0.01384  -0.02178   0.00000
 167        2S          0.13656  -0.00014   0.04922  -0.08233   0.00000
 168        3S         -0.06890   0.00007  -0.02431   0.03571   0.00000
 169        4S         -0.36668   0.00039  -0.13816  -0.03478   0.00001
 170        5S         -0.04695   0.00003  -0.00482  -5.96036   0.00006
 171        6PX         0.00212  -0.00354  -0.00593  -0.00003   0.00087
 172        6PY        -0.00123  -0.00611   0.00343   0.00002   0.00151
 173        6PZ         0.00502   0.00000   0.00168   0.00215   0.00000
 174        7PX        -0.01108   0.01835   0.03082  -0.00005  -0.00319
 175        7PY         0.00641   0.03171  -0.01782   0.00003  -0.00553
 176        7PZ        -0.05988   0.00004  -0.02061   0.00296   0.00000
 177        8PX         0.07749  -0.12972  -0.21688   0.00167   0.00122
 178        8PY        -0.04478  -0.22417   0.12548  -0.00111   0.00212
 179        8PZ         0.58970  -0.00048   0.20272  -0.25248   0.00001
 180        9PX         0.23956  -0.43289  -0.70558   0.00235  -0.11639
 181        9PY        -0.13993  -0.74820   0.40775  -0.00274  -0.20221
 182        9PZ        -0.81383   0.00121  -0.25933  -2.49783   0.00013
 183       10D 0        0.01084   0.00000   0.00393  -0.00779   0.00000
 184       10D+1        0.00440  -0.00774  -0.01258  -0.00001   0.00107
 185       10D-1       -0.00255  -0.01337   0.00727   0.00000   0.00186
 186       10D+2        0.00088   0.00443  -0.00222  -0.00002   0.00258
 187       10D-2       -0.00151   0.00255   0.00384   0.00004   0.00149
 188       11D 0       -0.04002   0.00000  -0.01445   0.01504   0.00000
 189       11D+1       -0.01416   0.02482   0.04037  -0.00008  -0.00182
 190       11D-1        0.00820   0.04287  -0.02334   0.00006  -0.00318
 191       11D+2       -0.00290  -0.01467   0.00745   0.00008  -0.00911
 192       11D-2        0.00497  -0.00845  -0.01284  -0.00013  -0.00524
 193       12D 0        0.39357  -0.00029   0.13830  -0.00949   0.00003
 194       12D+1        0.04346  -0.07031  -0.11751   0.00195  -0.01553
 195       12D-1       -0.02490  -0.12144   0.06803  -0.00114  -0.02697
 196       12D+2        0.01021   0.05410  -0.02792  -0.00047   0.01767
 197       12D-2       -0.01749   0.03119   0.04820   0.00082   0.01014
 198       13F 0       -0.02619   0.00005  -0.00877  -0.00773  -0.00001
 199       13F+1        0.00507  -0.00992  -0.01554   0.00002   0.00388
 200       13F-1       -0.00299  -0.01716   0.00898  -0.00002   0.00675
 201       13F+2       -0.00141  -0.00811   0.00425   0.00006   0.00228
 202       13F-2        0.00241  -0.00471  -0.00738  -0.00010   0.00132
 203       13F+3        0.00000   0.00069   0.00001   0.00000   0.00013
 204       13F-3        0.01227  -0.00002   0.00378  -0.00124   0.00000
 205       14F 0        0.06524  -0.00012   0.02212   0.01214   0.00002
 206       14F+1       -0.01061   0.02129   0.03315   0.00024  -0.00861
 207       14F-1        0.00628   0.03684  -0.01916  -0.00012  -0.01496
 208       14F+2        0.00395   0.02254  -0.01180  -0.00016  -0.00545
 209       14F-2       -0.00678   0.01307   0.02049   0.00028  -0.00315
 210       14F+3        0.00000  -0.00113  -0.00002   0.00000  -0.00020
 211       14F-3       -0.01660   0.00003  -0.00495   0.00244   0.00000
                         211
     Eigenvalues --     0.00000
   1 1   C  1S          0.00095
   2        2S          0.00496
   3        3S          0.00033
   4        4S          0.00895
   5        5S          0.05520
   6        6PX        -0.00661
   7        6PY         0.00380
   8        6PZ         0.00016
   9        7PX         1.33727
  10        7PY        -0.76977
  11        7PZ        -0.00764
  12        8PX        15.08964
  13        8PY        -8.68576
  14        8PZ        -0.07418
  15        9PX         6.85119
  16        9PY        -3.94356
  17        9PZ        -0.02733
  18       10D 0        0.00044
  19       10D+1       -0.00142
  20       10D-1        0.00081
  21       10D+2       -0.01123
  22       10D-2        0.01952
  23       11D 0        0.00051
  24       11D+1       -0.17352
  25       11D-1        0.09965
  26       11D+2       -0.20802
  27       11D-2        0.36146
  28       12D 0        0.05937
  29       12D+1       -1.08589
  30       12D-1        0.62540
  31       12D+2        0.28516
  32       12D-2       -0.49709
  33       13F 0       -0.00003
  34       13F+1        0.03289
  35       13F-1       -0.01894
  36       13F+2       -0.00425
  37       13F-2        0.00746
  38       13F+3       -0.00001
  39       13F-3       -0.00101
  40       14F 0        0.00121
  41       14F+1       -0.35288
  42       14F-1        0.20318
  43       14F+2        0.03633
  44       14F-2       -0.06378
  45       14F+3        0.00005
  46       14F-3        0.00693
  47 2   H  1S          0.01354
  48        2S         -1.12154
  49        3S        -12.93300
  50        4S         -5.58785
  51        5PX         0.04557
  52        5PY         0.05842
  53        5PZ         0.00521
  54        6PX        -0.45188
  55        6PY        -0.66126
  56        6PZ        -0.08400
  57        7PX        -3.04918
  58        7PY        -3.71989
  59        7PZ        -0.41135
  60        8D 0        0.00986
  61        8D+1        0.00478
  62        8D-1        0.00793
  63        8D+2        0.02015
  64        8D-2        0.02563
  65        9D 0        0.12726
  66        9D+1       -0.07935
  67        9D-1       -0.13660
  68        9D+2        0.13996
  69        9D-2       -0.49960
  70 3   H  1S         -0.02754
  71        2S          2.23832
  72        3S         25.98328
  73        4S         11.19732
  74        5PX        -0.10015
  75        5PY         0.05792
  76        5PZ        -0.00927
  77        6PX         1.14403
  78        6PY        -0.66150
  79        6PZ         0.15202
  80        7PX         6.43647
  81        7PY        -3.72261
  82        7PZ         0.75605
  83        8D 0       -0.01955
  84        8D+1       -0.01318
  85        8D-1        0.00763
  86        8D+2        0.02129
  87        8D-2       -0.03683
  88        9D 0       -0.26688
  89        9D+1        0.22678
  90        9D-1       -0.13122
  91        9D+2        0.13099
  92        9D-2       -0.22844
  93 4   H  1S          0.01360
  94        2S         -1.12702
  95        3S        -12.99748
  96        4S         -5.61575
  97        5PX        -0.02811
  98        5PY        -0.06874
  99        5PZ         0.00531
 100        6PX         0.35007
 101        6PY         0.72279
 102        6PZ        -0.08517
 103        7PX         1.71642
 104        7PY         4.50473
 105        7PZ        -0.41783
 106        8D 0        0.00992
 107        8D+1       -0.00449
 108        8D-1       -0.00812
 109        8D+2       -0.03228
 110        8D-2       -0.00473
 111        9D 0        0.12766
 112        9D+1        0.07955
 113        9D-1        0.13787
 114        9D+2        0.36137
 115        9D-2       -0.37124
 116 5   Cl 1S          0.00008
 117        2S          0.00119
 118        3S          0.00312
 119        4S         -0.00043
 120        5S         -0.02947
 121        6S         -0.04765
 122        7PX        -0.00245
 123        7PY         0.00141
 124        7PZ        -0.00009
 125        8PX        -0.04992
 126        8PY         0.02873
 127        8PZ        -0.00081
 128        9PX         0.00819
 129        9PY        -0.00472
 130        9PZ         0.00043
 131       10PX         0.36033
 132       10PY        -0.20740
 133       10PZ         0.02287
 134       11PX        -0.21195
 135       11PY         0.12199
 136       11PZ         0.00543
 137       12D 0       -0.00009
 138       12D+1       -0.00310
 139       12D-1        0.00178
 140       12D+2       -0.00606
 141       12D-2        0.01053
 142       13D 0        0.00016
 143       13D+1        0.02200
 144       13D-1       -0.01264
 145       13D+2        0.02193
 146       13D-2       -0.03811
 147       14D 0       -0.00001
 148       14D+1       -0.27824
 149       14D-1        0.16004
 150       14D+2       -0.10076
 151       14D-2        0.17490
 152       15F 0        0.00041
 153       15F+1       -0.01606
 154       15F-1        0.00923
 155       15F+2       -0.00512
 156       15F-2        0.00888
 157       15F+3       -0.00001
 158       15F-3       -0.00030
 159       16F 0       -0.00146
 160       16F+1        0.05419
 161       16F-1       -0.03116
 162       16F+2        0.02099
 163       16F-2       -0.03641
 164       16F+3        0.00003
 165       16F-3        0.00061
 166 6   F  1S          0.00019
 167        2S          0.00087
 168        3S         -0.00010
 169        4S         -0.00451
 170        5S         -0.04441
 171        6PX         0.00150
 172        6PY        -0.00086
 173        6PZ        -0.00004
 174        7PX        -0.00535
 175        7PY         0.00308
 176        7PZ         0.00033
 177        8PX         0.00077
 178        8PY        -0.00044
 179        8PZ        -0.00618
 180        9PX        -0.20311
 181        9PY         0.11690
 182        9PZ        -0.01809
 183       10D 0       -0.00003
 184       10D+1        0.00191
 185       10D-1       -0.00110
 186       10D+2       -0.00141
 187       10D-2        0.00246
 188       11D 0        0.00006
 189       11D+1       -0.00330
 190       11D-1        0.00190
 191       11D+2        0.00502
 192       11D-2       -0.00872
 193       12D 0       -0.00122
 194       12D+1       -0.02717
 195       12D-1        0.01563
 196       12D+2       -0.00959
 197       12D-2        0.01664
 198       13F 0       -0.00003
 199       13F+1        0.00691
 200       13F-1       -0.00398
 201       13F+2       -0.00131
 202       13F-2        0.00228
 203       13F+3        0.00000
 204       13F-3        0.00017
 205       14F 0        0.00005
 206       14F+1       -0.01522
 207       14F-1        0.00877
 208       14F+2        0.00313
 209       14F-2       -0.00547
 210       14F+3        0.00000
 211       14F-3       -0.00022
          Condensed to atoms (all electrons):
              1          2          3          4          5          6
     1  C    7.021205  -0.009942  -0.013952  -0.009947  -0.052625  -0.100573
     2  H   -0.009942   0.547633   0.020366   0.019513  -0.018732   0.004254
     3  H   -0.013952   0.020366   0.549020   0.020366  -0.018417   0.005866
     4  H   -0.009947   0.019513   0.020366   0.547635  -0.018731   0.004258
     5  Cl  -0.052625  -0.018732  -0.018417  -0.018731  17.711216   0.026462
     6  F   -0.100573   0.004254   0.005866   0.004258   0.026462   9.906964
 Mulliken atomic charges:
              1
     1  C   -0.834165
     2  H    0.436909
     3  H    0.436752
     4  H    0.436907
     5  Cl  -0.629172
     6  F   -0.847231
 Sum of Mulliken atomic charges =  -1.00000
 Mulliken charges with hydrogens summed into heavy atoms:
              1
     1  C    0.476403
     5  Cl  -0.629172
     6  F   -0.847231
 Sum of Mulliken charges with hydrogens summed into heavy atoms =  -1.00000
 Electronic spatial extent (au):  <R**2>=            490.2755
 Charge=             -1.0000 electrons
 Dipole moment (field-independent basis, Debye):
    X=             -0.0009    Y=              0.0009    Z=              4.0588  Tot=              4.0588
 Quadrupole moment (field-independent basis, Debye-Ang):
   XX=            -28.1792   YY=            -28.1800   ZZ=            -62.8306
   XY=             -0.0007   XZ=             -0.0168   YZ=             -0.0077
 Traceless Quadrupole moment (field-independent basis, Debye-Ang):
   XX=             11.5507   YY=             11.5500   ZZ=            -23.1007
   XY=             -0.0007   XZ=             -0.0168   YZ=             -0.0077
 Octapole moment (field-independent basis, Debye-Ang**2):
  XXX=             -0.0281  YYY=             -0.9734  ZZZ=             49.5620  XYY=             -0.0098
  XXY=              0.9422  XXZ=             -4.2429  XZZ=              0.0011  YZZ=              0.0066
  YYZ=             -4.2494  XYZ=             -0.0065
 Hexadecapole moment (field-independent basis, Debye-Ang**3):
 XXXX=            -41.2603 YYYY=            -41.2663 ZZZZ=           -761.5409 XXXY=             -0.0021
 XXXZ=             -0.0478 YYYX=             -0.0029 YYYZ=              0.5077 ZZZX=             -0.0816
 ZZZY=             -0.1797 XXYY=            -13.7547 XXZZ=           -103.3958 YYZZ=           -103.3859
 XXYZ=             -0.6729 YYXZ=             -0.0156 ZZXY=              0.0098
 N-N= 8.499217356027D+01 E-N=-1.604198256681D+03  KE= 5.991975503017D+02
 1\1\GINC-TRAPISTA\SP\RQCISD-FC\Aug-CC-pVTZ\C1H3Cl1F1(1-)\BRUNS\24-Aug-
 2020\0\\# QCISD aug-cc-pvtz nosymm density=current output=wfn\\clch3f_
 ts-wavefunction\\-1,1\C,0,0.000175,0.000029,-0.497709\H,0,0.000019,-1.
 05257,-0.620726\H,0,-0.911312,0.526365,-0.611245\H,0,0.91175,0.526132,
 -0.62157\Cl,0,0.000555,0.000962,1.644718\F,0,-0.000186,-0.000921,-2.59
 3468\\Version=EM64L-G09RevB.01\HF=-598.6171154\MP2=-599.2912386\MP3=-5
 99.3099318\MP4D=-599.32482\MP4DQ=-599.310383\MP4SDQ=-599.319751\QCISD=
 -599.3191341\RMSD=9.464e-09\Dipole=0.0001522,0.0007914,1.5849256\Quadr
 upole=8.5876818,8.5871096,-17.1747914,-0.0004947,-0.0124644,-0.005688\
 PG=C01 [X(C1H3Cl1F1)]\\@

 Writing a WFN file to GAUSSIAN.wfn.


 When I told the people of Northern Ireland that I was
 an atheist, a woman in the audience stood up and said,
 "Yes, but is it the God of the Catholics or the God
 of the Protestants in whom you don't believe?"
                               -- Quentin Crisp
 Job cpu time:  0 days  3 hours 16 minutes 11.3 seconds.
 File lengths (MBytes):  RWF=  29002 Int=      0 D2E=      0 Chk=      4 Scr=      1
 Normal termination of Gaussian 09 at Mon Aug 24 03:38:30 2020.
