 clch3f_ts-wavefunction
GAUSSIAN            211 MOL ORBITALS    339 PRIMITIVES        6 NUCLEI
  C    1    (CENTRE  1)   0.00033070  0.00005480 -0.94053370  CHARGE =  6.0
  H    2    (CENTRE  2)   0.00003590 -1.98906904 -1.17300214  CHARGE =  1.0
  H    3    (CENTRE  3)  -1.72213010  0.99468570 -1.17398291  CHARGE =  1.0
  H    4    (CENTRE  4)   1.72295780  0.99424539 -1.17459707  CHARGE =  1.0
  Cl   5    (CENTRE  5)   0.00104880  0.00181792  3.10806659  CHARGE = 17.0
  F    6    (CENTRE  6)  -0.00035149  0.01715682 -4.90094425  CHARGE =  9.0
CENTRE ASSIGNMENTS    1  1  1  1  1  1  1  1  1  1  1  1  1  1  1  1  1  1  1  1
CENTRE ASSIGNMENTS    1  1  1  1  1  1  1  1  1  1  1  1  1  1  1  1  1  1  1  1
CENTRE ASSIGNMENTS    1  1  1  1  1  1  1  1  1  1  1  1  1  1  1  1  1  1  1  1
CENTRE ASSIGNMENTS    1  1  1  1  1  1  1  1  1  1  1  1  2  2  2  2  2  2  2  2
CENTRE ASSIGNMENTS    2  2  2  2  2  2  2  2  2  2  2  2  2  2  2  2  2  2  2  3
CENTRE ASSIGNMENTS    3  3  3  3  3  3  3  3  3  3  3  3  3  3  3  3  3  3  3  3
CENTRE ASSIGNMENTS    3  3  3  3  3  3  4  4  4  4  4  4  4  4  4  4  4  4  4  4
CENTRE ASSIGNMENTS    4  4  4  4  4  4  4  4  4  4  4  4  4  5  5  5  5  5  5  5
CENTRE ASSIGNMENTS    5  5  5  5  5  5  5  5  5  5  5  5  5  5  5  5  5  5  5  5
CENTRE ASSIGNMENTS    5  5  5  5  5  5  5  5  5  5  5  5  5  5  5  5  5  5  5  5
CENTRE ASSIGNMENTS    5  5  5  5  5  5  5  5  5  5  5  5  5  5  5  5  5  5  5  5
CENTRE ASSIGNMENTS    5  5  5  5  5  5  5  5  5  5  5  5  5  5  5  5  5  5  5  5
CENTRE ASSIGNMENTS    5  5  5  5  5  5  5  5  5  5  5  5  5  5  5  5  5  5  5  5
CENTRE ASSIGNMENTS    5  5  5  5  5  5  5  6  6  6  6  6  6  6  6  6  6  6  6  6
CENTRE ASSIGNMENTS    6  6  6  6  6  6  6  6  6  6  6  6  6  6  6  6  6  6  6  6
CENTRE ASSIGNMENTS    6  6  6  6  6  6  6  6  6  6  6  6  6  6  6  6  6  6  6  6
CENTRE ASSIGNMENTS    6  6  6  6  6  6  6  6  6  6  6  6  6  6  6  6  6  6  6
TYPE ASSIGNMENTS      1  1  1  1  1  1  1  1  1  1  1  1  1  1  1  1  2  2  2  3
TYPE ASSIGNMENTS      3  3  4  4  4  2  3  4  2  3  4  2  3  4  5  6  7  8  9 10
TYPE ASSIGNMENTS      5  6  7  8  9 10  5  6  7  8  9 10 11 12 13 17 14 15 18 19
TYPE ASSIGNMENTS     16 20 11 12 13 17 14 15 18 19 16 20  1  1  1  1  1  1  2  3
TYPE ASSIGNMENTS      4  2  3  4  2  3  4  5  6  7  8  9 10  5  6  7  8  9 10  1
TYPE ASSIGNMENTS      1  1  1  1  1  2  3  4  2  3  4  2  3  4  5  6  7  8  9 10
TYPE ASSIGNMENTS      5  6  7  8  9 10  1  1  1  1  1  1  2  3  4  2  3  4  2  3
TYPE ASSIGNMENTS      4  5  6  7  8  9 10  5  6  7  8  9 10  1  1  1  1  1  1  1
TYPE ASSIGNMENTS      1  1  1  1  1  1  1  1  1  1  1  1  1  1  1  1  1  1  1  1
TYPE ASSIGNMENTS      1  1  1  1  2  2  2  2  2  2  3  3  3  3  3  3  4  4  4  4
TYPE ASSIGNMENTS      4  4  2  2  2  2  2  2  3  3  3  3  3  3  4  4  4  4  4  4
TYPE ASSIGNMENTS      2  3  4  2  3  4  2  3  4  5  6  7  8  9 10  5  6  7  8  9
TYPE ASSIGNMENTS     10  5  6  7  8  9 10 11 12 13 17 14 15 18 19 16 20 11 12 13
TYPE ASSIGNMENTS     17 14 15 18 19 16 20  1  1  1  1  1  1  1  1  1  1  1  1  1
TYPE ASSIGNMENTS      1  1  1  2  2  2  3  3  3  4  4  4  2  3  4  2  3  4  2  3
TYPE ASSIGNMENTS      4  5  6  7  8  9 10  5  6  7  8  9 10  5  6  7  8  9 10 11
TYPE ASSIGNMENTS     12 13 17 14 15 18 19 16 20 11 12 13 17 14 15 18 19 16 20
EXPONENTS  0.8236000D+04 0.1235000D+04 0.2808000D+03 0.7927000D+02 0.2559000D+02
EXPONENTS  0.8997000D+01 0.3319000D+01 0.2808000D+03 0.7927000D+02 0.2559000D+02
EXPONENTS  0.8997000D+01 0.3319000D+01 0.3643000D+00 0.9059000D+00 0.1285000D+00
EXPONENTS  0.4402000D-01 0.1871000D+02 0.4133000D+01 0.1200000D+01 0.1871000D+02
EXPONENTS  0.4133000D+01 0.1200000D+01 0.1871000D+02 0.4133000D+01 0.1200000D+01
EXPONENTS  0.3827000D+00 0.3827000D+00 0.3827000D+00 0.1209000D+00 0.1209000D+00
EXPONENTS  0.1209000D+00 0.3569000D-01 0.3569000D-01 0.3569000D-01 0.1097000D+01
EXPONENTS  0.1097000D+01 0.1097000D+01 0.1097000D+01 0.1097000D+01 0.1097000D+01
EXPONENTS  0.3180000D+00 0.3180000D+00 0.3180000D+00 0.3180000D+00 0.3180000D+00
EXPONENTS  0.3180000D+00 0.1000000D+00 0.1000000D+00 0.1000000D+00 0.1000000D+00
EXPONENTS  0.1000000D+00 0.1000000D+00 0.7610000D+00 0.7610000D+00 0.7610000D+00
EXPONENTS  0.7610000D+00 0.7610000D+00 0.7610000D+00 0.7610000D+00 0.7610000D+00
EXPONENTS  0.7610000D+00 0.7610000D+00 0.2680000D+00 0.2680000D+00 0.2680000D+00
EXPONENTS  0.2680000D+00 0.2680000D+00 0.2680000D+00 0.2680000D+00 0.2680000D+00
EXPONENTS  0.2680000D+00 0.2680000D+00 0.3387000D+02 0.5095000D+01 0.1159000D+01
EXPONENTS  0.3258000D+00 0.1027000D+00 0.2526000D-01 0.1407000D+01 0.1407000D+01
EXPONENTS  0.1407000D+01 0.3880000D+00 0.3880000D+00 0.3880000D+00 0.1020000D+00
EXPONENTS  0.1020000D+00 0.1020000D+00 0.1057000D+01 0.1057000D+01 0.1057000D+01
EXPONENTS  0.1057000D+01 0.1057000D+01 0.1057000D+01 0.2470000D+00 0.2470000D+00
EXPONENTS  0.2470000D+00 0.2470000D+00 0.2470000D+00 0.2470000D+00 0.3387000D+02
EXPONENTS  0.5095000D+01 0.1159000D+01 0.3258000D+00 0.1027000D+00 0.2526000D-01
EXPONENTS  0.1407000D+01 0.1407000D+01 0.1407000D+01 0.3880000D+00 0.3880000D+00
EXPONENTS  0.3880000D+00 0.1020000D+00 0.1020000D+00 0.1020000D+00 0.1057000D+01
EXPONENTS  0.1057000D+01 0.1057000D+01 0.1057000D+01 0.1057000D+01 0.1057000D+01
EXPONENTS  0.2470000D+00 0.2470000D+00 0.2470000D+00 0.2470000D+00 0.2470000D+00
EXPONENTS  0.2470000D+00 0.3387000D+02 0.5095000D+01 0.1159000D+01 0.3258000D+00
EXPONENTS  0.1027000D+00 0.2526000D-01 0.1407000D+01 0.1407000D+01 0.1407000D+01
EXPONENTS  0.3880000D+00 0.3880000D+00 0.3880000D+00 0.1020000D+00 0.1020000D+00
EXPONENTS  0.1020000D+00 0.1057000D+01 0.1057000D+01 0.1057000D+01 0.1057000D+01
EXPONENTS  0.1057000D+01 0.1057000D+01 0.2470000D+00 0.2470000D+00 0.2470000D+00
EXPONENTS  0.2470000D+00 0.2470000D+00 0.2470000D+00 0.4561000D+06 0.6833000D+05
EXPONENTS  0.1555000D+05 0.4405000D+04 0.1439000D+04 0.5204000D+03 0.2031000D+03
EXPONENTS  0.8396000D+02 0.3620000D+02 0.1583000D+02 0.6334000D+01 0.4405000D+04
EXPONENTS  0.1439000D+04 0.5204000D+03 0.2031000D+03 0.8396000D+02 0.3620000D+02
EXPONENTS  0.1583000D+02 0.6334000D+01 0.2694000D+01 0.1439000D+04 0.2031000D+03
EXPONENTS  0.8396000D+02 0.3620000D+02 0.1583000D+02 0.6334000D+01 0.2694000D+01
EXPONENTS  0.4313000D+00 0.9768000D+00 0.1625000D+00 0.5910000D-01 0.6633000D+03
EXPONENTS  0.1568000D+03 0.4998000D+02 0.1842000D+02 0.7240000D+01 0.2922000D+01
EXPONENTS  0.6633000D+03 0.1568000D+03 0.4998000D+02 0.1842000D+02 0.7240000D+01
EXPONENTS  0.2922000D+01 0.6633000D+03 0.1568000D+03 0.4998000D+02 0.1842000D+02
EXPONENTS  0.7240000D+01 0.2922000D+01 0.1568000D+03 0.4998000D+02 0.1842000D+02
EXPONENTS  0.7240000D+01 0.2922000D+01 0.3818000D+00 0.1568000D+03 0.4998000D+02
EXPONENTS  0.1842000D+02 0.7240000D+01 0.2922000D+01 0.3818000D+00 0.1568000D+03
EXPONENTS  0.4998000D+02 0.1842000D+02 0.7240000D+01 0.2922000D+01 0.3818000D+00
EXPONENTS  0.1022000D+01 0.1022000D+01 0.1022000D+01 0.1301000D+00 0.1301000D+00
EXPONENTS  0.1301000D+00 0.4190000D-01 0.4190000D-01 0.4190000D-01 0.1046000D+01
EXPONENTS  0.1046000D+01 0.1046000D+01 0.1046000D+01 0.1046000D+01 0.1046000D+01
EXPONENTS  0.3440000D+00 0.3440000D+00 0.3440000D+00 0.3440000D+00 0.3440000D+00
EXPONENTS  0.3440000D+00 0.1350000D+00 0.1350000D+00 0.1350000D+00 0.1350000D+00
EXPONENTS  0.1350000D+00 0.1350000D+00 0.7060000D+00 0.7060000D+00 0.7060000D+00
EXPONENTS  0.7060000D+00 0.7060000D+00 0.7060000D+00 0.7060000D+00 0.7060000D+00
EXPONENTS  0.7060000D+00 0.7060000D+00 0.3120000D+00 0.3120000D+00 0.3120000D+00
EXPONENTS  0.3120000D+00 0.3120000D+00 0.3120000D+00 0.3120000D+00 0.3120000D+00
EXPONENTS  0.3120000D+00 0.3120000D+00 0.1950000D+05 0.2923000D+04 0.6645000D+03
EXPONENTS  0.1875000D+03 0.6062000D+02 0.2142000D+02 0.7950000D+01 0.6645000D+03
EXPONENTS  0.1875000D+03 0.6062000D+02 0.2142000D+02 0.7950000D+01 0.8815000D+00
EXPONENTS  0.2257000D+01 0.3041000D+00 0.9158000D-01 0.4388000D+02 0.9926000D+01
EXPONENTS  0.2930000D+01 0.4388000D+02 0.9926000D+01 0.2930000D+01 0.4388000D+02
EXPONENTS  0.9926000D+01 0.2930000D+01 0.9132000D+00 0.9132000D+00 0.9132000D+00
EXPONENTS  0.2672000D+00 0.2672000D+00 0.2672000D+00 0.7361000D-01 0.7361000D-01
EXPONENTS  0.7361000D-01 0.3107000D+01 0.3107000D+01 0.3107000D+01 0.3107000D+01
EXPONENTS  0.3107000D+01 0.3107000D+01 0.8550000D+00 0.8550000D+00 0.8550000D+00
EXPONENTS  0.8550000D+00 0.8550000D+00 0.8550000D+00 0.2920000D+00 0.2920000D+00
EXPONENTS  0.2920000D+00 0.2920000D+00 0.2920000D+00 0.2920000D+00 0.1917000D+01
EXPONENTS  0.1917000D+01 0.1917000D+01 0.1917000D+01 0.1917000D+01 0.1917000D+01
EXPONENTS  0.1917000D+01 0.1917000D+01 0.1917000D+01 0.1917000D+01 0.7240000D+00
EXPONENTS  0.7240000D+00 0.7240000D+00 0.7240000D+00 0.7240000D+00 0.7240000D+00
EXPONENTS  0.7240000D+00 0.7240000D+00 0.7240000D+00 0.7240000D+00
MO    1     MO 0.0        OCC NO =    2.0000300  ORB. ENERGY =    0.000000
  0.48787398D-08  0.90949538D-08  0.15371711D-07  0.23106549D-07  0.28382256D-07
  0.23953623D-07  0.90071878D-08 -0.45122677D-11 -0.33726405D-10 -0.12604328D-09
 -0.35164112D-09 -0.47110215D-09  0.55628380D-09  0.11513428D-08  0.78545147D-09
  0.66469699D-09  0.11107442D-03  0.10413933D-03  0.74153407D-04 -0.80296148D-07
 -0.75282743D-07 -0.53605798D-07 -0.19746909D-07 -0.18513982D-07 -0.13183058D-07
  0.36227770D-03 -0.26233661D-06 -0.62595774D-07  0.46280315D-03 -0.33577567D-06
 -0.83948411D-07  0.92796482D-05 -0.68382865D-08 -0.16587647D-08 -0.11275993D-06
  0.22825941D-07  0.89933991D-07  0.12767122D-03 -0.51007538D-03  0.34560233D-06
 -0.49013449D-07  0.66488198D-07 -0.17474749D-07  0.38784087D-03  0.98627646D-04
 -0.13856858D-06 -0.25725724D-07  0.13953129D-07  0.11772595D-07  0.82223092D-04
 -0.65819356D-04  0.33648342D-07  0.92500555D-04 -0.67447515D-07  0.65730308D-07
  0.92375292D-04 -0.58434885D-07 -0.18821735D-06 -0.36987696D-03  0.26077743D-06
 -0.89735704D-08  0.50381307D-04 -0.26537874D-04  0.19702676D-07 -0.19168743D-07
 -0.26989558D-04  0.37241127D-07  0.35056491D-07  0.10660318D-03 -0.96349156D-07
  0.22449738D-07  0.10105492D-03  0.24069646D-07  0.43410598D-07  0.64008902D-07
 -0.22003020D-06 -0.67012752D-06  0.69847983D-08  0.43968226D-05 -0.43956697D-07
 -0.15529391D-07  0.84129094D-04 -0.18354157D-06 -0.17531228D-06  0.75604922D-04
 -0.11204500D-06 -0.26123181D-07  0.62175576D-07 -0.29962983D-07 -0.32212593D-07
  0.31070627D-04 -0.47316434D-04 -0.17540238D-06  0.40483207D-07  0.36455753D-08
 -0.44128782D-07  0.28946843D-04  0.61353066D-04 -0.31668540D-07 -0.34645004D-04
 -0.62483691D-04 -0.92132166D-04  0.31727743D-03  0.97404476D-03 -0.10609897D-04
  0.54717339D-04 -0.28906651D-04  0.20594556D-04  0.23631050D-03 -0.88857178D-04
  0.23558421D-03  0.14832921D-03 -0.41992320D-04  0.19614148D-04  0.10132511D-04
 -0.68792281D-04  0.58659770D-04 -0.10636151D-03  0.21231602D-03 -0.14956752D-03
 -0.10919201D-04 -0.37107132D-04  0.48026333D-04 -0.16406611D-04  0.38662306D-04
  0.12917181D-04  0.34621031D-04  0.62440456D-04  0.92068416D-04 -0.31705816D-03
 -0.97337582D-03  0.10602823D-04  0.54682633D-04  0.28867068D-04 -0.20599072D-04
  0.23614266D-03  0.88636104D-04 -0.23550890D-03  0.14828270D-03  0.41835938D-04
 -0.19654014D-04 -0.10094453D-04  0.68789259D-04 -0.58694806D-04 -0.10617247D-03
  0.21214415D-03  0.14950422D-03  0.10903992D-04  0.37103054D-04 -0.48007047D-04
 -0.16366561D-04  0.38633284D-04 -0.12985517D-04 -0.55569623D-08 -0.10396483D-07
 -0.17962817D-07 -0.29119838D-07 -0.44221268D-07 -0.61463402D-07 -0.73075275D-07
 -0.65097994D-07 -0.32329040D-07 -0.52047020D-08 -0.54912680D-10 -0.25630336D-10
 -0.85498511D-09 -0.29794519D-08 -0.10729489D-07 -0.23651823D-07 -0.33294133D-07
  0.15882387D-08  0.43571155D-07  0.25763351D-07 -0.10872625D-11 -0.13169405D-10
 -0.27463405D-10 -0.78760264D-10 -0.40899108D-11  0.33965245D-09  0.87759671D-09
 -0.71502449D-09  0.13524688D-08  0.10140994D-08 -0.13844080D-09  0.11610739D+02
  0.15294059D+02  0.16871741D+02  0.14013302D+02  0.74414524D+01  0.19199336D+01
 -0.83930621D-02 -0.11055626D-01 -0.12196086D-01 -0.10129805D-01 -0.53792073D-02
 -0.13878636D-02 -0.20531727D-02 -0.27045087D-02 -0.29834965D-02 -0.24780274D-02
 -0.13159013D-02 -0.33950942D-03 -0.45950645D-03  0.44422127D-02  0.62639837D-02
  0.89591537D-02 -0.45367893D-04 -0.82163889D-02  0.33221495D-06 -0.32116404D-05
 -0.45287481D-05 -0.64773079D-05  0.32800175D-07  0.59403022D-05  0.81200830D-07
 -0.78499738D-06 -0.11069283D-05 -0.15832002D-05  0.80171031D-08  0.14519439D-05
  0.76652136D-01 -0.55410748D-04 -0.13553531D-04 -0.64372330D-03  0.46500956D-06
  0.11342648D-06 -0.57962591D-04  0.41895047D-07  0.10275706D-07 -0.17811309D-06
  0.49264063D-08  0.17318668D-06  0.24013159D-04 -0.98052029D-03  0.70589284D-06
  0.64445230D-07 -0.18201862D-08 -0.62625044D-07 -0.85287820D-05  0.35591229D-03
 -0.25673764D-06 -0.11226924D-07  0.37428538D-09  0.10852638D-07  0.25513915D-05
 -0.61005189D-04  0.43806241D-07  0.23442974D-05 -0.17651694D-08  0.16395527D-08
  0.23863283D-05  0.10843524D-07 -0.16296431D-07 -0.94192205D-05 -0.55480156D-08
  0.11377773D-07  0.70236543D-04  0.14649269D-04 -0.10640143D-07  0.10320537D-07
  0.14642459D-04 -0.13245334D-07 -0.26138886D-07 -0.58590266D-04  0.45165763D-07
 -0.48227256D-08 -0.14432059D-04  0.10306496D-08  0.19211326D-08  0.32567477D-08
  0.49311565D-08  0.61650317D-08  0.53030328D-08  0.20338272D-08 -0.41322828D-11
 -0.54703687D-10 -0.19869374D-09 -0.58942125D-09 -0.67918894D-09  0.82497613D-09
 -0.65309206D-11 -0.13599824D-08 -0.11194550D-08 -0.29120137D-03 -0.28478858D-03
 -0.18817186D-03  0.21055629D-06  0.20591945D-06  0.13605969D-06  0.52443902D-07
  0.51288991D-07  0.33888805D-07 -0.97667608D-05  0.44594716D-08  0.27592229D-08
 -0.65853567D-04  0.49701756D-07  0.10155420D-07 -0.19533927D-04  0.14185542D-07
  0.33234933D-08 -0.47103801D-07  0.23379515D-07  0.23724287D-07  0.14219410D-03
 -0.13161828D-03  0.71364156D-07  0.29598921D-07 -0.11586038D-07 -0.18012884D-07
 -0.71550643D-04  0.10126417D-03 -0.61695519D-07 -0.18415057D-07  0.58802759D-08
  0.12534781D-07  0.36450379D-04 -0.73148363D-04  0.48476425D-07 -0.71102426D-04
  0.53091410D-07 -0.48895379D-07 -0.67580445D-04 -0.13093592D-07  0.19507811D-06
  0.28088772D-03 -0.14618064D-06 -0.48391977D-07 -0.38214939D-03  0.25209193D-04
 -0.18882332D-07  0.17281588D-07  0.24126265D-04  0.21918020D-08 -0.66715802D-07
 -0.99753844D-04  0.54455195D-07  0.14871038D-07  0.12151200D-03
MO    2     MO 0.0        OCC NO =    2.0000300  ORB. ENERGY =    0.000000
 -0.35282921D-05 -0.65774474D-05 -0.11116782D-04 -0.16710597D-04 -0.20525975D-04
 -0.17323199D-04 -0.65139752D-05  0.58488829D-08  0.43716776D-07  0.16337957D-06
  0.45580357D-06  0.61065112D-06 -0.72106511D-06 -0.11667385D-05  0.50298356D-05
  0.20910429D-05  0.79750532D-07  0.74771193D-07  0.53241544D-07  0.11104134D-03
  0.10410831D-03  0.74131322D-04 -0.28872884D-05 -0.27070164D-05 -0.19275570D-05
  0.26289938D-06  0.36394809D-03  0.13561229D-05  0.33415553D-06  0.46446738D-03
 -0.20929520D-05  0.66571019D-08  0.93958607D-05 -0.26397663D-07  0.65290992D-04
 -0.64507929D-04 -0.78306307D-06 -0.47661731D-07 -0.39217910D-06 -0.50944913D-03
  0.19468239D-03 -0.19394640D-03 -0.73598338D-06  0.14903848D-06  0.23761524D-08
  0.97098045D-04  0.40865166D-04 -0.41318709D-04  0.45354394D-06  0.16269007D-07
 -0.61755251D-07 -0.66500291D-04  0.70986413D-07  0.92838001D-04  0.71837843D-06
  0.61664814D-07  0.93584463D-04  0.23584691D-04 -0.27462405D-06 -0.37209847D-03
 -0.25739826D-04 -0.14639636D-06 -0.10028563D-07 -0.27217082D-04 -0.44475534D-06
 -0.28197962D-07 -0.26197939D-04  0.50959851D-04  0.58283652D-07  0.10784918D-03
 -0.49625585D-04  0.81769670D-07 -0.40109811D-04 -0.72339695D-04 -0.10666484D-03
  0.36539266D-03  0.11259084D-02 -0.12073569D-04  0.16082244D-07  0.71790985D-04
  0.24671994D-04  0.13437344D-06  0.28860454D-03  0.26902234D-03  0.71069629D-07
  0.17257395D-03  0.21706418D-04 -0.11047120D-03  0.42872071D-04  0.67599133D-04
  0.11041046D-06  0.72508588D-07  0.29697932D-03 -0.43436146D-04 -0.11899327D-04
  0.55335474D-04  0.30774024D-07  0.75226266D-07  0.30834809D-04  0.20169915D-04
  0.36377272D-04  0.53638266D-04 -0.18753670D-03 -0.56251654D-03  0.58976706D-05
 -0.29573044D-04  0.21647178D-04 -0.12063184D-04 -0.89822862D-04  0.13522040D-03
 -0.13567128D-03 -0.41916359D-04  0.99620951D-04 -0.11129050D-04  0.90064350D-05
  0.25102446D-04 -0.34108881D-04  0.80166680D-04 -0.14846681D-03  0.39115898D-04
  0.20983240D-04  0.70464796D-05 -0.28029720D-04  0.26134018D-04  0.12777970D-04
  0.53926842D-04  0.20211004D-04  0.36451379D-04  0.53747537D-04 -0.18791429D-03
 -0.56367800D-03  0.59105174D-05  0.29638995D-04  0.21673952D-04 -0.12097867D-04
  0.90089940D-04  0.13530243D-03 -0.13598513D-03  0.42114631D-04  0.99660536D-04
 -0.11167898D-04  0.90268898D-05  0.25204459D-04 -0.34231349D-04 -0.80269375D-04
  0.14869992D-03  0.39286563D-04  0.20985027D-04  0.70972713D-05 -0.28082298D-04
 -0.26141649D-04 -0.12753156D-04  0.53924213D-04 -0.43719786D-04 -0.81795054D-04
 -0.14132371D-03 -0.22910234D-03 -0.34791389D-03 -0.48356757D-03 -0.57492479D-03
 -0.51216298D-03 -0.25435097D-03 -0.40948354D-04 -0.43202932D-06 -0.20537410D-06
 -0.68509362D-05 -0.23874141D-04 -0.85974648D-04 -0.18952041D-03 -0.26678357D-03
  0.12726446D-04  0.34913264D-03  0.20643994D-03 -0.37730598D-08 -0.45700969D-07
 -0.95304552D-07 -0.27331686D-06 -0.14192964D-07  0.11786749D-05  0.30454695D-05
 -0.24813052D-05  0.12467279D-04 -0.13237298D-05 -0.34728243D-06  0.83910521D-02
  0.11052979D-01  0.12193166D-01  0.10127379D-01  0.53779191D-02  0.13875312D-02
  0.11610729D+02  0.15294047D+02  0.16871728D+02  0.14013291D+02  0.74414463D+01
  0.19199320D+01 -0.11350318D-01 -0.14951024D-01 -0.16493320D-01 -0.13698994D-01
 -0.72745457D-02 -0.18768708D-02 -0.33206555D-06  0.32101961D-05  0.45267116D-05
  0.64743950D-05 -0.32785425D-07 -0.59376309D-05 -0.45954327D-03  0.44425687D-02
  0.62644856D-02  0.89598715D-02 -0.45371528D-04 -0.82170472D-02  0.41664494D-06
 -0.40278552D-05 -0.56796963D-05 -0.81234682D-05  0.41136099D-07  0.74499865D-05
  0.55396135D-04  0.76653432D-01 -0.74839348D-04 -0.46530216D-06 -0.64338781D-03
  0.57980116D-06 -0.41882509D-07 -0.57955369D-04  0.91144164D-07  0.12223891D-04
 -0.13375765D-04  0.11518743D-05 -0.16630485D-06 -0.71210972D-06 -0.98156501D-03
 -0.43842597D-05  0.44893220D-05 -0.10506231D-06  0.60480071D-07  0.25843349D-06
  0.35675582D-03  0.11952914D-05 -0.12954290D-05  0.10013763D-06 -0.99056393D-08
 -0.44425263D-07 -0.61139909D-04  0.78823456D-08  0.23709996D-05 -0.79273849D-07
 -0.45017178D-08  0.22991553D-05  0.34957886D-04 -0.19145319D-07 -0.94121541D-05
 -0.34720064D-04  0.20051533D-07  0.93104994D-08  0.14699980D-04  0.68128383D-08
  0.11830475D-07  0.14730548D-04 -0.70699926D-05 -0.39761973D-07 -0.58830488D-04
  0.70495541D-05 -0.31165524D-07  0.55381814D-05  0.10323180D-04  0.17500089D-04
  0.26497502D-04  0.33127713D-04  0.28495774D-04  0.10928743D-04 -0.10086902D-07
 -0.13353170D-06 -0.48501141D-06 -0.14387772D-05 -0.16579001D-05  0.20137667D-05
  0.21130323D-06 -0.34104753D-05 -0.38254332D-05 -0.21142323D-06 -0.20676730D-06
 -0.13661990D-06 -0.29094371D-03 -0.28453659D-03 -0.18800536D-03 -0.66878238D-05
 -0.65405456D-05 -0.43216150D-05 -0.77966095D-08 -0.74140192D-05  0.92824932D-06
 -0.47555643D-07 -0.67664770D-04 -0.41943294D-05 -0.14178807D-07 -0.19574870D-04
 -0.53288111D-06  0.70062648D-04 -0.71144968D-04  0.10823197D-05  0.25944963D-07
 -0.11905598D-06 -0.13286312D-03 -0.35195938D-04  0.35410143D-04 -0.21420515D-06
 -0.71117937D-08  0.85165788D-07  0.10229946D-03  0.18202532D-04 -0.17297505D-04
 -0.90502722D-06 -0.80459344D-10 -0.58905238D-07 -0.74969466D-04 -0.82658245D-07
 -0.72768068D-04  0.16562813D-05 -0.18891454D-07 -0.72456996D-04 -0.18804652D-03
  0.26686619D-06  0.29076120D-03  0.18307768D-03 -0.10082990D-07  0.28169336D-07
  0.25836185D-04 -0.77388455D-06  0.79313744D-08  0.25760732D-04  0.59962616D-04
 -0.92439381D-07 -0.10326929D-03 -0.57640962D-04 -0.12850449D-08
MO    3     MO 0.0        OCC NO =    2.0000210  ORB. ENERGY =    0.000000
 -0.14454714D-01 -0.26946499D-01 -0.45543255D-01 -0.68460006D-01 -0.84090856D-01
 -0.70969716D-01 -0.26686466D-01 -0.38142874D-05 -0.28509435D-04 -0.10654627D-03
 -0.29724750D-03 -0.39822970D-03  0.47023502D-03 -0.87197546D-03 -0.19345551D-02
 -0.82091218D-04  0.20838877D-06  0.19537772D-06  0.13912057D-06  0.57153765D-06
  0.53585288D-06  0.38155917D-06  0.11672450D-02  0.10943664D-02  0.77925409D-03
  0.10487728D-06  0.35382778D-07  0.60719011D-03 -0.66720702D-07  0.68173186D-06
 -0.37921754D-03  0.82257597D-09 -0.37561549D-08  0.46684850D-05 -0.10559010D-03
 -0.10552684D-03  0.21111694D-03 -0.10467605D-08  0.11322927D-06  0.76816614D-06
 -0.23885586D-04 -0.24274588D-04  0.48160174D-04 -0.99763666D-09  0.25213413D-07
 -0.12203647D-05  0.11478447D-04  0.11374521D-04 -0.22852969D-04  0.10468879D-09
 -0.12124365D-07 -0.11937531D-07 -0.15904815D-07  0.36351088D-04  0.77208985D-05
  0.39568017D-07 -0.10874942D-03 -0.11772617D-04  0.81464273D-08 -0.30384495D-06
 -0.11390078D-04  0.38697520D-07  0.28756477D-08  0.51743717D-04 -0.85669754D-04
  0.82075188D-07 -0.15555692D-03  0.12838313D-03 -0.90702130D-07  0.32576402D-06
  0.12862614D-03  0.55355197D-07 -0.47974195D-05 -0.86523437D-05 -0.12757876D-04
  0.75319668D-03  0.23776889D-03  0.50832019D-05  0.17386238D-07  0.96034880D-04
  0.28332190D-04  0.24714484D-07  0.19972527D-03 -0.50171124D-05  0.12671805D-07
  0.44350389D-04  0.38710465D-04 -0.74077780D-04  0.54335888D-04  0.19741892D-04
  0.46263863D-07  0.43240578D-07  0.75460474D-04 -0.97008904D-05 -0.11992757D-04
  0.21693647D-04 -0.67162921D-08  0.66471490D-08 -0.34771377D-04 -0.48434319D-05
 -0.87353289D-05 -0.12880237D-04  0.75259596D-03  0.23507339D-03  0.50565082D-05
  0.82915817D-04 -0.47929638D-04  0.28526511D-04  0.17259595D-03 -0.99374874D-04
 -0.37751024D-05  0.38054047D-04 -0.21812672D-04  0.38770040D-04  0.22170200D-04
 -0.41860082D-04  0.19689882D-04 -0.11084262D-03  0.66248998D-04 -0.37872707D-04
 -0.11411697D-04 -0.10272760D-04  0.21684457D-04  0.21395334D-05 -0.29894525D-04
  0.17197415D-04 -0.48432462D-05 -0.87349940D-05 -0.12879744D-04  0.75259971D-03
  0.23507272D-03  0.50565087D-05 -0.82918122D-04 -0.47908823D-04  0.28556415D-04
 -0.17262319D-03 -0.99331503D-04 -0.37125788D-05 -0.38045695D-04 -0.21803086D-04
  0.38783666D-04  0.22174983D-04 -0.41887946D-04  0.19712963D-04  0.11079649D-03
 -0.66261317D-04 -0.37896094D-04 -0.11401581D-04 -0.10272252D-04  0.21673833D-04
 -0.21326386D-05  0.29922183D-04  0.17190522D-04 -0.15460244D+00 -0.28924468D+00
 -0.49975065D+00 -0.81015452D+00 -0.12302974D+01 -0.17099976D+01 -0.20330561D+01
 -0.18111170D+01 -0.89943902D+00 -0.14480207D+00 -0.15277474D-02 -0.72284134D-03
 -0.24112777D-01 -0.84028201D-01 -0.30259916D+00 -0.66704218D+00 -0.93898011D+00
  0.44792411D-01  0.12288185D+01  0.72659271D+00 -0.15531721D-04 -0.18812707D-03
 -0.39231917D-03 -0.11251031D-02 -0.58425036D-04  0.48519901D-02  0.12536611D-01
 -0.10214240D-01  0.46599994D-01 -0.38429689D-03 -0.13194658D-03  0.10527977D-02
  0.13867809D-02  0.15298364D-02  0.12706489D-02  0.67474984D-03  0.17408899D-03
  0.33927707D-02  0.44690727D-02  0.49300868D-02  0.40948231D-02  0.21744647D-02
  0.56102325D-03  0.59414067D+01  0.78262225D+01  0.86335485D+01  0.71708380D+01
  0.38079140D+01  0.98246170D+00 -0.37355961D-07  0.36113339D-06  0.50923578D-06
  0.72834188D-06 -0.36882207D-08 -0.66795819D-06 -0.11067741D-06  0.10699579D-05
  0.15087524D-05  0.21579150D-05 -0.10927378D-07 -0.19790116D-05 -0.21079703D-03
  0.20378500D-02  0.28735812D-02  0.41099813D-02 -0.20812367D-04 -0.37692405D-02
  0.73815693D-05  0.24128755D-04  0.41654076D-01 -0.85897137D-07 -0.37456615D-06
 -0.48396043D-03 -0.17314198D-08 -0.64898443D-09 -0.98426192D-05 -0.72023695D-05
 -0.70603536D-05  0.14262723D-04  0.13606643D-09  0.73316802D-08  0.15137856D-06
 -0.11140039D-03 -0.11144394D-03  0.22284432D-03  0.53373048D-10  0.11886757D-06
  0.52228000D-06 -0.14324622D-04 -0.14326167D-04  0.28650789D-04  0.40260766D-10
  0.15318676D-07  0.15576551D-06  0.12692089D-08 -0.72915013D-05  0.54461245D-05
 -0.97677507D-08  0.21548809D-04 -0.80995684D-05  0.59601239D-08  0.32569488D-06
 -0.82388051D-05 -0.74141510D-08  0.82348551D-08  0.21300669D-05 -0.33741044D-04
  0.11382459D-07 -0.60750031D-05  0.50570320D-04 -0.36087024D-07 -0.31519770D-06
  0.50652811D-04  0.20131216D-08 -0.87945727D-03 -0.16393099D-02 -0.27789954D-02
 -0.42077749D-02 -0.52606454D-02 -0.45250984D-02 -0.17354726D-02 -0.68421292D-06
 -0.90576979D-05 -0.32899207D-04 -0.97594877D-04 -0.11245838D-03  0.13659746D-03
 -0.95963597D-04 -0.15938682D-03  0.12435670D-04  0.66795377D-06  0.65324420D-06
  0.43162606D-06 -0.20321195D-04 -0.19873685D-04 -0.13131384D-04  0.39018166D-02
  0.38158914D-02  0.25213208D-02  0.14971721D-06 -0.53410928D-05  0.87918250D-03
  0.41321240D-08  0.35195261D-06  0.21397849D-04  0.15472421D-08 -0.10146634D-06
  0.93386802D-05 -0.35263706D-04 -0.36014550D-04  0.71278257D-04  0.31805604D-09
  0.36534302D-07 -0.11101706D-05  0.20926374D-04  0.21258812D-04 -0.42185186D-04
 -0.13494558D-09 -0.21860969D-07  0.42300915D-06  0.18151468D-04  0.18080188D-04
 -0.36231657D-04  0.20419660D-09 -0.18064607D-07  0.10899329D-05 -0.97218196D-08
 -0.16961934D-05  0.46408715D-04 -0.14493567D-07  0.10178561D-04 -0.68954826D-04
  0.43659026D-07 -0.50899803D-05 -0.70271318D-04 -0.36257624D-08  0.57790269D-08
  0.41038627D-06 -0.25388608D-04  0.72850833D-08 -0.33322737D-05  0.37869299D-04
 -0.24622164D-07  0.21011149D-05  0.38296525D-04  0.13519798D-08
MO    4     MO 0.0        OCC NO =    2.0000123  ORB. ENERGY =    0.000000
  0.26825083D-01  0.50007358D-01  0.84519249D-01  0.12704819D+00  0.15605595D+00
  0.13170572D+00  0.49524789D-01 -0.14574074D-05 -0.10893218D-04 -0.40710442D-04
 -0.11357579D-03 -0.15216025D-03  0.17967288D-03  0.26462219D-02 -0.36110782D-02
 -0.42308332D-04  0.64784165D-06  0.60739273D-06  0.43249981D-06 -0.18835715D-05
 -0.17659680D-05 -0.12574744D-05  0.36697350D-02  0.34406098D-02  0.24499191D-02
  0.22833292D-06  0.19241396D-05  0.13052326D-02 -0.74181608D-07  0.73163310D-06
 -0.41705295D-03  0.68427644D-09  0.21346233D-07  0.37027264D-05 -0.31916853D-03
 -0.31920649D-03  0.63837502D-03 -0.12863939D-08  0.33946072D-06  0.63945650D-06
  0.10289916D-04  0.89016197D-05 -0.19191536D-04 -0.14869634D-08 -0.94791032D-08
 -0.14453530D-05 -0.17830462D-04 -0.17882088D-04  0.35712550D-04 -0.11779725D-09
  0.18573297D-07 -0.39291006D-06  0.10274602D-07 -0.41971981D-04  0.22566092D-04
 -0.54126900D-07  0.12679190D-03 -0.33959510D-04  0.23303094D-07 -0.87595795D-06
 -0.33738764D-04 -0.44315943D-07  0.12161839D-07  0.81958358D-04 -0.16373376D-03
  0.13745252D-06 -0.24596584D-03  0.24538793D-03 -0.17393804D-06  0.90771568D-07
  0.24581334D-03  0.87752645D-07 -0.90238478D-04 -0.16274881D-03 -0.23997303D-03
  0.10259368D-02  0.68530876D-03  0.43876809D-05 -0.11658887D-08 -0.57208341D-04
  0.33683663D-04  0.31285956D-07  0.30607224D-03 -0.43972163D-04  0.27557300D-07
  0.11122955D-03  0.75851548D-04 -0.14294533D-03  0.24411073D-04  0.11853426D-03
  0.68003461D-07  0.11080449D-06  0.14213981D-03 -0.14766614D-04 -0.20892505D-04
  0.35659119D-04 -0.12716845D-07  0.10037188D-07 -0.62686263D-04 -0.90357584D-04
 -0.16296362D-03 -0.24028977D-03  0.10217061D-02  0.68382921D-03  0.42109739D-05
 -0.50306378D-04  0.28950227D-04  0.33457126D-04  0.26345519D-03 -0.15167556D-03
 -0.42690714D-04  0.96108399D-04 -0.55406890D-04  0.75849274D-04 -0.17433625D-04
 -0.10057128D-03  0.11800491D-03 -0.14396188D-03  0.12378817D-03 -0.71286121D-04
 -0.19468379D-04 -0.16431141D-04  0.35899520D-04  0.54956568D-05 -0.54471023D-04
  0.31479565D-04 -0.90357816D-04 -0.16296404D-03 -0.24029039D-03  0.10217102D-02
  0.68383418D-03  0.42107671D-05  0.50325251D-04  0.28937046D-04  0.33439188D-04
 -0.26350975D-03 -0.15160911D-03 -0.42597690D-04 -0.96096176D-04 -0.55382703D-04
  0.75883582D-04 -0.17439293D-04 -0.10060696D-03  0.11804625D-03  0.14389573D-03
 -0.12371047D-03 -0.71305773D-04 -0.19450436D-04 -0.16429974D-04  0.35880410D-04
 -0.54826142D-05  0.54519047D-04  0.31467921D-04  0.91313917D-01  0.17083860D+00
  0.29517120D+00  0.47850720D+00  0.72665910D+00  0.10099878D+01  0.12007981D+01
  0.10697127D+01  0.53124192D+00  0.85525455D-01  0.90234407D-03  0.42753047D-03
  0.14261701D-01  0.49699172D-01  0.17897476D+00  0.39452759D+00  0.55536752D+00
 -0.26492841D-01 -0.72679485D+00 -0.42974924D+00  0.62779140D-05  0.76040870D-04
  0.15857522D-03  0.45476612D-03  0.23615371D-04 -0.19611720D-02 -0.50672919D-02
  0.41285909D-02 -0.28545149D-01  0.14183059D-02 -0.18170553D-03  0.17614517D-02
  0.23202439D-02  0.25595923D-02  0.21259418D-02  0.11289341D-02  0.29127089D-03
  0.11130374D-01  0.14661306D-01  0.16173715D-01  0.13433537D-01  0.71335809D-02
  0.18405012D-02  0.99146391D+01  0.13059899D+02  0.14407113D+02  0.11966235D+02
  0.63544031D+01  0.16394692D+01 -0.59862125D-07  0.57870850D-06  0.81603940D-06
  0.11671522D-05 -0.59102945D-08 -0.10703887D-05 -0.35625960D-06  0.34440886D-05
  0.48565244D-05  0.69461146D-05 -0.35174147D-07 -0.63702423D-05 -0.33686726D-03
  0.32566159D-02  0.45921684D-02  0.65680156D-02 -0.33259507D-04 -0.60234898D-02
  0.12890922D-04  0.80778392D-04  0.72557393D-01 -0.54027200D-07 -0.35718487D-07
 -0.30643809D-03 -0.67109158D-09  0.71040853D-08 -0.39587162D-05  0.45436418D-03
  0.45453239D-03 -0.90889658D-03 -0.31757618D-09 -0.48497527D-06 -0.26901738D-05
 -0.30964047D-03 -0.30969889D-03  0.61933935D-03  0.18174545D-09  0.33030133D-06
  0.15803692D-05  0.43236789D-05  0.43366261D-05 -0.86603050D-05 -0.69019992D-11
 -0.48044717D-08 -0.10435180D-06  0.18050047D-07 -0.14553259D-04 -0.46949323D-04
 -0.41187947D-08  0.43547060D-04  0.70378031D-04 -0.50031346D-07  0.11271690D-06
  0.70469938D-04 -0.15503087D-07  0.15088488D-07  0.42667706D-05 -0.62583059D-04
  0.21462968D-07 -0.12423958D-04  0.93871109D-04 -0.66728430D-07 -0.37635334D-06
  0.93878067D-04  0.43748516D-08 -0.63570199D-02 -0.11849496D-01 -0.20087536D-01