 clch3f_ts-wavefunction
GAUSSIAN            211 MOL ORBITALS    339 PRIMITIVES        6 NUCLEI
  C    1    (CENTRE  1)   0.00033070  0.00005480 -0.92163644  CHARGE =  6.0
  H    2    (CENTRE  2)   0.00003590 -1.98906904 -1.17300214  CHARGE =  1.0
  H    3    (CENTRE  3)  -1.72213010  0.99468570 -1.17398291  CHARGE =  1.0
  H    4    (CENTRE  4)   1.72295780  0.99424539 -1.17459707  CHARGE =  1.0
  Cl   5    (CENTRE  5)   0.00104880  0.00181792  3.10806659  CHARGE = 17.0
  F    6    (CENTRE  6)  -0.00035149 -0.00174044 -4.90094425  CHARGE =  9.0
CENTRE ASSIGNMENTS    1  1  1  1  1  1  1  1  1  1  1  1  1  1  1  1  1  1  1  1
CENTRE ASSIGNMENTS    1  1  1  1  1  1  1  1  1  1  1  1  1  1  1  1  1  1  1  1
CENTRE ASSIGNMENTS    1  1  1  1  1  1  1  1  1  1  1  1  1  1  1  1  1  1  1  1
CENTRE ASSIGNMENTS    1  1  1  1  1  1  1  1  1  1  1  1  2  2  2  2  2  2  2  2
CENTRE ASSIGNMENTS    2  2  2  2  2  2  2  2  2  2  2  2  2  2  2  2  2  2  2  3
CENTRE ASSIGNMENTS    3  3  3  3  3  3  3  3  3  3  3  3  3  3  3  3  3  3  3  3
CENTRE ASSIGNMENTS    3  3  3  3  3  3  4  4  4  4  4  4  4  4  4  4  4  4  4  4
CENTRE ASSIGNMENTS    4  4  4  4  4  4  4  4  4  4  4  4  4  5  5  5  5  5  5  5
CENTRE ASSIGNMENTS    5  5  5  5  5  5  5  5  5  5  5  5  5  5  5  5  5  5  5  5
CENTRE ASSIGNMENTS    5  5  5  5  5  5  5  5  5  5  5  5  5  5  5  5  5  5  5  5
CENTRE ASSIGNMENTS    5  5  5  5  5  5  5  5  5  5  5  5  5  5  5  5  5  5  5  5
CENTRE ASSIGNMENTS    5  5  5  5  5  5  5  5  5  5  5  5  5  5  5  5  5  5  5  5
CENTRE ASSIGNMENTS    5  5  5  5  5  5  5  5  5  5  5  5  5  5  5  5  5  5  5  5
CENTRE ASSIGNMENTS    5  5  5  5  5  5  5  6  6  6  6  6  6  6  6  6  6  6  6  6
CENTRE ASSIGNMENTS    6  6  6  6  6  6  6  6  6  6  6  6  6  6  6  6  6  6  6  6
CENTRE ASSIGNMENTS    6  6  6  6  6  6  6  6  6  6  6  6  6  6  6  6  6  6  6  6
CENTRE ASSIGNMENTS    6  6  6  6  6  6  6  6  6  6  6  6  6  6  6  6  6  6  6
TYPE ASSIGNMENTS      1  1  1  1  1  1  1  1  1  1  1  1  1  1  1  1  2  2  2  3
TYPE ASSIGNMENTS      3  3  4  4  4  2  3  4  2  3  4  2  3  4  5  6  7  8  9 10
TYPE ASSIGNMENTS      5  6  7  8  9 10  5  6  7  8  9 10 11 12 13 17 14 15 18 19
TYPE ASSIGNMENTS     16 20 11 12 13 17 14 15 18 19 16 20  1  1  1  1  1  1  2  3
TYPE ASSIGNMENTS      4  2  3  4  2  3  4  5  6  7  8  9 10  5  6  7  8  9 10  1
TYPE ASSIGNMENTS      1  1  1  1  1  2  3  4  2  3  4  2  3  4  5  6  7  8  9 10
TYPE ASSIGNMENTS      5  6  7  8  9 10  1  1  1  1  1  1  2  3  4  2  3  4  2  3
TYPE ASSIGNMENTS      4  5  6  7  8  9 10  5  6  7  8  9 10  1  1  1  1  1  1  1
TYPE ASSIGNMENTS      1  1  1  1  1  1  1  1  1  1  1  1  1  1  1  1  1  1  1  1
TYPE ASSIGNMENTS      1  1  1  1  2  2  2  2  2  2  3  3  3  3  3  3  4  4  4  4
TYPE ASSIGNMENTS      4  4  2  2  2  2  2  2  3  3  3  3  3  3  4  4  4  4  4  4
TYPE ASSIGNMENTS      2  3  4  2  3  4  2  3  4  5  6  7  8  9 10  5  6  7  8  9
TYPE ASSIGNMENTS     10  5  6  7  8  9 10 11 12 13 17 14 15 18 19 16 20 11 12 13
TYPE ASSIGNMENTS     17 14 15 18 19 16 20  1  1  1  1  1  1  1  1  1  1  1  1  1
TYPE ASSIGNMENTS      1  1  1  2  2  2  3  3  3  4  4  4  2  3  4  2  3  4  2  3
TYPE ASSIGNMENTS      4  5  6  7  8  9 10  5  6  7  8  9 10  5  6  7  8  9 10 11
TYPE ASSIGNMENTS     12 13 17 14 15 18 19 16 20 11 12 13 17 14 15 18 19 16 20
EXPONENTS  0.8236000D+04 0.1235000D+04 0.2808000D+03 0.7927000D+02 0.2559000D+02
EXPONENTS  0.8997000D+01 0.3319000D+01 0.2808000D+03 0.7927000D+02 0.2559000D+02
EXPONENTS  0.8997000D+01 0.3319000D+01 0.3643000D+00 0.9059000D+00 0.1285000D+00
EXPONENTS  0.4402000D-01 0.1871000D+02 0.4133000D+01 0.1200000D+01 0.1871000D+02
EXPONENTS  0.4133000D+01 0.1200000D+01 0.1871000D+02 0.4133000D+01 0.1200000D+01
EXPONENTS  0.3827000D+00 0.3827000D+00 0.3827000D+00 0.1209000D+00 0.1209000D+00
EXPONENTS  0.1209000D+00 0.3569000D-01 0.3569000D-01 0.3569000D-01 0.1097000D+01
EXPONENTS  0.1097000D+01 0.1097000D+01 0.1097000D+01 0.1097000D+01 0.1097000D+01
EXPONENTS  0.3180000D+00 0.3180000D+00 0.3180000D+00 0.3180000D+00 0.3180000D+00
EXPONENTS  0.3180000D+00 0.1000000D+00 0.1000000D+00 0.1000000D+00 0.1000000D+00
EXPONENTS  0.1000000D+00 0.1000000D+00 0.7610000D+00 0.7610000D+00 0.7610000D+00
EXPONENTS  0.7610000D+00 0.7610000D+00 0.7610000D+00 0.7610000D+00 0.7610000D+00
EXPONENTS  0.7610000D+00 0.7610000D+00 0.2680000D+00 0.2680000D+00 0.2680000D+00
EXPONENTS  0.2680000D+00 0.2680000D+00 0.2680000D+00 0.2680000D+00 0.2680000D+00
EXPONENTS  0.2680000D+00 0.2680000D+00 0.3387000D+02 0.5095000D+01 0.1159000D+01
EXPONENTS  0.3258000D+00 0.1027000D+00 0.2526000D-01 0.1407000D+01 0.1407000D+01
EXPONENTS  0.1407000D+01 0.3880000D+00 0.3880000D+00 0.3880000D+00 0.1020000D+00
EXPONENTS  0.1020000D+00 0.1020000D+00 0.1057000D+01 0.1057000D+01 0.1057000D+01
EXPONENTS  0.1057000D+01 0.1057000D+01 0.1057000D+01 0.2470000D+00 0.2470000D+00
EXPONENTS  0.2470000D+00 0.2470000D+00 0.2470000D+00 0.2470000D+00 0.3387000D+02
EXPONENTS  0.5095000D+01 0.1159000D+01 0.3258000D+00 0.1027000D+00 0.2526000D-01
EXPONENTS  0.1407000D+01 0.1407000D+01 0.1407000D+01 0.3880000D+00 0.3880000D+00
EXPONENTS  0.3880000D+00 0.1020000D+00 0.1020000D+00 0.1020000D+00 0.1057000D+01
EXPONENTS  0.1057000D+01 0.1057000D+01 0.1057000D+01 0.1057000D+01 0.1057000D+01
EXPONENTS  0.2470000D+00 0.2470000D+00 0.2470000D+00 0.2470000D+00 0.2470000D+00
EXPONENTS  0.2470000D+00 0.3387000D+02 0.5095000D+01 0.1159000D+01 0.3258000D+00
EXPONENTS  0.1027000D+00 0.2526000D-01 0.1407000D+01 0.1407000D+01 0.1407000D+01
EXPONENTS  0.3880000D+00 0.3880000D+00 0.3880000D+00 0.1020000D+00 0.1020000D+00
EXPONENTS  0.1020000D+00 0.1057000D+01 0.1057000D+01 0.1057000D+01 0.1057000D+01
EXPONENTS  0.1057000D+01 0.1057000D+01 0.2470000D+00 0.2470000D+00 0.2470000D+00
EXPONENTS  0.2470000D+00 0.2470000D+00 0.2470000D+00 0.4561000D+06 0.6833000D+05
EXPONENTS  0.1555000D+05 0.4405000D+04 0.1439000D+04 0.5204000D+03 0.2031000D+03
EXPONENTS  0.8396000D+02 0.3620000D+02 0.1583000D+02 0.6334000D+01 0.4405000D+04
EXPONENTS  0.1439000D+04 0.5204000D+03 0.2031000D+03 0.8396000D+02 0.3620000D+02
EXPONENTS  0.1583000D+02 0.6334000D+01 0.2694000D+01 0.1439000D+04 0.2031000D+03
EXPONENTS  0.8396000D+02 0.3620000D+02 0.1583000D+02 0.6334000D+01 0.2694000D+01
EXPONENTS  0.4313000D+00 0.9768000D+00 0.1625000D+00 0.5910000D-01 0.6633000D+03
EXPONENTS  0.1568000D+03 0.4998000D+02 0.1842000D+02 0.7240000D+01 0.2922000D+01
EXPONENTS  0.6633000D+03 0.1568000D+03 0.4998000D+02 0.1842000D+02 0.7240000D+01
EXPONENTS  0.2922000D+01 0.6633000D+03 0.1568000D+03 0.4998000D+02 0.1842000D+02
EXPONENTS  0.7240000D+01 0.2922000D+01 0.1568000D+03 0.4998000D+02 0.1842000D+02
EXPONENTS  0.7240000D+01 0.2922000D+01 0.3818000D+00 0.1568000D+03 0.4998000D+02
EXPONENTS  0.1842000D+02 0.7240000D+01 0.2922000D+01 0.3818000D+00 0.1568000D+03
EXPONENTS  0.4998000D+02 0.1842000D+02 0.7240000D+01 0.2922000D+01 0.3818000D+00
EXPONENTS  0.1022000D+01 0.1022000D+01 0.1022000D+01 0.1301000D+00 0.1301000D+00
EXPONENTS  0.1301000D+00 0.4190000D-01 0.4190000D-01 0.4190000D-01 0.1046000D+01
EXPONENTS  0.1046000D+01 0.1046000D+01 0.1046000D+01 0.1046000D+01 0.1046000D+01
EXPONENTS  0.3440000D+00 0.3440000D+00 0.3440000D+00 0.3440000D+00 0.3440000D+00
EXPONENTS  0.3440000D+00 0.1350000D+00 0.1350000D+00 0.1350000D+00 0.1350000D+00
EXPONENTS  0.1350000D+00 0.1350000D+00 0.7060000D+00 0.7060000D+00 0.7060000D+00
EXPONENTS  0.7060000D+00 0.7060000D+00 0.7060000D+00 0.7060000D+00 0.7060000D+00
EXPONENTS  0.7060000D+00 0.7060000D+00 0.3120000D+00 0.3120000D+00 0.3120000D+00
EXPONENTS  0.3120000D+00 0.3120000D+00 0.3120000D+00 0.3120000D+00 0.3120000D+00
EXPONENTS  0.3120000D+00 0.3120000D+00 0.1950000D+05 0.2923000D+04 0.6645000D+03
EXPONENTS  0.1875000D+03 0.6062000D+02 0.2142000D+02 0.7950000D+01 0.6645000D+03
EXPONENTS  0.1875000D+03 0.6062000D+02 0.2142000D+02 0.7950000D+01 0.8815000D+00
EXPONENTS  0.2257000D+01 0.3041000D+00 0.9158000D-01 0.4388000D+02 0.9926000D+01
EXPONENTS  0.2930000D+01 0.4388000D+02 0.9926000D+01 0.2930000D+01 0.4388000D+02
EXPONENTS  0.9926000D+01 0.2930000D+01 0.9132000D+00 0.9132000D+00 0.9132000D+00
EXPONENTS  0.2672000D+00 0.2672000D+00 0.2672000D+00 0.7361000D-01 0.7361000D-01
EXPONENTS  0.7361000D-01 0.3107000D+01 0.3107000D+01 0.3107000D+01 0.3107000D+01
EXPONENTS  0.3107000D+01 0.3107000D+01 0.8550000D+00 0.8550000D+00 0.8550000D+00
EXPONENTS  0.8550000D+00 0.8550000D+00 0.8550000D+00 0.2920000D+00 0.2920000D+00
EXPONENTS  0.2920000D+00 0.2920000D+00 0.2920000D+00 0.2920000D+00 0.1917000D+01
EXPONENTS  0.1917000D+01 0.1917000D+01 0.1917000D+01 0.1917000D+01 0.1917000D+01
EXPONENTS  0.1917000D+01 0.1917000D+01 0.1917000D+01 0.1917000D+01 0.7240000D+00
EXPONENTS  0.7240000D+00 0.7240000D+00 0.7240000D+00 0.7240000D+00 0.7240000D+00
EXPONENTS  0.7240000D+00 0.7240000D+00 0.7240000D+00 0.7240000D+00
MO    1     MO 0.0        OCC NO =    2.0000302  ORB. ENERGY =    0.000000
 -0.12251359D-07 -0.22839001D-07 -0.38601023D-07 -0.58024538D-07 -0.71272752D-07
 -0.60151688D-07 -0.22618606D-07  0.14950038D-10  0.11174227D-09  0.41760638D-09
  0.11650568D-08  0.15608549D-08 -0.18430786D-08 -0.37857953D-08  0.14120359D-07
  0.24626614D-08  0.10524312D-03  0.98672117D-04  0.70260425D-04  0.14620077D-04
  0.13707251D-04  0.97603796D-05 -0.28515189D-07 -0.26734802D-07 -0.19036772D-07
  0.34202932D-03  0.47513459D-04 -0.81086492D-07  0.45477646D-03  0.63176028D-04
 -0.11012599D-06  0.97125779D-05  0.13491530D-05 -0.23455332D-08  0.89379840D-05
 -0.90617258D-05  0.12374180D-06  0.12941431D-03 -0.51936145D-03 -0.72157261D-04
  0.25657748D-04 -0.25632663D-04 -0.25084387D-07  0.36814670D-03  0.95745285D-04
  0.13282575D-04  0.54477809D-05 -0.54647314D-05  0.16950498D-07  0.78358185D-04
 -0.67669034D-04 -0.94041034D-05  0.91910222D-04  0.12766023D-04  0.88513606D-07
  0.91931268D-04  0.12777350D-04  0.29233462D-05 -0.36766194D-03 -0.51075420D-04
 -0.31888870D-05  0.44210095D-04 -0.27000905D-04 -0.37546453D-05 -0.26111530D-07
 -0.26956337D-04 -0.37269252D-05  0.70848561D-05  0.10795905D-03  0.14990861D-04
 -0.70065215D-05  0.10105154D-03 -0.57791633D-05 -0.10422959D-04 -0.15368647D-04
  0.47049423D-04  0.15257306D-03 -0.15080730D-05  0.79843641D-05  0.93235998D-05
  0.34771075D-05  0.74416508D-04  0.38167821D-04  0.36939112D-04  0.70087056D-04
  0.23468459D-04  0.28620862D-05 -0.15242870D-04  0.54080650D-05  0.98348047D-05
  0.28435532D-04 -0.47705994D-04  0.41385731D-04 -0.59144307D-05 -0.17622343D-05
  0.76766649D-05  0.25731198D-04  0.63060001D-04  0.41503135D-05 -0.33105248D-04
 -0.59706679D-04 -0.88037463D-04  0.26956147D-03  0.87397046D-03 -0.86363824D-05
  0.48733832D-04 -0.22415655D-04  0.19954887D-04  0.21243655D-03 -0.69260506D-04
  0.21175215D-03  0.13819875D-03 -0.29593317D-04  0.16508860D-04  0.90174521D-05
 -0.65439735D-04  0.56422283D-04 -0.93501081D-04  0.19050642D-03 -0.14405055D-03
 -0.91467716D-05 -0.34888449D-04  0.44035221D-04 -0.12689364D-04  0.40201887D-04
  0.22050854D-04  0.38884610D-04  0.70129996D-04  0.10340664D-03 -0.31663621D-03
 -0.10265450D-02  0.10144145D-04  0.55847131D-04  0.28727870D-04 -0.23458520D-04
  0.23646957D-03  0.10379003D-03 -0.24881931D-03  0.15009548D-03  0.55911756D-04
 -0.19456727D-04 -0.62380305D-05  0.72585421D-04 -0.66347390D-04 -0.11468642D-03
  0.23209861D-03  0.15475615D-03  0.14640298D-04  0.37106842D-04 -0.51747140D-04
 -0.19389015D-04  0.36163241D-04 -0.68325272D-05 -0.45275354D-07 -0.84705357D-07
 -0.14635207D-06 -0.23725390D-06 -0.36029281D-06 -0.50077311D-06 -0.59538086D-06
 -0.53038596D-06 -0.26340088D-06 -0.42405314D-07 -0.44740111D-09 -0.21348651D-09
 -0.71215526D-08 -0.24817185D-07 -0.89370702D-07 -0.19700659D-06 -0.27732170D-06
  0.13229149D-07  0.36292360D-06  0.21459445D-06 -0.26257525D-11 -0.31804274D-10
 -0.66324461D-10 -0.19020701D-09 -0.98771851D-11  0.82026486D-09  0.21194069D-08
 -0.17267930D-08  0.12895095D-07 -0.37227556D-08 -0.65567889D-09  0.11500578D+02
  0.15148951D+02  0.16711665D+02  0.13880346D+02  0.73708489D+01  0.19017175D+01
  0.15976650D+01  0.21044986D+01  0.23215913D+01  0.19282634D+01  0.10239614D+01
  0.26418738D+00 -0.27578300D-02 -0.36327073D-02 -0.40074448D-02 -0.33284967D-02
 -0.17675241D-02 -0.45603046D-03 -0.45642934D-03  0.44124652D-02  0.62220365D-02
  0.88991582D-02 -0.45064084D-04 -0.81613674D-02 -0.63407290D-04  0.61298088D-03
  0.86436702D-03  0.12362735D-02 -0.62603150D-05 -0.11337794D-02  0.10946196D-06
 -0.10582078D-05 -0.14921835D-05 -0.21342171D-05  0.10807375D-07  0.19572784D-05
  0.75879849D-01  0.10541258D-01 -0.18196804D-04 -0.63870083D-03 -0.88728962D-04
  0.15372460D-06 -0.56931247D-04 -0.79089196D-05  0.13698998D-07  0.15958739D-05
 -0.18356342D-05  0.23976022D-06  0.25014621D-04 -0.99893016D-03 -0.13877147D-03
 -0.54235187D-06  0.62860762D-06 -0.86255747D-07 -0.85432067D-05  0.36046618D-03
  0.50075394D-04  0.14270263D-06 -0.15742388D-06  0.14721257D-07  0.21768412D-05
 -0.61376858D-04 -0.85264124D-05  0.18668418D-05  0.25722132D-06  0.17071977D-08
  0.18938759D-05  0.27273097D-06  0.46604871D-05 -0.74944013D-05 -0.10443949D-05
 -0.46656086D-05  0.66949332D-04  0.15114147D-04  0.20999760D-05  0.14405579D-07
  0.15109051D-04  0.20970676D-05 -0.92306830D-06 -0.60451491D-04 -0.83969956D-05
  0.87985157D-06 -0.12882895D-04  0.66722732D-08  0.12437129D-07  0.21083704D-07
  0.31923579D-07  0.39911505D-07  0.34331052D-07  0.13166697D-07 -0.12137223D-10
 -0.16067410D-09 -0.58359758D-09 -0.17312312D-08 -0.19948943D-08  0.24230963D-08
  0.22997469D-09 -0.43950693D-08 -0.46024790D-08 -0.29074091D-03 -0.28433826D-03
 -0.18787431D-03 -0.40390119D-04 -0.39500654D-04 -0.26099752D-04  0.59627453D-07
  0.58314347D-07  0.38530755D-07 -0.10312104D-04 -0.14352882D-05  0.26401770D-08
 -0.64748285D-04 -0.89927300D-05  0.10839918D-07 -0.19271614D-04 -0.26771543D-05
  0.39647774D-08  0.99730733D-05 -0.10005381D-04  0.32307433D-07  0.14344800D-03
 -0.13013394D-03 -0.18084305D-04 -0.49906128D-05  0.50149665D-05 -0.24353749D-07
 -0.71851205D-04  0.10061801D-03  0.13980462D-04  0.25085728D-05 -0.25251118D-05
  0.16539033D-07  0.36152111D-04 -0.72533179D-04 -0.10076138D-04 -0.72277913D-04
 -0.10026599D-04 -0.67921788D-07 -0.72446356D-04 -0.10115589D-04 -0.25742605D-04
  0.28928010D-03  0.40195386D-04  0.25946370D-04 -0.37121804D-03  0.25504151D-04
  0.35383974D-05  0.23789117D-07  0.25557451D-04  0.35666514D-05  0.81684249D-05
 -0.10206990D-03 -0.14181844D-04 -0.82397922D-05  0.11784641D-03
MO    2     MO 0.0        OCC NO =    2.0000302  ORB. ENERGY =    0.000000
 -0.43215217D-07 -0.80561870D-07 -0.13616054D-06 -0.20467468D-06 -0.25140619D-06
 -0.21217795D-06 -0.79784451D-07  0.19924063D-10  0.14892003D-09  0.55654814D-09
  0.15526826D-08  0.20801667D-08 -0.24562890D-08 -0.84159368D-08  0.20059769D-07
 -0.49445979D-08 -0.14620691D-04 -0.13707827D-04 -0.97607894D-05  0.10524257D-03
  0.98671603D-04  0.70260059D-04 -0.40307078D-07 -0.37790448D-07 -0.26909050D-07
 -0.47517734D-04  0.34203976D-03 -0.14994122D-06 -0.63179873D-04  0.45477930D-03
 -0.17533558D-06 -0.13493171D-05  0.97119917D-05 -0.38935497D-08  0.64837731D-04
 -0.65056058D-04  0.21832694D-06 -0.18124391D-04  0.72126114D-04 -0.51924272D-03
  0.18405049D-03 -0.18400878D-03 -0.41715489D-07 -0.51270127D-04 -0.13366536D-04
  0.96084728D-04  0.39197032D-04 -0.39224410D-04  0.27377745D-07 -0.10928390D-04
  0.93870232D-05 -0.67596340D-04 -0.12764399D-04  0.91900078D-04  0.14937520D-06
 -0.12776678D-04  0.91916861D-04  0.22307200D-04  0.51069874D-04 -0.36761710D-03
 -0.22755325D-04 -0.63242899D-05  0.37604162D-05 -0.27023952D-04 -0.42569095D-07
  0.37358446D-05 -0.26977293D-04  0.50462486D-04 -0.15017093D-04  0.10804915D-03
 -0.50334779D-04 -0.14028097D-04 -0.41563722D-04 -0.74961883D-04 -0.11053125D-03
  0.33843907D-03  0.10972766D-02 -0.10843723D-04 -0.10968892D-05  0.67070618D-04
  0.25020113D-04 -0.10264703D-04  0.27458581D-03  0.26574895D-03 -0.97202824D-05
  0.16884552D-03  0.20671487D-04 -0.10959729D-03  0.38927896D-04  0.70669394D-04
 -0.38617365D-05  0.67365972D-05  0.29761559D-03 -0.42643921D-04 -0.12652043D-04
  0.55295965D-04 -0.35648930D-05 -0.87294712D-05  0.29942759D-04  0.25786354D-04
  0.46506751D-04  0.68574176D-04 -0.20998937D-03 -0.68077755D-03  0.67277971D-05
 -0.32852779D-04  0.26305284D-04 -0.15549333D-04 -0.11785236D-03  0.13641576D-03
 -0.16498412D-03 -0.62794949D-04  0.10072250D-03 -0.12901288D-04  0.87377137D-05
  0.35182409D-04 -0.43920123D-04  0.91002934D-04 -0.17894611D-03  0.59339317D-04
  0.21377101D-04  0.12961992D-04 -0.34339093D-04  0.26354459D-04  0.90369958D-05
  0.52722032D-04  0.15775902D-04  0.28452488D-04  0.41953177D-04 -0.12847291D-03
 -0.41650502D-03  0.41165668D-05  0.18310634D-04  0.19186502D-04 -0.95206369D-05
  0.55412917D-04  0.11232861D-03 -0.10097552D-03  0.22727983D-04  0.88821616D-04
 -0.79167454D-05  0.10894095D-04  0.16008910D-04 -0.26903006D-04 -0.62029704D-04
  0.12016124D-03  0.17780754D-04  0.18057983D-04  0.29570301D-05 -0.21015013D-04
 -0.21880264D-04 -0.19675529D-04  0.56750551D-04  0.11381778D-06  0.21294093D-06
  0.36791469D-06  0.59643294D-06  0.90574065D-06  0.12588943D-05  0.14967288D-05
  0.13333381D-05  0.66216387D-06  0.10660278D-06  0.11247223D-08  0.53064043D-09
  0.17701276D-07  0.61685404D-07  0.22213913D-06  0.48967807D-06  0.68930867D-06
 -0.32882270D-07 -0.90208011D-06 -0.53339432D-06  0.15140778D-10  0.18339179D-09
  0.38244425D-09  0.10967835D-08  0.56954442D-10 -0.47298625D-08 -0.12221056D-07
  0.99571415D-08 -0.31490751D-07 -0.64834501D-08  0.40923521D-09 -0.15976660D+01
 -0.21044999D+01 -0.23215928D+01 -0.19282646D+01 -0.10239620D+01 -0.26418755D+00
  0.11500577D+02  0.15148950D+02  0.16711664D+02  0.13880345D+02  0.73708484D+01
  0.19017174D+01 -0.47547686D-02 -0.62631425D-02 -0.69092266D-02 -0.57386537D-02
 -0.30473843D-02 -0.78624109D-03  0.63407428D-04 -0.61298222D-03 -0.86436891D-03
 -0.12362762D-02  0.62603287D-05  0.11337819D-02 -0.45642912D-03  0.44124631D-02
  0.62220335D-02  0.88991539D-02 -0.45064062D-04 -0.81613634D-02  0.18908844D-06
 -0.18279854D-05 -0.25776502D-05 -0.36867217D-05  0.18669040D-07  0.33810715D-05
 -0.10541268D-01  0.75879846D-01 -0.31378674D-04  0.88728229D-04 -0.63870057D-03
  0.26719805D-06  0.79088988D-05 -0.56931163D-04  0.23396192D-07  0.12762615D-04
 -0.13176111D-04  0.41349540D-06 -0.36667791D-05  0.13876825D-03 -0.99890173D-03
 -0.43624797D-05  0.45133827D-05 -0.15090304D-06  0.12556824D-05 -0.50075418D-04
  0.36045578D-03  0.11044183D-05 -0.11293484D-05  0.24930075D-07 -0.31431321D-06
  0.85262781D-05 -0.61374614D-04 -0.25332006D-06  0.18514160D-05  0.33191518D-08
 -0.26924742D-06  0.18778942D-05  0.33478034D-04  0.10292076D-05 -0.74321422D-05
 -0.33487991D-04 -0.93295946D-05 -0.21008678D-05  0.15116865D-04  0.25174048D-07
 -0.20978341D-05  0.15111943D-04 -0.64094860D-05  0.84004377D-05 -0.60462538D-04
  0.63339639D-05  0.17670760D-05 -0.11739371D-07 -0.21882209D-07 -0.37095219D-07
 -0.56167178D-07 -0.70221343D-07 -0.60402947D-07 -0.23165830D-07  0.29914608D-10
  0.39601340D-09  0.14383927D-08  0.42669649D-08  0.49168152D-08 -0.59722044D-08
 -0.33536361D-09  0.91321163D-08  0.92188511D-08  0.40389557D-04  0.39500104D-04
  0.26099389D-04 -0.29074054D-03 -0.28433790D-03 -0.18787407D-03  0.12225545D-06
  0.11956316D-06  0.79000436D-07  0.14309096D-05 -0.10319843D-04 -0.28378278D-08
  0.89961896D-05 -0.64742466D-04  0.38884646D-07  0.26772363D-05 -0.19271233D-04
  0.91999575D-08  0.71761831D-04 -0.71812295D-04  0.50463476D-07 -0.20006474D-04
  0.18052805D-04 -0.12999416D-03 -0.35953634D-04  0.35994758D-04 -0.41123554D-07
  0.10027080D-04 -0.13965466D-04  0.10054696D-03  0.18094468D-04 -0.18127919D-04
  0.33451243D-07 -0.50487736D-05  0.10071109D-04 -0.72494014D-04  0.10010298D-04
 -0.72188943D-04 -0.12731854D-06  0.10096297D-04 -0.72344207D-04 -0.18576745D-03
 -0.40127192D-04  0.28891103D-03  0.18614941D-03  0.51836809D-04 -0.35334027D-05
  0.25475644D-04  0.45603078D-07 -0.35607322D-05  0.25524819D-04  0.58978098D-04
  0.14160940D-04 -0.10195175D-03 -0.59114907D-04 -0.16460394D-04
MO    3     MO 0.0        OCC NO =    2.0000211  ORB. ENERGY =    0.000000
 -0.15034072D-01 -0.28026538D-01 -0.47368668D-01 -0.71203943D-01 -0.87461290D-01
 -0.73814243D-01 -0.27756083D-01 -0.38923477D-05 -0.29092887D-04 -0.10872676D-03
 -0.30333074D-03 -0.40637956D-03  0.47985849D-03 -0.91398045D-03 -0.19377545D-02
 -0.84401996D-04  0.20483108D-06  0.19204216D-06  0.13674546D-06  0.49726241D-06
  0.46621512D-06  0.33197294D-06  0.11507537D-02  0.10789047D-02  0.76824443D-03
  0.10696817D-06  0.27012505D-06  0.59793585D-03 -0.65620912D-07 -0.16781961D-06
 -0.37223309D-03  0.82648252D-09  0.20419681D-08  0.45668631D-05 -0.10309266D-03
 -0.10309770D-03  0.20619036D-03  0.45745874D-09  0.11077217D-06  0.26682660D-06
 -0.21487873D-04 -0.21490507D-04  0.42978380D-04  0.12446163D-08  0.21304639D-07
  0.55883901D-07  0.11686737D-04  0.11687877D-04 -0.23374615D-04  0.24562913D-10
 -0.12560217D-07 -0.31447788D-07 -0.14968310D-07  0.37046317D-04  0.34976249D-05
  0.41601304D-07 -0.11114861D-03 -0.51988927D-05  0.33036276D-08  0.96549001D-08
 -0.52939821D-05  0.38705070D-07  0.26610839D-08  0.51441905D-04 -0.84005146D-04
  0.81122924D-07 -0.15410430D-03  0.12607491D-03 -0.89106176D-07 -0.22141259D-06
  0.12594053D-03  0.54213094D-07 -0.44390701D-05 -0.80060457D-05 -0.11804910D-04
  0.75100348D-03  0.23453190D-03  0.51379122D-05  0.17212014D-07  0.96699244D-04
  0.27426932D-04  0.24981398D-07  0.20000478D-03  0.24303222D-05  0.12281038D-07
  0.43723180D-04  0.38143091D-04 -0.72466787D-04  0.55481979D-04  0.16984808D-04
  0.45498477D-07  0.41570758D-07  0.76787514D-04 -0.94204290D-05 -0.11930404D-04
  0.21350833D-04 -0.66588884D-08  0.65031373D-08 -0.34202218D-04 -0.44396115D-05
 -0.80070222D-05 -0.11806350D-04  0.75099601D-03  0.23454633D-03  0.51379475D-05
  0.83732408D-04 -0.48342499D-04  0.27474875D-04  0.17319204D-03 -0.10002551D-03
  0.25243942D-05  0.37855902D-04 -0.21843667D-04  0.38165629D-04  0.23465229D-04
 -0.40490882D-04  0.17025654D-04 -0.11077439D-03  0.66565198D-04 -0.38348937D-04
 -0.11297102D-04 -0.10036607D-04  0.21333709D-04  0.21516253D-05 -0.29632958D-04
  0.17147156D-04 -0.44398554D-05 -0.80074621D-05 -0.11806998D-04  0.75099379D-03
  0.23454303D-03  0.51378158D-05 -0.83734294D-04 -0.48320845D-04  0.27504493D-04
 -0.17321603D-03 -0.99980047D-04  0.25881890D-05 -0.37847344D-04 -0.21833641D-04
  0.38179383D-04  0.23470019D-04 -0.40519092D-04  0.17049074D-04  0.11072722D-03
 -0.66580523D-04 -0.38371929D-04 -0.11287250D-04 -0.10035990D-04  0.21323240D-04
 -0.21451375D-05  0.29660063D-04  0.17140207D-04 -0.15500578D+00 -0.28999928D+00
 -0.50105443D+00 -0.81226810D+00 -0.12335071D+01 -0.17144588D+01 -0.20383601D+01
 -0.18158420D+01 -0.90178553D+00 -0.14517984D+00 -0.15317331D-02 -0.72473044D-03
 -0.24175794D-01 -0.84247803D-01 -0.30338998D+00 -0.66878546D+00 -0.94143407D+00
  0.44909473D-01  0.12320300D+01  0.72849161D+00 -0.15585209D-04 -0.18877494D-03
 -0.39367023D-03 -0.11289777D-02 -0.58626240D-04  0.48686993D-02  0.12579784D-01
 -0.10249416D-01  0.46713213D-01 -0.38559408D-03 -0.12736071D-03  0.10515645D-02
  0.13851565D-02  0.15280445D-02  0.12691606D-02  0.67395948D-03  0.17388507D-03
  0.25901007D-02  0.34117685D-02  0.37637147D-02  0.31260598D-02  0.16600245D-02
  0.42829499D-03  0.58963058D+01  0.77668141D+01  0.85680117D+01  0.71164046D+01
  0.37790083D+01  0.97500389D+00 -0.37289489D-07  0.36049079D-06  0.50832964D-06
  0.72704585D-06 -0.36816579D-08 -0.66676962D-06 -0.91830787D-07  0.88776097D-06
  0.12518356D-05  0.17904561D-05 -0.90666177D-08 -0.16420171D-05 -0.20918001D-03
  0.20222178D-02  0.28515381D-02  0.40784539D-02 -0.20652716D-04 -0.37403269D-02
  0.73732320D-05  0.18156933D-04  0.41340643D-01 -0.86425469D-07 -0.21178448D-06
 -0.48400731D-03 -0.17362520D-08 -0.43606445D-08 -0.97278181D-05 -0.12961793D-04
 -0.12961071D-04  0.25922865D-04 -0.26148158D-09  0.14231045D-07  0.36439233D-07
 -0.11025582D-03 -0.11025604D-03  0.22051185D-03  0.13403756D-09  0.11809316D-06
  0.28819004D-06 -0.14528658D-04 -0.14528594D-04  0.29057251D-04  0.27901934D-10
  0.15700426D-07  0.38012196D-07  0.96690043D-09 -0.68869086D-05  0.58043867D-05
 -0.95427026D-08  0.20645639D-04 -0.87157483D-05  0.66420013D-08  0.15087192D-07
 -0.86974117D-05 -0.69071188D-08  0.82927840D-08  0.19294338D-05 -0.33469488D-04
  0.11205366D-07 -0.57009119D-05  0.50206768D-04 -0.36083718D-07 -0.87389669D-07
  0.50201696D-04  0.17839266D-08 -0.89420412D-03 -0.16667980D-02 -0.28255940D-02
 -0.42783314D-02 -0.53488566D-02 -0.46009758D-02 -0.17645732D-02 -0.68601317D-06
 -0.90815298D-05 -0.32985769D-04 -0.97851661D-04 -0.11275428D-03  0.13695686D-03
 -0.96340456D-04 -0.15092492D-03  0.16035091D-04  0.65093546D-06  0.63660067D-06
  0.42062898D-06  0.17378499D-05  0.16995792D-05  0.11229838D-05  0.38249329D-02
  0.37407009D-02  0.24716392D-02  0.14643190D-06  0.39549866D-06  0.86567172D-03
  0.46429063D-08  0.97488299D-08  0.23991159D-04  0.15801851D-08  0.44961485D-08
  0.97423447D-05 -0.33524916D-04 -0.33523343D-04  0.67048259D-04  0.11293692D-08
  0.34004002D-07  0.90479345D-07  0.19605886D-04  0.19605298D-04 -0.39211183D-04
 -0.50324518D-09 -0.20229891D-07 -0.52541695D-07  0.17820736D-04  0.17820640D-04
 -0.35641375D-04  0.98871225D-10 -0.17536061D-07 -0.49878778D-07 -0.96565989D-08
 -0.34368085D-05  0.47928068D-04 -0.14848988D-07  0.10171605D-04 -0.71901153D-04
  0.43818785D-07  0.13882064D-06 -0.71883052D-04 -0.19728136D-08  0.56429136D-08
  0.10915068D-05 -0.25501599D-04  0.72811044D-08 -0.32019906D-05  0.38255260D-04
 -0.24209845D-07 -0.72529762D-07  0.38249537D-04  0.57257711D-09
MO    4     MO 0.0        OCC NO =    2.0000121  ORB. ENERGY =    0.000000
  0.25422475D-01  0.47392614D-01  0.80099974D-01  0.12040520D+00  0.14789622D+00
  0.12481920D+00  0.46935277D-01 -0.17612061D-05 -0.13163924D-04 -0.49196591D-04
 -0.13725083D-03 -0.18387827D-03  0.21712595D-03  0.25565688D-02 -0.36763649D-02
 -0.48623415D-04  0.65920291D-06  0.61804463D-06  0.44008460D-06  0.16301366D-05
  0.15283567D-05  0.10882810D-05  0.37225004D-02  0.34900808D-02  0.24851454D-02
  0.23620843D-06  0.58437427D-06  0.13042190D-02 -0.72485545D-07 -0.18436773D-06
 -0.41365783D-03  0.66915794D-09  0.14280623D-08  0.34524385D-05 -0.32255242D-03
 -0.32255908D-03  0.64511150D-03  0.38292866D-09  0.34437117D-06  0.84617527D-06
  0.16958981D-04  0.16951751D-04 -0.33910732D-04  0.42036563D-08 -0.20149942D-07
 -0.51997561D-07 -0.17558378D-04 -0.17558410D-04  0.35116787D-04  0.31666497D-09
  0.18070309D-07  0.46347240D-07  0.11774654D-07 -0.39024671D-04  0.12839181D-04
 -0.47797822D-07  0.11703902D-03 -0.19312793D-04  0.12473861D-07  0.34993349D-07
 -0.19204750D-04 -0.42059766D-07  0.12725141D-07  0.81695918D-04 -0.16468888D-03
  0.13730138D-06 -0.24465528D-03  0.24713852D-03 -0.17547680D-06 -0.43247044D-06
  0.24692811D-03  0.85560220D-07 -0.89961317D-04 -0.16224894D-03 -0.23923597D-03
  0.10374992D-02  0.69196082D-03  0.45419871D-05 -0.83215204D-09 -0.52939081D-04
  0.30993551D-04  0.31973207D-07  0.31177940D-03 -0.39166107D-04  0.27878799D-07
  0.11194212D-03  0.76485240D-04 -0.14244137D-03  0.29217584D-04  0.11322379D-03
  0.68236024D-07  0.10794994D-06  0.13895254D-03 -0.13408482D-04 -0.20821084D-04
  0.34229566D-04 -0.13049825D-07  0.86870982D-08 -0.64327158D-04 -0.89960780D-04
 -0.16224797D-03 -0.23923454D-03  0.10374872D-02  0.69195836D-03  0.45428930D-05
 -0.45849077D-04  0.26496384D-04  0.30970450D-04  0.26998954D-03 -0.15595055D-03
 -0.39008737D-04  0.96921907D-04 -0.55933723D-04  0.76541886D-04 -0.13747953D-04
 -0.99557297D-04  0.11330525D-03 -0.14858726D-03  0.12037454D-03 -0.69245451D-04
 -0.18956143D-04 -0.15240689D-04  0.34196832D-04  0.63791553D-05 -0.55728405D-04
  0.32235097D-04 -0.89960878D-04 -0.16224815D-03 -0.23923480D-03  0.10374763D-02
  0.69195278D-03  0.45424975D-05  0.45868828D-04  0.26485406D-04  0.30952715D-04
 -0.27003947D-03 -0.15587887D-03 -0.38909896D-04 -0.96908259D-04 -0.55908708D-04
  0.76576393D-04 -0.13753029D-04 -0.99593985D-04  0.11334701D-03  0.14851648D-03
 -0.12030253D-03 -0.69267320D-04 -0.18938419D-04 -0.15239086D-04  0.34177504D-04
 -0.63660541D-05  0.55774603D-04  0.32223365D-04  0.90652980D-01  0.16960205D+00
  0.29303473D+00  0.47504372D+00  0.72139948D+00  0.10026774D+01  0.11921066D+01
  0.10619700D+01  0.52739675D+00  0.84906415D-01  0.89581283D-03  0.42444415D-03
  0.14158746D-01  0.49340396D-01  0.17768275D+00  0.39167952D+00  0.55135835D+00
 -0.26301590D-01 -0.72154815D+00 -0.42664690D+00  0.61717175D-05  0.74754571D-04
  0.15589278D-03  0.44707334D-03  0.23215896D-04 -0.19279971D-02 -0.49815741D-02
  0.40587521D-02 -0.28365086D-01  0.14347637D-02 -0.17568344D-03  0.17809921D-02
  0.23459832D-02  0.25879867D-02  0.21495256D-02  0.11414577D-02  0.29450206D-03
  0.43548741D-02  0.57363880D-02  0.63281339D-02  0.52560107D-02  0.27910875D-02
  0.72011517D-03  0.99435202D+01  0.13097942D+02  0.14449081D+02  0.12001093D+02
  0.63729133D+01  0.16442449D+01 -0.60413739D-07  0.58404115D-06  0.82355899D-06
  0.11779072D-05 -0.59647564D-08 -0.10802520D-05 -0.14763455D-06  0.14272358D-05
  0.20125515D-05  0.28784811D-05 -0.14576223D-07 -0.26398386D-05 -0.33748017D-03
  0.32625412D-02  0.46005236D-02  0.65799658D-02 -0.33320021D-04 -0.60344492D-02
  0.13049933D-04  0.31908106D-04  0.72865268D-01 -0.55684790D-07 -0.13843495D-06
 -0.31362999D-03 -0.67950854D-09 -0.18537975D-08 -0.38313561D-05  0.46272647D-03
  0.46272722D-03 -0.92545369D-03 -0.45775615D-09 -0.49658162D-06 -0.12106004D-05
 -0.31563253D-03 -0.31563303D-03  0.63126556D-03  0.24865341D-09  0.33838636D-06
  0.82603645D-06  0.35976564D-05  0.35977728D-05 -0.71954292D-05 -0.21840835D-12
 -0.39736965D-08 -0.86861027D-08  0.17871089D-07 -0.14129391D-04 -0.46962345D-04
 -0.37496248D-08  0.42510257D-04  0.70425214D-04 -0.49863643D-07 -0.12208393D-06
  0.70461821D-04 -0.14906223D-07  0.15722910D-07  0.40321104D-05 -0.64267680D-04
  0.21815214D-07 -0.11927824D-04  0.96406500D-04 -0.68983944D-07 -0.16850693D-06
  0.96396539D-04  0.40000704D-08 -0.64848115D-02 -0.12087700D-01 -0.20491344D-01