 clch3f_ts-wavefunction
GAUSSIAN            211 MOL ORBITALS    339 PRIMITIVES        6 NUCLEI
  C    1    (CENTRE  1)   0.00033070  0.00005480 -0.94053370  CHARGE =  6.0
  H    2    (CENTRE  2)   0.00003590 -1.98906904 -1.17300214  CHARGE =  1.0
  H    3    (CENTRE  3)  -1.72213010  0.99468570 -1.17398291  CHARGE =  1.0
  H    4    (CENTRE  4)   1.72295780  0.99424539 -1.17459707  CHARGE =  1.0
  Cl   5    (CENTRE  5)   0.00104880  0.00181792  3.10806659  CHARGE = 17.0
  F    6    (CENTRE  6)  -0.00035149 -0.00174044 -4.88204699  CHARGE =  9.0
CENTRE ASSIGNMENTS    1  1  1  1  1  1  1  1  1  1  1  1  1  1  1  1  1  1  1  1
CENTRE ASSIGNMENTS    1  1  1  1  1  1  1  1  1  1  1  1  1  1  1  1  1  1  1  1
CENTRE ASSIGNMENTS    1  1  1  1  1  1  1  1  1  1  1  1  1  1  1  1  1  1  1  1
CENTRE ASSIGNMENTS    1  1  1  1  1  1  1  1  1  1  1  1  2  2  2  2  2  2  2  2
CENTRE ASSIGNMENTS    2  2  2  2  2  2  2  2  2  2  2  2  2  2  2  2  2  2  2  3
CENTRE ASSIGNMENTS    3  3  3  3  3  3  3  3  3  3  3  3  3  3  3  3  3  3  3  3
CENTRE ASSIGNMENTS    3  3  3  3  3  3  4  4  4  4  4  4  4  4  4  4  4  4  4  4
CENTRE ASSIGNMENTS    4  4  4  4  4  4  4  4  4  4  4  4  4  5  5  5  5  5  5  5
CENTRE ASSIGNMENTS    5  5  5  5  5  5  5  5  5  5  5  5  5  5  5  5  5  5  5  5
CENTRE ASSIGNMENTS    5  5  5  5  5  5  5  5  5  5  5  5  5  5  5  5  5  5  5  5
CENTRE ASSIGNMENTS    5  5  5  5  5  5  5  5  5  5  5  5  5  5  5  5  5  5  5  5
CENTRE ASSIGNMENTS    5  5  5  5  5  5  5  5  5  5  5  5  5  5  5  5  5  5  5  5
CENTRE ASSIGNMENTS    5  5  5  5  5  5  5  5  5  5  5  5  5  5  5  5  5  5  5  5
CENTRE ASSIGNMENTS    5  5  5  5  5  5  5  6  6  6  6  6  6  6  6  6  6  6  6  6
CENTRE ASSIGNMENTS    6  6  6  6  6  6  6  6  6  6  6  6  6  6  6  6  6  6  6  6
CENTRE ASSIGNMENTS    6  6  6  6  6  6  6  6  6  6  6  6  6  6  6  6  6  6  6  6
CENTRE ASSIGNMENTS    6  6  6  6  6  6  6  6  6  6  6  6  6  6  6  6  6  6  6
TYPE ASSIGNMENTS      1  1  1  1  1  1  1  1  1  1  1  1  1  1  1  1  2  2  2  3
TYPE ASSIGNMENTS      3  3  4  4  4  2  3  4  2  3  4  2  3  4  5  6  7  8  9 10
TYPE ASSIGNMENTS      5  6  7  8  9 10  5  6  7  8  9 10 11 12 13 17 14 15 18 19
TYPE ASSIGNMENTS     16 20 11 12 13 17 14 15 18 19 16 20  1  1  1  1  1  1  2  3
TYPE ASSIGNMENTS      4  2  3  4  2  3  4  5  6  7  8  9 10  5  6  7  8  9 10  1
TYPE ASSIGNMENTS      1  1  1  1  1  2  3  4  2  3  4  2  3  4  5  6  7  8  9 10
TYPE ASSIGNMENTS      5  6  7  8  9 10  1  1  1  1  1  1  2  3  4  2  3  4  2  3
TYPE ASSIGNMENTS      4  5  6  7  8  9 10  5  6  7  8  9 10  1  1  1  1  1  1  1
TYPE ASSIGNMENTS      1  1  1  1  1  1  1  1  1  1  1  1  1  1  1  1  1  1  1  1
TYPE ASSIGNMENTS      1  1  1  1  2  2  2  2  2  2  3  3  3  3  3  3  4  4  4  4
TYPE ASSIGNMENTS      4  4  2  2  2  2  2  2  3  3  3  3  3  3  4  4  4  4  4  4
TYPE ASSIGNMENTS      2  3  4  2  3  4  2  3  4  5  6  7  8  9 10  5  6  7  8  9
TYPE ASSIGNMENTS     10  5  6  7  8  9 10 11 12 13 17 14 15 18 19 16 20 11 12 13
TYPE ASSIGNMENTS     17 14 15 18 19 16 20  1  1  1  1  1  1  1  1  1  1  1  1  1
TYPE ASSIGNMENTS      1  1  1  2  2  2  3  3  3  4  4  4  2  3  4  2  3  4  2  3
TYPE ASSIGNMENTS      4  5  6  7  8  9 10  5  6  7  8  9 10  5  6  7  8  9 10 11
TYPE ASSIGNMENTS     12 13 17 14 15 18 19 16 20 11 12 13 17 14 15 18 19 16 20
EXPONENTS  0.8236000D+04 0.1235000D+04 0.2808000D+03 0.7927000D+02 0.2559000D+02
EXPONENTS  0.8997000D+01 0.3319000D+01 0.2808000D+03 0.7927000D+02 0.2559000D+02
EXPONENTS  0.8997000D+01 0.3319000D+01 0.3643000D+00 0.9059000D+00 0.1285000D+00
EXPONENTS  0.4402000D-01 0.1871000D+02 0.4133000D+01 0.1200000D+01 0.1871000D+02
EXPONENTS  0.4133000D+01 0.1200000D+01 0.1871000D+02 0.4133000D+01 0.1200000D+01
EXPONENTS  0.3827000D+00 0.3827000D+00 0.3827000D+00 0.1209000D+00 0.1209000D+00
EXPONENTS  0.1209000D+00 0.3569000D-01 0.3569000D-01 0.3569000D-01 0.1097000D+01
EXPONENTS  0.1097000D+01 0.1097000D+01 0.1097000D+01 0.1097000D+01 0.1097000D+01
EXPONENTS  0.3180000D+00 0.3180000D+00 0.3180000D+00 0.3180000D+00 0.3180000D+00
EXPONENTS  0.3180000D+00 0.1000000D+00 0.1000000D+00 0.1000000D+00 0.1000000D+00
EXPONENTS  0.1000000D+00 0.1000000D+00 0.7610000D+00 0.7610000D+00 0.7610000D+00
EXPONENTS  0.7610000D+00 0.7610000D+00 0.7610000D+00 0.7610000D+00 0.7610000D+00
EXPONENTS  0.7610000D+00 0.7610000D+00 0.2680000D+00 0.2680000D+00 0.2680000D+00
EXPONENTS  0.2680000D+00 0.2680000D+00 0.2680000D+00 0.2680000D+00 0.2680000D+00
EXPONENTS  0.2680000D+00 0.2680000D+00 0.3387000D+02 0.5095000D+01 0.1159000D+01
EXPONENTS  0.3258000D+00 0.1027000D+00 0.2526000D-01 0.1407000D+01 0.1407000D+01
EXPONENTS  0.1407000D+01 0.3880000D+00 0.3880000D+00 0.3880000D+00 0.1020000D+00
EXPONENTS  0.1020000D+00 0.1020000D+00 0.1057000D+01 0.1057000D+01 0.1057000D+01
EXPONENTS  0.1057000D+01 0.1057000D+01 0.1057000D+01 0.2470000D+00 0.2470000D+00
EXPONENTS  0.2470000D+00 0.2470000D+00 0.2470000D+00 0.2470000D+00 0.3387000D+02
EXPONENTS  0.5095000D+01 0.1159000D+01 0.3258000D+00 0.1027000D+00 0.2526000D-01
EXPONENTS  0.1407000D+01 0.1407000D+01 0.1407000D+01 0.3880000D+00 0.3880000D+00
EXPONENTS  0.3880000D+00 0.1020000D+00 0.1020000D+00 0.1020000D+00 0.1057000D+01
EXPONENTS  0.1057000D+01 0.1057000D+01 0.1057000D+01 0.1057000D+01 0.1057000D+01
EXPONENTS  0.2470000D+00 0.2470000D+00 0.2470000D+00 0.2470000D+00 0.2470000D+00
EXPONENTS  0.2470000D+00 0.3387000D+02 0.5095000D+01 0.1159000D+01 0.3258000D+00
EXPONENTS  0.1027000D+00 0.2526000D-01 0.1407000D+01 0.1407000D+01 0.1407000D+01
EXPONENTS  0.3880000D+00 0.3880000D+00 0.3880000D+00 0.1020000D+00 0.1020000D+00
EXPONENTS  0.1020000D+00 0.1057000D+01 0.1057000D+01 0.1057000D+01 0.1057000D+01
EXPONENTS  0.1057000D+01 0.1057000D+01 0.2470000D+00 0.2470000D+00 0.2470000D+00
EXPONENTS  0.2470000D+00 0.2470000D+00 0.2470000D+00 0.4561000D+06 0.6833000D+05
EXPONENTS  0.1555000D+05 0.4405000D+04 0.1439000D+04 0.5204000D+03 0.2031000D+03
EXPONENTS  0.8396000D+02 0.3620000D+02 0.1583000D+02 0.6334000D+01 0.4405000D+04
EXPONENTS  0.1439000D+04 0.5204000D+03 0.2031000D+03 0.8396000D+02 0.3620000D+02
EXPONENTS  0.1583000D+02 0.6334000D+01 0.2694000D+01 0.1439000D+04 0.2031000D+03
EXPONENTS  0.8396000D+02 0.3620000D+02 0.1583000D+02 0.6334000D+01 0.2694000D+01
EXPONENTS  0.4313000D+00 0.9768000D+00 0.1625000D+00 0.5910000D-01 0.6633000D+03
EXPONENTS  0.1568000D+03 0.4998000D+02 0.1842000D+02 0.7240000D+01 0.2922000D+01
EXPONENTS  0.6633000D+03 0.1568000D+03 0.4998000D+02 0.1842000D+02 0.7240000D+01
EXPONENTS  0.2922000D+01 0.6633000D+03 0.1568000D+03 0.4998000D+02 0.1842000D+02
EXPONENTS  0.7240000D+01 0.2922000D+01 0.1568000D+03 0.4998000D+02 0.1842000D+02
EXPONENTS  0.7240000D+01 0.2922000D+01 0.3818000D+00 0.1568000D+03 0.4998000D+02
EXPONENTS  0.1842000D+02 0.7240000D+01 0.2922000D+01 0.3818000D+00 0.1568000D+03
EXPONENTS  0.4998000D+02 0.1842000D+02 0.7240000D+01 0.2922000D+01 0.3818000D+00
EXPONENTS  0.1022000D+01 0.1022000D+01 0.1022000D+01 0.1301000D+00 0.1301000D+00
EXPONENTS  0.1301000D+00 0.4190000D-01 0.4190000D-01 0.4190000D-01 0.1046000D+01
EXPONENTS  0.1046000D+01 0.1046000D+01 0.1046000D+01 0.1046000D+01 0.1046000D+01
EXPONENTS  0.3440000D+00 0.3440000D+00 0.3440000D+00 0.3440000D+00 0.3440000D+00
EXPONENTS  0.3440000D+00 0.1350000D+00 0.1350000D+00 0.1350000D+00 0.1350000D+00
EXPONENTS  0.1350000D+00 0.1350000D+00 0.7060000D+00 0.7060000D+00 0.7060000D+00
EXPONENTS  0.7060000D+00 0.7060000D+00 0.7060000D+00 0.7060000D+00 0.7060000D+00
EXPONENTS  0.7060000D+00 0.7060000D+00 0.3120000D+00 0.3120000D+00 0.3120000D+00
EXPONENTS  0.3120000D+00 0.3120000D+00 0.3120000D+00 0.3120000D+00 0.3120000D+00
EXPONENTS  0.3120000D+00 0.3120000D+00 0.1950000D+05 0.2923000D+04 0.6645000D+03
EXPONENTS  0.1875000D+03 0.6062000D+02 0.2142000D+02 0.7950000D+01 0.6645000D+03
EXPONENTS  0.1875000D+03 0.6062000D+02 0.2142000D+02 0.7950000D+01 0.8815000D+00
EXPONENTS  0.2257000D+01 0.3041000D+00 0.9158000D-01 0.4388000D+02 0.9926000D+01
EXPONENTS  0.2930000D+01 0.4388000D+02 0.9926000D+01 0.2930000D+01 0.4388000D+02
EXPONENTS  0.9926000D+01 0.2930000D+01 0.9132000D+00 0.9132000D+00 0.9132000D+00
EXPONENTS  0.2672000D+00 0.2672000D+00 0.2672000D+00 0.7361000D-01 0.7361000D-01
EXPONENTS  0.7361000D-01 0.3107000D+01 0.3107000D+01 0.3107000D+01 0.3107000D+01
EXPONENTS  0.3107000D+01 0.3107000D+01 0.8550000D+00 0.8550000D+00 0.8550000D+00
EXPONENTS  0.8550000D+00 0.8550000D+00 0.8550000D+00 0.2920000D+00 0.2920000D+00
EXPONENTS  0.2920000D+00 0.2920000D+00 0.2920000D+00 0.2920000D+00 0.1917000D+01
EXPONENTS  0.1917000D+01 0.1917000D+01 0.1917000D+01 0.1917000D+01 0.1917000D+01
EXPONENTS  0.1917000D+01 0.1917000D+01 0.1917000D+01 0.1917000D+01 0.7240000D+00
EXPONENTS  0.7240000D+00 0.7240000D+00 0.7240000D+00 0.7240000D+00 0.7240000D+00
EXPONENTS  0.7240000D+00 0.7240000D+00 0.7240000D+00 0.7240000D+00
MO    1     MO 0.0        OCC NO =    2.0000300  ORB. ENERGY =    0.000000
  0.15492496D-07  0.28881134D-07  0.48813051D-07  0.73375120D-07  0.90128193D-07
  0.76065015D-07  0.28602432D-07  0.80443106D-11  0.60126238D-10  0.22470548D-09
  0.62689330D-09  0.83986419D-09 -0.99172300D-09  0.78582253D-09  0.29800530D-08
  0.67364529D-08  0.84362755D-04  0.79095445D-04  0.56320669D-04 -0.73539983D-04
 -0.68948408D-04 -0.49095374D-04  0.10358793D-07  0.97120270D-08  0.69155418D-08
  0.27407090D-03 -0.23891092D-03  0.61891393D-07  0.35059482D-03 -0.30561856D-03
  0.60611823D-07  0.71041208D-05 -0.61925393D-05  0.13420623D-08 -0.42636650D-04
  0.42717480D-04 -0.80829844D-07  0.97641517D-04 -0.38282318D-03  0.33364121D-03
 -0.12749449D-03  0.12748108D-03  0.13403138D-07  0.29278902D-03  0.72037022D-04
 -0.63033324D-04 -0.26956981D-04  0.26965726D-04 -0.87449509D-08  0.61858468D-04
 -0.50187327D-04  0.43698609D-04  0.70151718D-04 -0.61147825D-04 -0.54253968D-07
  0.70173921D-04 -0.61153111D-04 -0.15970717D-04 -0.28062908D-03  0.24459659D-03
  0.16133479D-04  0.36206731D-04 -0.20451687D-04  0.17836081D-04  0.14800484D-07
 -0.20405509D-04  0.17821779D-04 -0.32977177D-04  0.81760571D-04 -0.71330022D-04
  0.32932775D-04  0.75856247D-04  0.26409306D-04  0.47630271D-04  0.70230807D-04
 -0.24168986D-03 -0.74009429D-03  0.78856979D-05  0.34457917D-05 -0.47476323D-04
 -0.15616350D-04  0.62792312D-04 -0.19009198D-03 -0.17686905D-03  0.56709614D-04
 -0.11356162D-03 -0.14505619D-04  0.72817350D-04 -0.28318319D-04 -0.44499031D-04
  0.22581909D-04 -0.34746625D-04 -0.19448797D-03  0.28633565D-04  0.78799407D-05
 -0.36513506D-04  0.21871269D-04  0.46183873D-04 -0.20502254D-04 -0.39447084D-04
 -0.71144441D-04 -0.10490244D-03  0.36100926D-03  0.11054964D-02 -0.11779017D-04
  0.60966026D-04 -0.36212465D-04  0.23366288D-04  0.23781457D-03 -0.15568813D-03
  0.26431552D-03  0.13965201D-03 -0.97328566D-04  0.21740866D-04  0.19621272D-05
 -0.68581094D-04  0.66618966D-04 -0.13353724D-03  0.25604846D-03 -0.13748287D-03
 -0.21940083D-04 -0.32608023D-04  0.54548106D-04 -0.29600528D-04  0.20606437D-04
 -0.25391737D-04  0.13039156D-04  0.23516655D-04  0.34675294D-04 -0.11933478D-03
 -0.36539839D-03  0.38924703D-05  0.22465235D-04  0.79606200D-05 -0.77291584D-05
  0.12065919D-03 -0.21443417D-04 -0.87368522D-04  0.84132747D-04 -0.33625920D-04
 -0.71798399D-05 -0.13770406D-04  0.35834356D-04 -0.22063950D-04 -0.28941186D-04
  0.61414193D-04  0.85630448D-04 -0.54142150D-05  0.23429597D-04 -0.18015382D-04
  0.48665313D-05  0.37730178D-04 -0.45215602D-04 -0.14687135D-06 -0.27478063D-06
 -0.47475998D-06 -0.76964171D-06 -0.11687748D-05 -0.16244870D-05 -0.19313906D-05
 -0.17205498D-05 -0.85446142D-06 -0.13756106D-06 -0.14513504D-08 -0.68817450D-09
 -0.22956349D-07 -0.79998281D-07 -0.28808676D-06 -0.63505142D-06 -0.89394743D-06
  0.42644206D-07  0.11698855D-05  0.69174595D-06 -0.14745569D-10 -0.17860485D-09
 -0.37246158D-09 -0.10681550D-08 -0.55467799D-10  0.46064022D-08  0.11902059D-07
 -0.96972371D-08  0.41331529D-07 -0.79167251D-09 -0.12479878D-08  0.87520877D+01
  0.11528547D+02  0.12717792D+02  0.10563122D+02  0.56093108D+01  0.14472315D+01
 -0.76294399D+01 -0.10049757D+02 -0.11086455D+02 -0.92081691D+01 -0.48897933D+01
 -0.12615922D+01  0.17621191D-02  0.23211231D-02  0.25605621D-02  0.21267473D-02
  0.11293618D-02  0.29138126D-03 -0.34623974D-03  0.33472230D-02  0.47199339D-02
  0.67507540D-02 -0.34184868D-04 -0.61910782D-02  0.30182673D-03 -0.29178666D-02
 -0.41144965D-02 -0.58848185D-02  0.29799892D-04  0.53969336D-02 -0.69951662D-07
  0.67624766D-06  0.95357980D-06  0.13638714D-05 -0.69064526D-08 -0.12507987D-05
  0.57792644D-01 -0.50379463D-01  0.11639408D-04 -0.48460815D-03  0.42244732D-03
 -0.98856975D-07 -0.43825513D-04  0.38203940D-04 -0.86611699D-08 -0.82237508D-05
  0.83720198D-05 -0.14826902D-06  0.18376002D-04 -0.73622295D-03  0.64176731D-03
  0.28755199D-05 -0.29310876D-05  0.55567752D-07 -0.64191575D-05  0.26871263D-03
 -0.23423629D-03 -0.84134851D-06  0.85032454D-06 -0.89760345D-08  0.18993455D-05
 -0.46070561D-04  0.40159033D-04  0.19049201D-05 -0.16539352D-05 -0.17918546D-08
  0.19358838D-05 -0.16644778D-05 -0.23035987D-04 -0.76506440D-05  0.66262835D-05
  0.23041363D-04  0.52879588D-04  0.11060264D-04 -0.96427006D-05 -0.91489608D-08
  0.11053942D-04 -0.96405492D-05  0.47146193D-05 -0.44234734D-04  0.38568651D-04
 -0.46871724D-05 -0.10894778D-04  0.17386997D-07  0.32409392D-07  0.54941140D-07
  0.83188316D-07  0.10400372D-06  0.89461848D-07  0.34310544D-07 -0.36549049D-10
 -0.48384098D-09 -0.17573985D-08 -0.52132894D-08 -0.60072631D-08  0.72967158D-08
  0.62952515D-09 -0.12500250D-07 -0.12646480D-07 -0.22221775D-03 -0.21732410D-03
 -0.14359522D-03  0.19371459D-03  0.18944864D-03  0.12517673D-03 -0.59368760D-07
 -0.58061350D-07 -0.38363589D-07 -0.62197904D-05  0.54288316D-05  0.34553222D-08
 -0.51812126D-04  0.45160780D-04 -0.25043323D-07 -0.14912271D-04  0.12999280D-04
 -0.47415602D-08 -0.46862093D-04  0.46878025D-04 -0.15932414D-07  0.10752106D-03
 -0.98645928D-04  0.85902280D-04  0.23511358D-04 -0.23525988D-04  0.14629295D-07
 -0.53925988D-04  0.76636794D-04 -0.66760121D-04 -0.11989762D-04  0.12004643D-04
 -0.14881038D-07  0.27490629D-04 -0.56797566D-04  0.49484680D-04 -0.54407096D-04
  0.47388303D-04  0.50560833D-07 -0.54585979D-04  0.47447269D-04  0.12454022D-03
  0.21780727D-03 -0.18961218D-03 -0.12469191D-03 -0.28558943D-03  0.19426498D-04
 -0.16921659D-04 -0.18757955D-07  0.19483286D-04 -0.16940326D-04 -0.39615152D-04
 -0.77762781D-04  0.67705303D-04  0.39671426D-04  0.90831827D-04
MO    2     MO 0.0        OCC NO =    2.0000300  ORB. ENERGY =    0.000000
 -0.13405290D-07 -0.24990161D-07 -0.42236777D-07 -0.63489753D-07 -0.77985790D-07
 -0.65817255D-07 -0.24749007D-07 -0.11021481D-10 -0.82378742D-10 -0.30786817D-09
 -0.85890425D-09 -0.11506949D-08  0.13587561D-08 -0.14837910D-09  0.21466645D-08
 -0.49559412D-08  0.73541338D-04  0.68949679D-04  0.49096279D-04  0.84361099D-04
  0.79093892D-04  0.56319563D-04 -0.44602686D-07 -0.41817853D-07 -0.29776803D-07
  0.23891607D-03  0.27406677D-03 -0.16553473D-06  0.30562304D-03  0.35058898D-03
 -0.19974891D-06  0.61927822D-05  0.71036604D-05 -0.41261677D-08  0.48811564D-04
 -0.49039908D-04  0.22834435D-06  0.84931305D-04 -0.33374827D-03 -0.38277050D-03
  0.14639357D-03 -0.14635186D-03 -0.41714340D-07  0.25505801D-03  0.62706169D-04
  0.72204625D-04  0.30929219D-04 -0.30957756D-04  0.28537119D-07  0.53866565D-04
 -0.43768673D-04 -0.50150477D-04  0.61158646D-04  0.70144929D-04  0.16354809D-06
  0.61166243D-04  0.70164781D-04  0.18058171D-04 -0.24464218D-03 -0.28059957D-03
 -0.18548815D-04  0.31320674D-04 -0.17816378D-04 -0.20460503D-04 -0.47025976D-07
 -0.17799363D-04 -0.20416394D-04  0.37940271D-04  0.71248497D-04  0.81797905D-04
 -0.37799194D-04  0.66138470D-04 -0.30302865D-04 -0.54652465D-04 -0.80585028D-04
  0.27732165D-03  0.84921563D-03 -0.90486783D-05  0.30207523D-05  0.54474481D-04
  0.17917570D-04  0.54835721D-04  0.21810196D-03  0.20292416D-03  0.49457328D-04
  0.13029128D-03  0.16624343D-04 -0.83559052D-04  0.32487121D-04  0.51071931D-04
  0.19802121D-04 -0.30148195D-04  0.22316579D-03 -0.32833117D-04 -0.90470424D-05
  0.41880159D-04  0.19078946D-04  0.40300994D-04  0.23504891D-04 -0.77200491D-05
 -0.13923426D-04 -0.20530084D-04  0.70654023D-04  0.21633555D-03 -0.23043741D-05
  0.14266701D-04 -0.30454334D-05  0.45706769D-05  0.89027444D-04  0.43096217D-04
  0.51684588D-04  0.65673585D-04  0.47350938D-04  0.42181250D-05  0.13644974D-04
 -0.26704186D-04  0.13059212D-04 -0.10846629D-04  0.26652688D-04 -0.67480148D-04
  0.85075062D-05 -0.19153752D-04  0.10646246D-04  0.89977016D-05  0.35264420D-04
  0.49135498D-04  0.38021715D-04  0.68573730D-04  0.10111192D-03 -0.34796763D-03
 -0.10655576D-02  0.11353667D-04  0.58445093D-04  0.35441566D-04 -0.22542511D-04
  0.22336534D-03  0.16006001D-03 -0.25485322D-03  0.12938444D-03  0.10285425D-03
 -0.21006980D-04 -0.22882383D-07  0.64320712D-04 -0.64297829D-04 -0.13072241D-03
  0.24999148D-03  0.12695396D-03  0.22894836D-04  0.29692045D-04 -0.52586881D-04
 -0.30537743D-04  0.15548342D-04  0.31876039D-04  0.12314165D-06  0.23038488D-06
  0.39805397D-06  0.64529226D-06  0.97993822D-06  0.13620219D-05  0.16193397D-05
  0.14425641D-05  0.71640783D-06  0.11533560D-06  0.12168587D-08  0.57726000D-09
  0.19256427D-07  0.67104794D-07  0.24165523D-06  0.53269888D-06  0.74986809D-06
 -0.35771152D-07 -0.98133262D-06 -0.58025584D-06  0.12087614D-10  0.14641053D-09
  0.30532372D-09  0.87561528D-09  0.45469482D-10 -0.37760777D-08 -0.97566597D-08
  0.79492671D-08 -0.34828732D-07  0.13456079D-08  0.93553940D-09  0.76294398D+01
  0.10049757D+02  0.11086455D+02  0.92081690D+01  0.48897933D+01  0.12615922D+01
  0.87520864D+01  0.11528545D+02  0.12717790D+02  0.10563120D+02  0.56093100D+01
  0.14472313D+01 -0.51569042D-02 -0.67928492D-02 -0.74935760D-02 -0.62240016D-02
 -0.33051175D-02 -0.85273760D-03 -0.30182684D-03  0.29178676D-02  0.41144980D-02
  0.58848205D-02 -0.29799903D-04 -0.53969355D-02 -0.34623948D-03  0.33472205D-02
  0.47199303D-02  0.67507489D-02 -0.34184842D-04 -0.61910735D-02  0.20417694D-06
 -0.19738513D-05 -0.27833364D-05 -0.39809073D-05  0.20158754D-07  0.36508675D-05
  0.50379465D-01  0.57792632D-01 -0.34054902D-04 -0.42244664D-03 -0.48460920D-03
  0.28636329D-06 -0.38203927D-04 -0.43825522D-04  0.25704307D-07  0.91773504D-05
 -0.96110690D-05  0.43371869D-06  0.15776542D-04 -0.64179087D-03 -0.73620663D-03
 -0.32051993D-05  0.33645491D-05 -0.15934986D-06 -0.55074647D-05  0.23424570D-03
  0.26870495D-03  0.94935652D-06 -0.97628841D-06  0.26931887D-07  0.16401099D-05
 -0.40161486D-04 -0.46068859D-04  0.16688178D-05  0.18972195D-05  0.46836174D-08
  0.16791812D-05  0.19284210D-05  0.26438745D-04 -0.66856346D-05 -0.76200796D-05
 -0.26452796D-04  0.46055279D-04  0.96397994D-05  0.11061562D-04  0.26243236D-07
  0.96377085D-05  0.11055141D-04 -0.54560242D-05 -0.38557107D-04 -0.44239828D-04
  0.53772945D-05 -0.95246069D-05 -0.13617579D-07 -0.25383191D-07 -0.43030163D-07
 -0.65153487D-07 -0.81456209D-07 -0.70066946D-07 -0.26872182D-07  0.26957860D-10
  0.35687158D-09  0.12962225D-08  0.38452197D-08  0.44308390D-08 -0.53819140D-08
 -0.53883758D-09  0.92513562D-08  0.95550443D-08 -0.19371318D-03 -0.18944725D-03
 -0.12517581D-03 -0.22221876D-03 -0.21732509D-03 -0.14359588D-03  0.14333784D-06
  0.14018127D-06  0.92623694D-07 -0.54234818D-05 -0.62294030D-05  0.53468169D-09
 -0.45164786D-04 -0.51804560D-04  0.41361086D-07 -0.12999393D-04 -0.14912024D-04
  0.10116771D-07  0.53763558D-04 -0.53818748D-04  0.55190097D-07  0.93627066D-04
 -0.86025100D-04 -0.98579996D-04 -0.26964599D-04  0.27009146D-04 -0.44547257D-07
 -0.46949418D-04  0.66822557D-04  0.76602136D-04  0.13745390D-04 -0.13781363D-04
  0.35973152D-07  0.23928846D-04 -0.49519362D-04 -0.56774600D-04 -0.47469890D-04
 -0.54359596D-04 -0.13321572D-06 -0.47541715D-04 -0.54529045D-04 -0.14276988D-03
  0.18995139D-03  0.21760783D-03  0.14316952D-03 -0.24860179D-03  0.16947836D-04
  0.19410987D-04  0.48084511D-07  0.16970526D-04  0.19464824D-04  0.45406242D-04
 -0.67814034D-04 -0.77697786D-04 -0.45550496D-04  0.79061540D-04
MO    3     MO 0.0        OCC NO =    2.0000210  ORB. ENERGY =    0.000000
 -0.14328898D-01 -0.26711953D-01 -0.45146839D-01 -0.67864120D-01 -0.83358917D-01
 -0.70351985D-01 -0.26454183D-01 -0.38130513D-05 -0.28500196D-04 -0.10651174D-03
 -0.29715117D-03 -0.39810065D-03  0.47008263D-03 -0.86001591D-03 -0.19526895D-02
 -0.82160952D-04  0.21108446D-06  0.19790510D-06  0.14092022D-06  0.51308708D-06
  0.48105175D-06  0.34253751D-06  0.11826279D-02  0.11087889D-02  0.78952372D-03
  0.10589105D-06  0.26760797D-06  0.61284388D-03 -0.67532917D-07 -0.17234983D-06
 -0.38285017D-03  0.82785412D-09  0.20441557D-08  0.46896624D-05 -0.10682114D-03
 -0.10682229D-03  0.21364343D-03 -0.11574745D-08  0.11446171D-06  0.27614394D-06
 -0.24878794D-04 -0.24876686D-04  0.49755480D-04 -0.70616414D-09  0.26369060D-07
  0.68481144D-07  0.11301876D-04  0.11302744D-04 -0.22604620D-04  0.12181657D-09
 -0.11979044D-07 -0.29960848D-07 -0.15913378D-07  0.36221844D-04  0.79091770D-05
  0.39401960D-07 -0.10868730D-03 -0.11816176D-04  0.83381737D-08  0.21770540D-07
 -0.11911355D-04  0.38705673D-07  0.30512468D-08  0.52339050D-04 -0.86761395D-04
  0.82880189D-07 -0.15678858D-03  0.13021089D-03 -0.92033929D-07 -0.22857370D-06
  0.13007329D-03  0.55522474D-07 -0.53515248D-05 -0.96516953D-05 -0.14231419D-04
  0.75887125D-03  0.23895493D-03  0.50364202D-05  0.17436779D-07  0.95659092D-04
  0.28879277D-04  0.24919036D-07  0.20116372D-03 -0.48120695D-05  0.12746575D-07
  0.44546879D-04  0.39036187D-04 -0.74331260D-04  0.54278488D-04  0.20052772D-04
  0.46589473D-07  0.43616323D-07  0.77009582D-04 -0.96466496D-05 -0.12122237D-04
  0.21768886D-04 -0.68206557D-08  0.66251206D-08 -0.35057069D-04 -0.53513304D-05
 -0.96513447D-05 -0.14230902D-04  0.75887335D-03  0.23897366D-03  0.50366881D-05
  0.82833093D-04 -0.47822035D-04  0.28927729D-04  0.17420127D-03 -0.10060903D-03
 -0.47192618D-05  0.38570196D-04 -0.22255082D-04  0.39058792D-04  0.22097710D-04
 -0.42191217D-04  0.20093506D-04 -0.11134642D-03  0.66756363D-04 -0.38453161D-04
 -0.11497157D-04 -0.10254097D-04  0.21751254D-04  0.21204950D-05 -0.30373770D-04
  0.17575701D-04 -0.53511450D-05 -0.96510104D-05 -0.14230409D-04  0.75887719D-03
  0.23897322D-03  0.50366879D-05 -0.82835244D-04 -0.47801252D-04  0.28957601D-04
 -0.17422922D-03 -0.10056526D-03 -0.46562484D-05 -0.38561893D-04 -0.22245378D-04
  0.39072596D-04  0.22102453D-04 -0.42219216D-04  0.20116763D-04  0.11129998D-03
 -0.66768461D-04 -0.38476556D-04 -0.11486860D-04 -0.10253601D-04  0.21740461D-04
 -0.21134056D-05  0.30401658D-04  0.17568687D-04 -0.15424314D+00 -0.28857245D+00
 -0.49858919D+00 -0.80827165D+00 -0.12274381D+01 -0.17060234D+01 -0.20283311D+01
 -0.18069079D+01 -0.89734865D+00 -0.14446554D+00 -0.15241968D-02 -0.72116494D-03
 -0.24056855D-01 -0.83833323D-01 -0.30189737D+00 -0.66549518D+00 -0.93680243D+00
  0.44688529D-01  0.12259687D+01  0.72490760D+00 -0.15502220D-04 -0.18776974D-03
 -0.39157399D-03 -0.11229660D-02 -0.58314063D-04  0.48427742D-02  0.12512798D-01
 -0.10194839D-01  0.46492972D-01 -0.37566532D-03 -0.13268775D-03  0.10595556D-02
  0.13956826D-02  0.15396564D-02  0.12788052D-02  0.67908105D-03  0.17520646D-03
  0.26088842D-02  0.34365108D-02  0.37910094D-02  0.31487301D-02  0.16720631D-02
  0.43140101D-03  0.59800771D+01  0.78771605D+01  0.86897411D+01  0.72175104D+01
  0.38326983D+01  0.98885619D+00 -0.37648392D-07  0.36396043D-06  0.51322219D-06
  0.73404350D-06 -0.37170930D-08 -0.67318712D-06 -0.92682715D-07  0.89599685D-06
  0.12634491D-05  0.18070664D-05 -0.91507300D-08 -0.16572503D-05 -0.21245684D-03
  0.20538960D-02  0.28962078D-02  0.41423433D-02 -0.20976243D-04 -0.37989195D-02
  0.74291678D-05  0.18288453D-04  0.41926782D-01 -0.86465618D-07 -0.21198145D-06
 -0.48734589D-03 -0.17545474D-08 -0.44061173D-08 -0.99691948D-05 -0.44848072D-05
 -0.44849356D-05  0.89697427D-05  0.84404875D-10  0.44742242D-08  0.12376004D-07
 -0.11292749D-03 -0.11292745D-03  0.22585494D-03  0.20416314D-10  0.12043513D-06
  0.29396517D-06 -0.14355198D-04 -0.14355105D-04  0.28710303D-04  0.19731629D-10
  0.15327768D-07  0.37152148D-07  0.14087533D-08 -0.72612413D-05  0.49918817D-05
 -0.96735121D-08  0.21771519D-04 -0.74978213D-05  0.54472522D-08  0.12204632D-07
 -0.74778238D-05 -0.75735511D-08  0.82939231D-08  0.20840254D-05 -0.33988785D-04
  0.11442308D-07 -0.61640549D-05  0.50986118D-04 -0.36324077D-07 -0.88021293D-07
  0.50980239D-04  0.21084332D-08 -0.91053141D-03 -0.16972321D-02 -0.28771865D-02
 -0.43564495D-02 -0.54465214D-02 -0.46849851D-02 -0.17967926D-02 -0.68955553D-06
 -0.91284240D-05 -0.33156097D-04 -0.98356937D-04 -0.11333650D-03  0.13766407D-03
 -0.98303871D-04 -0.16405949D-03  0.10722774D-04  0.67593385D-06  0.66104854D-06
  0.43678272D-06  0.18031197D-05  0.17634117D-05  0.11651607D-05  0.39256318D-02
  0.38391822D-02  0.25367100D-02  0.15092586D-06  0.40747924D-06  0.88042094D-03
  0.38212965D-08  0.71345885D-08  0.19812863D-04  0.15231893D-08  0.43407148D-08
  0.90988284D-05 -0.36649580D-04 -0.36646908D-04  0.73296488D-04  0.69228190D-09
  0.37882415D-07  0.10115767D-06  0.22123682D-04  0.22122566D-04 -0.44246249D-04
 -0.29189210D-09 -0.23055470D-07 -0.60118434D-07  0.18028003D-04  0.18028082D-04
 -0.36056085D-04  0.24130404D-10 -0.18138593D-07 -0.51863703D-07 -0.91321316D-08
 -0.32213702D-05  0.43216379D-04 -0.13997283D-07  0.95301400D-05 -0.64833118D-04
  0.41393678D-07  0.13397068D-06 -0.64816020D-04 -0.13280421D-08  0.56452080D-08
  0.10208817D-05 -0.24498811D-04  0.71753657D-08 -0.29897025D-05  0.36750946D-04
 -0.24110990D-07 -0.72942672D-07  0.36745486D-04  0.39770099D-09
MO    4     MO 0.0        OCC NO =    2.0000124  ORB. ENERGY =    0.000000
  0.26719500D-01  0.49810532D-01  0.84186584D-01  0.12654814D+00  0.15544172D+00
  0.13118733D+00  0.49329862D-01 -0.14485966D-05 -0.10827362D-04 -0.40464323D-04
 -0.11288916D-03 -0.15124035D-03  0.17858666D-03  0.26349497D-02 -0.36077532D-02
 -0.40435900D-04  0.64752270D-06  0.60709369D-06  0.43228687D-06  0.16026711D-05
  0.15026060D-05  0.10699450D-05  0.36646586D-02  0.34358504D-02  0.24465302D-02
  0.22805184D-06  0.56423181D-06  0.13051026D-02 -0.74123730D-07 -0.18790365D-06
 -0.41544516D-03  0.70687298D-09  0.15312962D-08  0.38534818D-05 -0.31991267D-03
 -0.31991530D-03  0.63982796D-03 -0.12715892D-08  0.34021106D-06  0.83693689D-06
  0.90587182D-05  0.90641852D-05 -0.18122903D-04 -0.96172034D-09 -0.83461141D-08
 -0.23458893D-07 -0.18377474D-04 -0.18376691D-04  0.36754165D-04 -0.34884730D-10
  0.19208113D-07  0.49261609D-07  0.10064746D-07 -0.41943897D-04  0.22821167D-04
 -0.53954608D-07  0.12576928D-03 -0.34287689D-04  0.23760371D-07  0.62416349D-07
 -0.34175812D-04 -0.43589658D-07  0.12360344D-07  0.81642789D-04 -0.16350868D-03
  0.13685703D-06 -0.24449987D-03  0.24536976D-03 -0.17393806D-06 -0.42849547D-06
  0.24515627D-03  0.86927242D-07 -0.90591327D-04 -0.16338519D-03 -0.24091136D-03
  0.10180734D-02  0.68632763D-03  0.41518513D-05 -0.12478780D-08 -0.57968677D-04
  0.33739449D-04  0.31085204D-07  0.30413951D-03 -0.43561189D-04  0.27517033D-07
  0.11137910D-03  0.75544487D-04 -0.14208537D-03  0.24274880D-04  0.11781049D-03
  0.67816627D-07  0.11025846D-06  0.14246097D-03 -0.14522276D-04 -0.20852159D-04
  0.35374436D-04 -0.12797153D-07  0.98398426D-08 -0.62789573D-04 -0.90590859D-04
 -0.16338434D-03 -0.24091012D-03  0.10180863D-02  0.68634167D-03  0.41530633D-05
 -0.50201564D-04  0.29010746D-04  0.33716191D-04  0.26338388D-03 -0.15213537D-03
 -0.43412555D-04  0.96436369D-04 -0.55654191D-04  0.75601012D-04 -0.17362522D-04
 -0.10052847D-03  0.11789099D-03 -0.14400124D-03  0.12340738D-03 -0.70991093D-04
 -0.19258091D-04 -0.16084009D-04  0.35342100D-04  0.54408252D-05 -0.54397152D-04
  0.31469069D-04 -0.90591091D-04 -0.16338476D-03 -0.24091074D-03  0.10180906D-02
  0.68634694D-03  0.41528686D-05  0.50220491D-04  0.28997557D-04  0.33698297D-04
 -0.26343898D-03 -0.15206901D-03 -0.43319712D-04 -0.96424338D-04 -0.55629940D-04
  0.75635437D-04 -0.17368043D-04 -0.10056419D-03  0.11793224D-03  0.14393527D-03
 -0.12332964D-03 -0.71010774D-04 -0.19240146D-04 -0.16082858D-04  0.35323005D-04
 -0.54277066D-05  0.54444641D-04  0.31457428D-04  0.91922015D-01  0.17197628D+00
  0.29713687D+00  0.48169378D+00  0.73149822D+00  0.10167137D+01  0.12087947D+01
  0.10768363D+01  0.53477968D+00  0.86095005D-01  0.90835316D-03  0.43038575D-03
  0.14356948D-01  0.50031089D-01  0.18017005D+00  0.39716246D+00  0.55907656D+00
 -0.26669774D-01 -0.73164877D+00 -0.43261934D+00  0.63498647D-05  0.76912368D-04
  0.16039263D-03  0.45997815D-03  0.23886025D-04 -0.19836489D-02 -0.51253677D-02
  0.41759084D-02 -0.28726119D-01  0.14177407D-02 -0.18313552D-03  0.17563149D-02
  0.23134776D-02  0.25521279D-02  0.21197420D-02  0.11256418D-02  0.29042148D-03
  0.42921535D-02  0.56537702D-02  0.62369935D-02  0.51803115D-02  0.27508891D-02
  0.70974378D-03  0.98918712D+01  0.13029908D+02  0.14374029D+02  0.11938756D+02
  0.63398108D+01  0.16357043D+01 -0.59813523D-07  0.57823865D-06  0.81537686D-06
  0.11662046D-05 -0.59054960D-08 -0.10695196D-05 -0.14609664D-06  0.14123683D-05
  0.19915867D-05  0.28484959D-05 -0.14424382D-07 -0.26123394D-05 -0.33678608D-03
  0.32558312D-02  0.45910618D-02  0.65664329D-02 -0.33251492D-04 -0.60220383D-02
  0.12848214D-04  0.31397789D-04  0.72361442D-01 -0.53970545D-07 -0.13435261D-06
 -0.30608762D-03 -0.68542116D-09 -0.18657457D-08 -0.40294753D-05  0.45162661D-03
  0.45162648D-03 -0.90325309D-03 -0.80537480D-10 -0.48171693D-06 -0.11741006D-05
 -0.30876735D-03 -0.30876742D-03  0.61753477D-03  0.54237530D-10  0.32920079D-06
  0.80351691D-06  0.43790894D-05  0.43791861D-05 -0.87582755D-05  0.68222667D-11
 -0.48491465D-08 -0.10742540D-07  0.18148671D-07 -0.14430318D-04 -0.47341969D-04
 -0.39320958D-08  0.43414498D-04  0.70993879D-04 -0.50513916D-07 -0.12354517D-06
  0.71032028D-04 -0.15559201D-07  0.15030772D-07  0.41940677D-05 -0.62379568D-04
  0.21372698D-07 -0.12419782D-04  0.93574859D-04 -0.66465013D-07 -0.16242099D-06
  0.93563846D-04  0.44498052D-08 -0.64492619D-02 -0.12021435D-01 -0.20379011D-01