 Entering Gaussian System, Link 0=/home/bruns/programas/chemistry/gaussian/g09/g09
 Input=GAUSSIAN.com
 Output=GAUSSIAN.log
 Initial command:
 /home/bruns/programas/chemistry/gaussian/g09/l1.exe /home/bruns/programas/chemistry/gaussian/work/Gau-1267.inp -scrdir=/home/bruns/programas/chemistry/gaussian/work/
 Entering Link 1 = /home/bruns/programas/chemistry/gaussian/g09/l1.exe PID=      1269.
  
 Copyright (c) 1988,1990,1992,1993,1995,1998,2003,2009,2010,
            Gaussian, Inc.  All Rights Reserved.
  
 This is part of the Gaussian(R) 09 program.  It is based on
 the Gaussian(R) 03 system (copyright 2003, Gaussian, Inc.),
 the Gaussian(R) 98 system (copyright 1998, Gaussian, Inc.),
 the Gaussian(R) 94 system (copyright 1995, Gaussian, Inc.),
 the Gaussian 92(TM) system (copyright 1992, Gaussian, Inc.),
 the Gaussian 90(TM) system (copyright 1990, Gaussian, Inc.),
 the Gaussian 88(TM) system (copyright 1988, Gaussian, Inc.),
 the Gaussian 86(TM) system (copyright 1986, Carnegie Mellon
 University), and the Gaussian 82(TM) system (copyright 1983,
 Carnegie Mellon University). Gaussian is a federally registered
 trademark of Gaussian, Inc.
  
 This software contains proprietary and confidential information,
 including trade secrets, belonging to Gaussian, Inc.
  
 This software is provided under written license and may be
 used, copied, transmitted, or stored only in accord with that
 written license.
  
 The following legend is applicable only to US Government
 contracts under FAR:
  
                    RESTRICTED RIGHTS LEGEND
  
 Use, reproduction and disclosure by the US Government is
 subject to restrictions as set forth in subparagraphs (a)
 and (c) of the Commercial Computer Software - Restricted
 Rights clause in FAR 52.227-19.
  
 Gaussian, Inc.
 340 Quinnipiac St., Bldg. 40, Wallingford CT 06492
  
  
 ---------------------------------------------------------------
 Warning -- This program may not be used in any manner that
 competes with the business of Gaussian, Inc. or will provide
 assistance to any competitor of Gaussian, Inc.  The licensee
 of this program is prohibited from giving any competitor of
 Gaussian, Inc. access to this program.  By using this program,
 the user acknowledges that Gaussian, Inc. is engaged in the
 business of creating and licensing software in the field of
 computational chemistry and represents and warrants to the
 licensee that it is not a competitor of Gaussian, Inc. and that
 it will not use this program in any manner prohibited above.
 ---------------------------------------------------------------
  

 Cite this work as:
 Gaussian 09, Revision B.01,
 M. J. Frisch, G. W. Trucks, H. B. Schlegel, G. E. Scuseria, 
 M. A. Robb, J. R. Cheeseman, G. Scalmani, V. Barone, B. Mennucci, 
 G. A. Petersson, H. Nakatsuji, M. Caricato, X. Li, H. P. Hratchian, 
 A. F. Izmaylov, J. Bloino, G. Zheng, J. L. Sonnenberg, M. Hada, 
 M. Ehara, K. Toyota, R. Fukuda, J. Hasegawa, M. Ishida, T. Nakajima, 
 Y. Honda, O. Kitao, H. Nakai, T. Vreven, J. A. Montgomery, Jr., 
 J. E. Peralta, F. Ogliaro, M. Bearpark, J. J. Heyd, E. Brothers, 
 K. N. Kudin, V. N. Staroverov, T. Keith, R. Kobayashi, J. Normand, 
 K. Raghavachari, A. Rendell, J. C. Burant, S. S. Iyengar, J. Tomasi, 
 M. Cossi, N. Rega, J. M. Millam, M. Klene, J. E. Knox, J. B. Cross, 
 V. Bakken, C. Adamo, J. Jaramillo, R. Gomperts, R. E. Stratmann, 
 O. Yazyev, A. J. Austin, R. Cammi, C. Pomelli, J. W. Ochterski, 
 R. L. Martin, K. Morokuma, V. G. Zakrzewski, G. A. Voth, 
 P. Salvador, J. J. Dannenberg, S. Dapprich, A. D. Daniels, 
 O. Farkas, J. B. Foresman, J. V. Ortiz, J. Cioslowski, 
 and D. J. Fox, Gaussian, Inc., Wallingford CT, 2010.
 
 ******************************************
 Gaussian 09:  EM64L-G09RevB.01 12-Aug-2010
                24-Aug-2020 
 ******************************************
 %nproc=8
 Will use up to    8 processors via shared memory.
 %mem=8GB
 -----------------------------------------------------
 # QCISD aug-cc-pvtz nosymm density=current output=wfn
 -----------------------------------------------------
 1/30=1,38=1/1;
 2/12=2,15=1,17=6,18=5,40=1/2;
 3/5=16,6=1,7=10,11=9,16=1,25=1,30=1,71=1/1,2,3;
 4//1;
 5/5=2,38=5/2;
 8/6=4,9=120000,10=1/1,4;
 9/5=8,15=1/13;
 11/28=-7,31=1,32=3,42=3/11;
 10/5=6,13=10,31=1/2;
 6/7=2,8=2,9=2,10=2,22=-1,31=1/1;
 99/5=1,6=1100,9=1/99;
 ----------------------
 clch3f_ts-wavefunction
 ----------------------
 Symbolic Z-matrix:
 Charge = -1 Multiplicity = 1
 C                     0.00018   0.00003  -0.49771 
 H                     0.00002  -1.05257  -0.62073 
 H                    -0.91131   0.52637  -0.62125 
 H                     0.91175   0.52613  -0.63157 
 Cl                    0.00056   0.00096   1.64472 
 F                    -0.00019  -0.00092  -2.59347 
 
                          Input orientation:                          
 ---------------------------------------------------------------------
 Center     Atomic      Atomic             Coordinates (Angstroms)
 Number     Number       Type             X           Y           Z
 ---------------------------------------------------------------------
      1          6           0        0.000175    0.000029   -0.497709
      2          1           0        0.000019   -1.052570   -0.620726
      3          1           0       -0.911312    0.526365   -0.621245
      4          1           0        0.911750    0.526132   -0.631570
      5         17           0        0.000555    0.000962    1.644718
      6          9           0       -0.000186   -0.000921   -2.593468
 ---------------------------------------------------------------------
                    Distance matrix (angstroms):
                    1          2          3          4          5
     1  C    0.000000
     2  H    1.059763   0.000000
     3  H    1.059764   1.823063   0.000000
     4  H    1.060977   1.823094   1.823091   0.000000
     5  Cl   2.142427   2.498433   2.498427   2.507502   0.000000
     6  F    2.095759   2.235548   2.235586   2.226759   4.238186
                    6
     6  F    0.000000
 Symmetry turned off by external request.
 This structure is nearly, but not quite of a higher symmetry.
 Consider Symm=Loose if the higher symmetry is desired.
 Stoichiometry    CH3ClF(1-)
 Framework group  C1[X(CH3ClF)]
 Deg. of freedom    12
 Full point group                 C1      NOp   1
 Rotational constants (GHZ):    150.8787308      2.2145986      2.2145986
 Standard basis: Aug-CC-pVTZ (5D, 7F)
 Integral buffers will be    131072 words long.
 Raffenetti 1 integral format.
 Two-electron integral symmetry is turned off.
   211 basis functions,   339 primitive gaussians,   244 cartesian basis functions
    18 alpha electrons       18 beta electrons
       nuclear repulsion energy        84.9762421697 Hartrees.
 NAtoms=    6 NActive=    6 NUniq=    6 SFac= 1.00D+00 NAtFMM=   50 NAOKFM=F Big=F
 One-electron integrals computed using PRISM.
 NBasis=   211 RedAO= T  NBF=   211
 NBsUse=   211 1.00D-06 NBFU=   211
 Harris functional with IExCor=  205 diagonalized for initial guess.
 ExpMin= 2.53D-02 ExpMax= 4.56D+05 ExpMxC= 1.44D+03 IAcc=3 IRadAn=         0 AccDes= 0.00D+00
 HarFok:  IExCor=  205 AccDes= 0.00D+00 IRadAn=         0 IDoV= 1
 ScaDFX=  1.000000  1.000000  1.000000  1.000000
 FoFCou: FMM=F IPFlag=           0 FMFlag=      100000 FMFlg1=           0
         NFxFlg=           0 DoJE=T BraDBF=F KetDBF=T FulRan=T
         Omega=  0.000000  0.000000  1.000000  0.000000  0.000000 ICntrl=     500 IOpCl=  0
         NMat0=    1 NMatS0=    1 NMatT0=    0 NMatD0=    1 NMtDS0=    0 NMtDT0=    0
         I1Cent=           4 NGrid=           0.
 Symmetry not used in FoFCou.
 Requested convergence on RMS density matrix=1.00D-08 within 128 cycles.
 Requested convergence on MAX density matrix=1.00D-06.
 Requested convergence on             energy=1.00D-06.
 No special actions if energy rises.
 Keep R1 ints in memory in canonical form, NReq=454274131.
 SCF Done:  E(RHF) =  -598.617114814     A.U. after   12 cycles
             Convg  =    0.9361D-08             -V/T =  2.0001
 ExpMin= 2.53D-02 ExpMax= 4.56D+05 ExpMxC= 1.44D+03 IAcc=3 IRadAn=         5 AccDes= 0.00D+00
 HarFok:  IExCor=  205 AccDes= 0.00D+00 IRadAn=         5 IDoV=-2
 ScaDFX=  1.000000  1.000000  1.000000  1.000000
 DSYEVD returned Info=         101 IAlg= 4 N=    50 NDim=    50 NE2=    21472034 trying DSYEV.
 Range of M.O.s used for correlation:     8   211
 NBasis=   211 NAE=    18 NBE=    18 NFC=     7 NFV=     0
 NROrb=    204 NOA=    11 NOB=    11 NVA=   193 NVB=   193

 **** Warning!!: The largest alpha MO coefficient is  0.34632055D+02

 Semi-Direct transformation.
 ModeAB=           2 MOrb=            11 LenV=    1072528222
 LASXX=     44979418 LTotXX=    44979418 LenRXX=    44979418
 LTotAB=    45631872 MaxLAS=    67073160 LenRXY=    67073160
 NonZer=    89958836 LenScr=   135708672 LnRSAI=           0
 LnScr1=           0 LExtra=           0 Total=    247761250
 MaxDsk=          -1 SrtSym=           F ITran=            4
 JobTyp=0 Pass  1:  I=   1 to  11.
 (rs|ai) integrals will be sorted in core.
 Spin components of T(2) and E(2):
     alpha-alpha T2 =       0.2567470508D-01 E2=     -0.8208398391D-01
     alpha-beta  T2 =       0.1452773490D+00 E2=     -0.5099983643D+00
     beta-beta   T2 =       0.2567470508D-01 E2=     -0.8208398391D-01
 ANorm=    0.1093904365D+01
 E2 =    -0.6741663321D+00 EUMP2 =    -0.59929128114564D+03
 R2 and R3 integrals will be kept in memory, NReq=   900794930.
 Iterations=  50 Convergence= 0.100D-07
 Iteration Nr.   1
 **********************
 DD1Dir will call FoFMem   1 times, MxPair=       132
 NAB=    66 NAA=     0 NBB=     0.
 MP4(R+Q)=  0.14441161D-01
 E3=       -0.18708263D-01        EUMP3=      -0.59930998941D+03
 E4(DQ)=   -0.45180325D-03        UMP4(DQ)=   -0.59931044121D+03
 E4(SDQ)=  -0.98165674D-02        UMP4(SDQ)=  -0.59931980598D+03
 DE(Corr)= -0.67843343     E(Corr)=     -599.29554825    
 NORM(A)=   0.10997005D+01
 Iteration Nr.   2
 **********************
 DD1Dir will call FoFMem   1 times, MxPair=       132
 NAB=    66 NAA=     0 NBB=     0.
 DE(Corr)= -0.70063262     E(CORR)=     -599.31774743     Delta=-2.22D-02
 NORM(A)=   0.11070542D+01
 Iteration Nr.   3
 **********************
 DD1Dir will call FoFMem   1 times, MxPair=       132
 NAB=    66 NAA=     0 NBB=     0.
 DE(Corr)= -0.69823584     E(CORR)=     -599.31535065     Delta= 2.40D-03
 NORM(A)=   0.11110386D+01
 Iteration Nr.   4
 **********************
 DD1Dir will call FoFMem   1 times, MxPair=       132
 NAB=    66 NAA=     0 NBB=     0.
 DE(Corr)= -0.70129497     E(CORR)=     -599.31840979     Delta=-3.06D-03
 NORM(A)=   0.11131413D+01
 Iteration Nr.   5
 **********************
 DD1Dir will call FoFMem   1 times, MxPair=       132
 NAB=    66 NAA=     0 NBB=     0.
 DE(Corr)= -0.70189000     E(CORR)=     -599.31900482     Delta=-5.95D-04
 NORM(A)=   0.11141740D+01
 Iteration Nr.   6
 **********************
 DD1Dir will call FoFMem   1 times, MxPair=       132
 NAB=    66 NAA=     0 NBB=     0.
 DE(Corr)= -0.70203709     E(CORR)=     -599.31915190     Delta=-1.47D-04
 NORM(A)=   0.11145012D+01
 Iteration Nr.   7
 **********************
 DD1Dir will call FoFMem   1 times, MxPair=       132
 NAB=    66 NAA=     0 NBB=     0.
 DE(Corr)= -0.70206693     E(CORR)=     -599.31918175     Delta=-2.98D-05
 NORM(A)=   0.11145325D+01
 Iteration Nr.   8
 **********************
 DD1Dir will call FoFMem   1 times, MxPair=       132
 NAB=    66 NAA=     0 NBB=     0.
 DE(Corr)= -0.70208093     E(CORR)=     -599.31919574     Delta=-1.40D-05
 NORM(A)=   0.11145505D+01
 Iteration Nr.   9
 **********************
 DD1Dir will call FoFMem   1 times, MxPair=       132
 NAB=    66 NAA=     0 NBB=     0.
 DE(Corr)= -0.70205759     E(CORR)=     -599.31917240     Delta= 2.33D-05
 NORM(A)=   0.11145538D+01
 Iteration Nr.  10
 **********************
 DD1Dir will call FoFMem   1 times, MxPair=       132
 NAB=    66 NAA=     0 NBB=     0.
 DE(Corr)= -0.70207699     E(CORR)=     -599.31919180     Delta=-1.94D-05
 NORM(A)=   0.11145540D+01
 Iteration Nr.  11
 **********************
 DD1Dir will call FoFMem   1 times, MxPair=       132
 NAB=    66 NAA=     0 NBB=     0.
 DE(Corr)= -0.70206776     E(CORR)=     -599.31918257     Delta= 9.23D-06
 NORM(A)=   0.11145569D+01
 Iteration Nr.  12
 **********************
 DD1Dir will call FoFMem   1 times, MxPair=       132
 NAB=    66 NAA=     0 NBB=     0.
 DE(Corr)= -0.70207152     E(CORR)=     -599.31918633     Delta=-3.76D-06
 NORM(A)=   0.11145573D+01
 Iteration Nr.  13
 **********************
 DD1Dir will call FoFMem   1 times, MxPair=       132
 NAB=    66 NAA=     0 NBB=     0.
 DE(Corr)= -0.70207208     E(CORR)=     -599.31918689     Delta=-5.61D-07
 NORM(A)=   0.11145580D+01
 Iteration Nr.  14
 **********************
 DD1Dir will call FoFMem   1 times, MxPair=       132
 NAB=    66 NAA=     0 NBB=     0.
 DE(Corr)= -0.70207231     E(CORR)=     -599.31918712     Delta=-2.27D-07
 NORM(A)=   0.11145581D+01
 Iteration Nr.  15
 **********************
 DD1Dir will call FoFMem   1 times, MxPair=       132
 NAB=    66 NAA=     0 NBB=     0.
 DE(Corr)= -0.70207221     E(CORR)=     -599.31918703     Delta= 9.28D-08
 NORM(A)=   0.11145581D+01
 Iteration Nr.  16
 **********************
 DD1Dir will call FoFMem   1 times, MxPair=       132
 NAB=    66 NAA=     0 NBB=     0.
 DE(Corr)= -0.70207242     E(CORR)=     -599.31918723     Delta=-2.03D-07
 NORM(A)=   0.11145579D+01
 Iteration Nr.  17
 **********************
 DD1Dir will call FoFMem   1 times, MxPair=       132
 NAB=    66 NAA=     0 NBB=     0.
 DE(Corr)= -0.70207228     E(CORR)=     -599.31918710     Delta= 1.32D-07
 NORM(A)=   0.11145578D+01
 Iteration Nr.  18
 **********************
 DD1Dir will call FoFMem   1 times, MxPair=       132
 NAB=    66 NAA=     0 NBB=     0.
 DE(Corr)= -0.70207232     E(CORR)=     -599.31918713     Delta=-3.70D-08
 NORM(A)=   0.11145576D+01
 Iteration Nr.  19
 **********************
 DD1Dir will call FoFMem   1 times, MxPair=       132
 NAB=    66 NAA=     0 NBB=     0.
 DE(Corr)= -0.70207227     E(CORR)=     -599.31918708     Delta= 5.40D-08
 NORM(A)=   0.11145575D+01
 Iteration Nr.  20
 **********************
 DD1Dir will call FoFMem   1 times, MxPair=       132
 NAB=    66 NAA=     0 NBB=     0.
 DE(Corr)= -0.70207227     E(CORR)=     -599.31918708     Delta=-3.01D-09
 NORM(A)=   0.11145575D+01
 Iteration Nr.  21
 **********************
 DD1Dir will call FoFMem   1 times, MxPair=       132
 NAB=    66 NAA=     0 NBB=     0.
 DE(Corr)= -0.70207225     E(CORR)=     -599.31918706     Delta= 2.00D-08
 NORM(A)=   0.11145574D+01
 Iteration Nr.  22
 **********************
 DD1Dir will call FoFMem   1 times, MxPair=       132
 NAB=    66 NAA=     0 NBB=     0.
 DE(Corr)= -0.70207225     E(CORR)=     -599.31918706     Delta= 2.34D-09
 NORM(A)=   0.11145574D+01
 Iteration Nr.  23
 **********************
 DD1Dir will call FoFMem   1 times, MxPair=       132
 NAB=    66 NAA=     0 NBB=     0.
 DE(Corr)= -0.70207224     E(CORR)=     -599.31918706     Delta= 5.12D-09
 NORM(A)=   0.11145574D+01
 Iteration Nr.  24
 **********************
 DD1Dir will call FoFMem   1 times, MxPair=       132
 NAB=    66 NAA=     0 NBB=     0.
 DE(Corr)= -0.70207224     E(CORR)=     -599.31918706     Delta=-9.38D-10
 NORM(A)=   0.11145574D+01
 Iteration Nr.  25
 **********************
 DD1Dir will call FoFMem   1 times, MxPair=       132
 NAB=    66 NAA=     0 NBB=     0.
 DE(Corr)= -0.70207224     E(CORR)=     -599.31918705     Delta= 5.13D-09
 NORM(A)=   0.11145574D+01
 Iteration Nr.  26
 **********************
 DD1Dir will call FoFMem   1 times, MxPair=       132
 NAB=    66 NAA=     0 NBB=     0.
 DE(Corr)= -0.70207224     E(CORR)=     -599.31918706     Delta=-4.94D-09
 NORM(A)=   0.11145574D+01
 Iteration Nr.  27
 **********************
 DD1Dir will call FoFMem   1 times, MxPair=       132
 NAB=    66 NAA=     0 NBB=     0.
 DE(Corr)= -0.70207224     E(CORR)=     -599.31918705     Delta= 4.18D-09
 NORM(A)=   0.11145574D+01
 Iteration Nr.  28
 **********************
 DD1Dir will call FoFMem   1 times, MxPair=       132
 NAB=    66 NAA=     0 NBB=     0.
 DE(Corr)= -0.70207224     E(CORR)=     -599.31918706     Delta=-4.17D-09
 NORM(A)=   0.11145574D+01
 Largest amplitude= 6.60D-02

 Z-AMPLITUDE ITERATIONS

 Iteration Nr.   1
 **********************
 DD1Dir will call FoFMem   1 times, MxPair=       132
 NAB=    66 NAA=     0 NBB=     0.
 DE(Z)  -0.68267618D+00          E(Z)=    -0.59929979100D+03
 NORM(A)=   0.11151860D+01
 Iteration Nr.   2
 **********************
 DD1Dir will call FoFMem   1 times, MxPair=       132
 NAB=    66 NAA=     0 NBB=     0.
 DE(Z)  -0.68274507D+00          E(Z)=    -0.59929985988D+03
 NORM(A)=   0.11146849D+01
 Iteration Nr.   3
 **********************
 DD1Dir will call FoFMem   1 times, MxPair=       132
 NAB=    66 NAA=     0 NBB=     0.
 DE(Z)  -0.68268830D+00          E(Z)=    -0.59929980312D+03
 NORM(A)=   0.11148205D+01
 Iteration Nr.   4
 **********************
 DD1Dir will call FoFMem   1 times, MxPair=       132
 NAB=    66 NAA=     0 NBB=     0.
 DE(Z)  -0.68270245D+00          E(Z)=    -0.59929981726D+03
 NORM(A)=   0.11133870D+01
 Iteration Nr.   5
 **********************
 DD1Dir will call FoFMem   1 times, MxPair=       132
 NAB=    66 NAA=     0 NBB=     0.
 DE(Z)  -0.68256154D+00          E(Z)=    -0.59929967635D+03
 NORM(A)=   0.11079002D+01
 Iteration Nr.   6
 **********************
 DD1Dir will call FoFMem   1 times, MxPair=       132
 NAB=    66 NAA=     0 NBB=     0.
 DE(Z)  -0.68200689D+00          E(Z)=    -0.59929912171D+03
 NORM(A)=   0.11078950D+01
 Iteration Nr.   7
 **********************
 DD1Dir will call FoFMem   1 times, MxPair=       132
 NAB=    66 NAA=     0 NBB=     0.
 DE(Z)  -0.68200951D+00          E(Z)=    -0.59929912432D+03
 NORM(A)=   0.11078893D+01
 Iteration Nr.   8
 **********************
 DD1Dir will call FoFMem   1 times, MxPair=       132
 NAB=    66 NAA=     0 NBB=     0.
 DE(Z)  -0.68200735D+00          E(Z)=    -0.59929912216D+03
 NORM(A)=   0.11078862D+01
 Iteration Nr.   9
 **********************
 DD1Dir will call FoFMem   1 times, MxPair=       132
 NAB=    66 NAA=     0 NBB=     0.
 DE(Z)  -0.68200689D+00          E(Z)=    -0.59929912171D+03
 NORM(A)=   0.11078853D+01
 Iteration Nr.  10
 **********************
 DD1Dir will call FoFMem   1 times, MxPair=       132
 NAB=    66 NAA=     0 NBB=     0.
 DE(Z)  -0.68200736D+00          E(Z)=    -0.59929912217D+03
 NORM(A)=   0.11078849D+01
 Iteration Nr.  11
 **********************
 DD1Dir will call FoFMem   1 times, MxPair=       132
 NAB=    66 NAA=     0 NBB=     0.
 DE(Z)  -0.68200717D+00          E(Z)=    -0.59929912198D+03
 NORM(A)=   0.11078848D+01
 Iteration Nr.  12
 **********************
 DD1Dir will call FoFMem   1 times, MxPair=       132
 NAB=    66 NAA=     0 NBB=     0.
 DE(Z)  -0.68200716D+00          E(Z)=    -0.59929912197D+03
 NORM(A)=   0.11078849D+01
 Iteration Nr.  13
 **********************
 DD1Dir will call FoFMem   1 times, MxPair=       132
 NAB=    66 NAA=     0 NBB=     0.
 DE(Z)  -0.68200724D+00          E(Z)=    -0.59929912205D+03
 NORM(A)=   0.11078849D+01
 Iteration Nr.  14
 **********************
 DD1Dir will call FoFMem   1 times, MxPair=       132
 NAB=    66 NAA=     0 NBB=     0.
 DE(Z)  -0.68200721D+00          E(Z)=    -0.59929912203D+03
 NORM(A)=   0.11078849D+01
 Iteration Nr.  15
 **********************
 DD1Dir will call FoFMem   1 times, MxPair=       132
 NAB=    66 NAA=     0 NBB=     0.
 DE(Z)  -0.68200723D+00          E(Z)=    -0.59929912204D+03
 NORM(A)=   0.11078848D+01
 Iteration Nr.  16
 **********************
 DD1Dir will call FoFMem   1 times, MxPair=       132
 NAB=    66 NAA=     0 NBB=     0.
 DE(Z)  -0.68200723D+00          E(Z)=    -0.59929912205D+03
 NORM(A)=   0.11078848D+01
 Iteration Nr.  17
 **********************
 DD1Dir will call FoFMem   1 times, MxPair=       132
 NAB=    66 NAA=     0 NBB=     0.
 DE(Z)  -0.68200721D+00          E(Z)=    -0.59929912202D+03
 NORM(A)=   0.11078848D+01
 Iteration Nr.  18
 **********************
 DD1Dir will call FoFMem   1 times, MxPair=       132
 NAB=    66 NAA=     0 NBB=     0.
 DE(Z)  -0.68200723D+00          E(Z)=    -0.59929912204D+03
 NORM(A)=   0.11078848D+01
 Iteration Nr.  19
 **********************
 DD1Dir will call FoFMem   1 times, MxPair=       132
 NAB=    66 NAA=     0 NBB=     0.
 DE(Z)  -0.68200722D+00          E(Z)=    -0.59929912204D+03
 NORM(A)=   0.11078848D+01
 Discarding MO integrals.
          Differentiating once with respect to electric field.
                with respect to dipole field.
          Electric field/nuclear overlap derivatives assumed to be zero.
          Keep R1 ints in memory in canonical form, NReq=448662239.
          There are     1 degrees of freedom in the 1st order CPHF.  IDoFFX=0.
 LinEq1:  Iter=  0 NonCon=     1 RMS=3.11D-03 Max=1.20D-01
 AX will form     1 AO Fock derivatives at one time.
 LinEq1:  Iter=  1 NonCon=     1 RMS=6.94D-04 Max=9.45D-03
 LinEq1:  Iter=  2 NonCon=     1 RMS=2.29D-04 Max=5.73D-03
 LinEq1:  Iter=  3 NonCon=     1 RMS=9.48D-05 Max=1.45D-03
 LinEq1:  Iter=  4 NonCon=     1 RMS=3.84D-05 Max=4.10D-04
 LinEq1:  Iter=  5 NonCon=     1 RMS=1.06D-05 Max=2.27D-04
 LinEq1:  Iter=  6 NonCon=     1 RMS=2.42D-06 Max=4.23D-05
 LinEq1:  Iter=  7 NonCon=     1 RMS=6.07D-07 Max=9.17D-06
 LinEq1:  Iter=  8 NonCon=     1 RMS=1.50D-07 Max=1.80D-06
 LinEq1:  Iter=  9 NonCon=     1 RMS=3.04D-08 Max=7.48D-07
 LinEq1:  Iter= 10 NonCon=     1 RMS=6.55D-09 Max=8.90D-08
 LinEq1:  Iter= 11 NonCon=     1 RMS=1.05D-09 Max=1.16D-08
 LinEq1:  Iter= 12 NonCon=     1 RMS=1.69D-10 Max=2.86D-09
 LinEq1:  Iter= 13 NonCon=     0 RMS=2.41D-11 Max=3.22D-10
 Linear equations converged to 1.000D-10 1.000D-09 after    13 iterations.
 End of Minotr Frequency-dependent properties file   721 does not exist.
 End of Minotr Frequency-dependent properties file   722 does not exist.

 **********************************************************************

            Population analysis using the QCI/CC density.

 **********************************************************************

     Natural Orbital Coefficients:
                           1         2         3         4         5
     Eigenvalues --     2.00003   2.00003   2.00002   2.00001   2.00001
   1 1   C  1S          0.00000   0.00017  -0.04338   0.07940   0.97626
   2        2S          0.00000   0.00001   0.00131   0.00051  -0.01332
   3        3S          0.00000   0.00001  -0.00132   0.00396   0.03984
   4        4S          0.00000  -0.00021  -0.01259  -0.02352   0.00332
   5        5S          0.00000  -0.00002  -0.00119  -0.00059  -0.00058
   6        6PX        -0.00003   0.00004   0.00000   0.00001   0.00000
   7        6PY         0.00004   0.00002   0.00000   0.00000   0.00000
   8        6PZ         0.00000   0.00000   0.00053   0.00168   0.00088
   9        7PX        -0.00042   0.00072   0.00000   0.00000   0.00000
  10        7PY         0.00073   0.00042   0.00000   0.00000   0.00000
  11        7PZ         0.00000   0.00000   0.00141   0.00305  -0.00092
  12        8PX        -0.00227   0.00392   0.00003   0.00005   0.00000
  13        8PY         0.00393   0.00226   0.00001   0.00003   0.00000
  14        8PZ         0.00000  -0.00007  -0.00370  -0.00406  -0.00313
  15        9PX        -0.00021   0.00037   0.00000   0.00001   0.00000
  16        9PY         0.00037   0.00021   0.00000   0.00000   0.00000
  17        9PZ         0.00000   0.00000   0.00021   0.00017  -0.00049
  18       10D 0        0.00000   0.00000   0.00011   0.00033  -0.00057
  19       10D+1        0.00008  -0.00013   0.00000   0.00000  -0.00001
  20       10D-1       -0.00013  -0.00008   0.00000   0.00000   0.00000
  21       10D+2        0.00003   0.00002   0.00000   0.00000   0.00000
  22       10D-2       -0.00002   0.00003   0.00000   0.00000   0.00000
  23       11D 0        0.00000   0.00001   0.00021  -0.00010  -0.00031
  24       11D+1       -0.00013   0.00020   0.00001   0.00002   0.00001
  25       11D-1        0.00022   0.00012   0.00000   0.00001   0.00001
  26       11D+2        0.00086   0.00050   0.00000   0.00000   0.00000
  27       11D-2       -0.00050   0.00086   0.00000   0.00000   0.00000
  28       12D 0        0.00000   0.00000  -0.00078   0.00124  -0.00235
  29       12D+1        0.00065  -0.00115   0.00001   0.00002  -0.00001
  30       12D-1       -0.00113  -0.00067   0.00000   0.00001  -0.00001
  31       12D+2        0.00138   0.00080   0.00001   0.00001   0.00000
  32       12D-2       -0.00080   0.00138   0.00001   0.00002   0.00000
  33       13F 0        0.00000   0.00000   0.00001   0.00003   0.00020
  34       13F+1        0.00010  -0.00016   0.00000   0.00000   0.00000
  35       13F-1       -0.00017  -0.00009   0.00000   0.00000   0.00000
  36       13F+2        0.00001   0.00001   0.00000   0.00000   0.00000
  37       13F-2       -0.00001   0.00001   0.00000   0.00000   0.00000
  38       13F+3        0.00000   0.00000   0.00000   0.00000   0.00000
  39       13F-3        0.00000   0.00000  -0.00006   0.00007   0.00090
  40       14F 0        0.00000  -0.00001  -0.00112  -0.00215  -0.00020
  41       14F+1       -0.00029   0.00049   0.00000  -0.00001   0.00000
  42       14F-1        0.00050   0.00029   0.00000  -0.00001   0.00000
  43       14F+2        0.00030   0.00017   0.00000   0.00001   0.00001
  44       14F-2       -0.00017   0.00029   0.00000   0.00001   0.00002
  45       14F+3        0.00000   0.00000   0.00000   0.00000   0.00000
  46       14F-3        0.00000  -0.00002  -0.00086  -0.00134  -0.00188
  47 2   H  1S         -0.00014  -0.00008  -0.00002  -0.00036  -0.00135
  48        2S          0.00102   0.00063   0.00244   0.00330  -0.00072
  49        3S          0.00748   0.00435   0.00185   0.00534  -0.00438
  50        4S         -0.00023  -0.00013   0.00011   0.00010  -0.00014
  51        5PX         0.00000   0.00000   0.00000   0.00000   0.00000
  52        5PY         0.00003   0.00002   0.00004  -0.00003  -0.00048
  53        5PZ         0.00001   0.00001   0.00001   0.00002  -0.00009
  54        6PX        -0.00009   0.00016   0.00000   0.00000   0.00000
  55        6PY         0.00057   0.00033   0.00046   0.00069  -0.00081
  56        6PZ         0.00054   0.00031  -0.00001  -0.00010   0.00025
  57        7PX        -0.00045   0.00078   0.00001   0.00001   0.00000
  58        7PY         0.00181   0.00105   0.00054   0.00136  -0.00103
  59        7PZ         0.00023   0.00013   0.00047   0.00093  -0.00006
  60        8D 0        0.00003   0.00002   0.00001   0.00006   0.00014
  61        8D+1        0.00001  -0.00001   0.00000   0.00000   0.00000
  62        8D-1        0.00008   0.00005   0.00002   0.00005  -0.00004
  63        8D+2       -0.00004  -0.00002  -0.00004  -0.00005   0.00028
  64        8D-2        0.00000   0.00001   0.00000   0.00000   0.00000
  65        9D 0        0.00034   0.00020   0.00015   0.00025   0.00062
  66        9D+1       -0.00013   0.00021   0.00000   0.00000   0.00001
  67        9D-1        0.00011   0.00006  -0.00014  -0.00025   0.00001
  68        9D+2       -0.00011  -0.00006   0.00001   0.00003  -0.00010
  69        9D-2       -0.00006   0.00010   0.00000   0.00000   0.00000
  70 3   H  1S          0.00014  -0.00008  -0.00002  -0.00036  -0.00135
  71        2S         -0.00102   0.00063   0.00244   0.00330  -0.00072
  72        3S         -0.00748   0.00435   0.00185   0.00534  -0.00438
  73        4S          0.00023  -0.00013   0.00011   0.00010  -0.00014
  74        5PX        -0.00002   0.00002   0.00004  -0.00002  -0.00042
  75        5PY         0.00002  -0.00001  -0.00002   0.00001   0.00024
  76        5PZ        -0.00001   0.00001   0.00001   0.00002  -0.00009
  77        6PX        -0.00045   0.00037   0.00039   0.00060  -0.00070
  78        6PY         0.00036  -0.00003  -0.00023  -0.00035   0.00040
  79        6PZ        -0.00054   0.00031  -0.00001  -0.00010   0.00025
  80        7PX        -0.00134   0.00130   0.00047   0.00118  -0.00089
  81        7PY         0.00129   0.00015  -0.00026  -0.00067   0.00051
  82        7PZ        -0.00023   0.00013   0.00047   0.00093  -0.00006
  83        8D 0       -0.00003   0.00002   0.00001   0.00006   0.00014
  84        8D+1       -0.00007   0.00003   0.00002   0.00004  -0.00003
  85        8D-1        0.00003  -0.00004  -0.00001  -0.00002   0.00002
  86        8D+2       -0.00002   0.00002   0.00002   0.00003  -0.00014
  87        8D-2        0.00004  -0.00002  -0.00004  -0.00005   0.00024
  88        9D 0       -0.00034   0.00020   0.00015   0.00025   0.00062
  89        9D+1       -0.00003   0.00016  -0.00012  -0.00022   0.00001
  90        9D-1        0.00016   0.00016   0.00007   0.00013   0.00000
  91        9D+2       -0.00001   0.00012   0.00000  -0.00001   0.00005
  92        9D-2        0.00012  -0.00001   0.00001   0.00002  -0.00008
  93 4   H  1S          0.00000   0.00016  -0.00002  -0.00035  -0.00134
  94        2S          0.00000  -0.00113   0.00243   0.00331  -0.00071
  95        3S          0.00000  -0.00859   0.00176   0.00518  -0.00438
  96        4S          0.00000   0.00026   0.00011   0.00008  -0.00013
  97        5PX         0.00000   0.00003  -0.00004   0.00002   0.00041
  98        5PY         0.00000   0.00002  -0.00002   0.00001   0.00024
  99        5PZ         0.00000  -0.00001   0.00001   0.00001  -0.00009
 100        6PX        -0.00009   0.00056  -0.00040  -0.00061   0.00070
 101        6PY         0.00016   0.00032  -0.00023  -0.00035   0.00040
 102        6PZ         0.00000  -0.00060   0.00000  -0.00010   0.00022
 103        7PX        -0.00045   0.00180  -0.00045  -0.00115   0.00089
 104        7PY         0.00078   0.00104  -0.00026  -0.00066   0.00051
 105        7PZ         0.00000  -0.00026   0.00046   0.00092  -0.00008
 106        8D 0        0.00000  -0.00004   0.00001   0.00006   0.00014
 107        8D+1        0.00001   0.00008  -0.00002  -0.00004   0.00004
 108        8D-1       -0.00001   0.00005  -0.00001  -0.00002   0.00002
 109        8D+2        0.00001  -0.00002   0.00002   0.00003  -0.00014
 110        8D-2        0.00000  -0.00004   0.00003   0.00005  -0.00024
 111        9D 0        0.00000  -0.00039   0.00015   0.00024   0.00062
 112        9D+1       -0.00013   0.00011   0.00012   0.00022   0.00000
 113        9D-1        0.00022   0.00006   0.00007   0.00013   0.00000
 114        9D+2        0.00010  -0.00006   0.00000  -0.00001   0.00005
 115        9D-2       -0.00006  -0.00011  -0.00001  -0.00002   0.00008
 116 5   Cl 1S          0.00000  -0.00001  -0.25074   0.14777  -0.02270
 117        2S          0.00000   0.00003   0.84640  -0.49951   0.07781
 118        3S          0.00000  -0.00001  -0.02310   0.00931  -0.00238
 119        4S          0.00000   0.00000   0.06658  -0.04070   0.00639
 120        5S          0.00000   0.00003  -0.00213   0.00774   0.00351
 121        6S          0.00000   0.00000  -0.00154  -0.00214   0.00301
 122        7PX        -0.48952   0.84767  -0.00089  -0.00146  -0.00006
 123        7PY         0.84767   0.48952  -0.00035  -0.00056  -0.00005
 124        7PZ        -0.00028   0.00181   0.50005   0.83642  -0.04641
 125        8PX         0.00958  -0.01658   0.00001   0.00002   0.00000
 126        8PY        -0.01659  -0.00958   0.00000   0.00001   0.00000
 127        8PZ         0.00001  -0.00004  -0.00876  -0.01403   0.00010
 128        9PX        -0.02617   0.04532  -0.00005  -0.00008   0.00000
 129        9PY         0.04532   0.02617  -0.00002  -0.00003   0.00000
 130        9PZ        -0.00002   0.00010   0.02839   0.04957  -0.00263
 131       10PX         0.00289  -0.00500   0.00000   0.00001   0.00001
 132       10PY        -0.00500  -0.00289   0.00000   0.00000   0.00000
 133       10PZ         0.00000  -0.00003  -0.00433  -0.00273  -0.00347
 134       11PX         0.00107  -0.00186   0.00000   0.00000   0.00000
 135       11PY        -0.00186  -0.00107   0.00000   0.00000   0.00000
 136       11PZ         0.00000   0.00000  -0.00036  -0.00014  -0.00053
 137       12D 0        0.00000   0.00000   0.00001  -0.00051  -0.00017
 138       12D+1        0.00016  -0.00028   0.00000   0.00000   0.00000
 139       12D-1       -0.00028  -0.00016   0.00000   0.00000   0.00000
 140       12D+2        0.00001   0.00000   0.00000   0.00000   0.00000
 141       12D-2        0.00000   0.00001   0.00000   0.00000   0.00000
 142       13D 0        0.00000   0.00001   0.00087   0.00244   0.00042
 143       13D+1       -0.00041   0.00070   0.00000   0.00000   0.00000
 144       13D-1        0.00070   0.00040   0.00000   0.00000   0.00000
 145       13D+2       -0.00002  -0.00001   0.00000   0.00000   0.00000
 146       13D-2        0.00001  -0.00002   0.00000   0.00000   0.00000
 147       14D 0        0.00000   0.00000   0.00058  -0.00018   0.00080
 148       14D+1        0.00036  -0.00062   0.00000   0.00000  -0.00001
 149       14D-1       -0.00062  -0.00036   0.00000   0.00000   0.00000
 150       14D+2        0.00002   0.00001   0.00000   0.00000   0.00000
 151       14D-2       -0.00001   0.00002   0.00000   0.00000   0.00000
 152       15F 0        0.00000   0.00000   0.00001  -0.00007  -0.00003
 153       15F+1        0.00000   0.00000   0.00000   0.00000   0.00000
 154       15F-1       -0.00001   0.00000   0.00000   0.00000   0.00000
 155       15F+2        0.00002   0.00001   0.00000   0.00000   0.00000
 156       15F-2       -0.00001   0.00002   0.00000   0.00000   0.00000
 157       15F+3        0.00000   0.00000   0.00000   0.00000   0.00000
 158       15F-3        0.00000   0.00000   0.00001   0.00003   0.00000
 159       16F 0        0.00000   0.00000  -0.00031  -0.00059  -0.00032
 160       16F+1        0.00011  -0.00019   0.00000   0.00000   0.00000
 161       16F-1       -0.00019  -0.00011   0.00000   0.00000   0.00000
 162       16F+2       -0.00003  -0.00002   0.00000   0.00000   0.00000
 163       16F-2        0.00002  -0.00003   0.00000   0.00000   0.00000
 164       16F+3        0.00000   0.00000   0.00000   0.00000   0.00000
 165       16F-3        0.00000   0.00000  -0.00002  -0.00005   0.00002
 166 6   F  1S          0.00000   0.00000  -0.00144  -0.01046  -0.04986
 167        2S          0.00000   0.00000   0.00020   0.00043   0.00081
 168        3S          0.00000   0.00000  -0.00007  -0.00045  -0.00203
 169        4S          0.00000   0.00000  -0.00054  -0.00105   0.00055
 170        5S          0.00000   0.00001   0.00011  -0.00169   0.00176
 171        6PX         0.00002  -0.00004   0.00000   0.00000   0.00000
 172        6PY        -0.00004  -0.00002   0.00000   0.00000   0.00000
 173        6PZ         0.00000   0.00000   0.00058   0.00111   0.00011
 174        7PX         0.00000  -0.00001   0.00000   0.00000   0.00000
 175        7PY        -0.00001   0.00000   0.00000   0.00000   0.00000
 176        7PZ         0.00000   0.00000   0.00069   0.00132   0.00002
 177        8PX         0.00012  -0.00021   0.00000   0.00000   0.00000
 178        8PY        -0.00021  -0.00012   0.00000   0.00000   0.00000
 179        8PZ         0.00000   0.00000   0.00008   0.00017   0.00047
 180        9PX         0.00018  -0.00031   0.00000   0.00000   0.00000
 181        9PY        -0.00031  -0.00018   0.00000   0.00000   0.00000
 182        9PZ         0.00000   0.00000   0.00017  -0.00009   0.00071
 183       10D 0        0.00000   0.00000   0.00001   0.00001  -0.00002
 184       10D+1        0.00000  -0.00001   0.00000   0.00000   0.00000
 185       10D-1       -0.00001   0.00000   0.00000   0.00000   0.00000
 186       10D+2        0.00001   0.00000   0.00000   0.00000   0.00000
 187       10D-2        0.00000   0.00001   0.00000   0.00000   0.00000
 188       11D 0        0.00000   0.00000  -0.00003  -0.00010   0.00001
 189       11D+1       -0.00002   0.00004   0.00000   0.00000   0.00000
 190       11D-1        0.00004   0.00002   0.00000   0.00000   0.00000
 191       11D+2       -0.00003  -0.00002   0.00000   0.00000   0.00000
 192       11D-2        0.00002  -0.00003   0.00000   0.00000   0.00000
 193       12D 0        0.00000   0.00000  -0.00019  -0.00012   0.00011
 194       12D+1        0.00011  -0.00019   0.00000   0.00000   0.00000
 195       12D-1       -0.00019  -0.00011   0.00000   0.00000   0.00000
 196       12D+2        0.00009   0.00006   0.00000   0.00000   0.00000
 197       12D-2       -0.00005   0.00010   0.00000   0.00000   0.00000
 198       13F 0        0.00000   0.00000   0.00001  -0.00001  -0.00004
 199       13F+1       -0.00001   0.00002   0.00000   0.00000   0.00000
 200       13F-1        0.00002   0.00001   0.00000   0.00000   0.00000
 201       13F+2       -0.00001  -0.00001   0.00000   0.00000   0.00000
 202       13F-2        0.00001  -0.00001   0.00000   0.00000   0.00000
 203       13F+3        0.00000   0.00000   0.00000   0.00000   0.00000
 204       13F-3        0.00000   0.00000   0.00000   0.00000   0.00000
 205       14F 0        0.00000   0.00000  -0.00004   0.00002   0.00013
 206       14F+1        0.00003  -0.00005   0.00000   0.00000   0.00000
 207       14F-1       -0.00005  -0.00003   0.00000   0.00000   0.00000
 208       14F+2        0.00004   0.00002   0.00000   0.00000   0.00000
 209       14F-2       -0.00002   0.00004   0.00000   0.00000   0.00000
 210       14F+3        0.00000   0.00000   0.00000   0.00000   0.00000
 211       14F-3        0.00000   0.00000   0.00000  -0.00001  -0.00001
                           6         7         8         9        10
     Eigenvalues --     2.00000   2.00000   1.98361   1.97542   1.96949
   1 1   C  1S          0.05048  -0.00046   0.01543  -0.07325  -0.14370
   2        2S         -0.00013  -0.00001  -0.04203   0.19877   0.39720
   3        3S          0.00230  -0.00003  -0.01040   0.04611   0.09610
   4        4S         -0.00682   0.00016   0.00537   0.07893   0.19082
   5        5S         -0.00014   0.00010   0.00780  -0.00689  -0.02881
   6        6PX         0.00000   0.00000  -0.00003  -0.00026  -0.00032
   7        6PY         0.00000   0.00000  -0.00002  -0.00014  -0.00019
   8        6PZ         0.00004   0.00000   0.00651   0.01020  -0.02762
   9        7PX         0.00001   0.00000  -0.00009  -0.00028  -0.00038
  10        7PY         0.00001   0.00000  -0.00005  -0.00015  -0.00023
  11        7PZ        -0.00075   0.00000   0.00711   0.01774  -0.03295
  12        8PX         0.00001   0.00000  -0.00021  -0.00011  -0.00012
  13        8PY         0.00001   0.00000  -0.00012  -0.00006  -0.00008
  14        8PZ         0.00520   0.00009   0.01668   0.00583  -0.02290
  15        9PX         0.00000   0.00000  -0.00001  -0.00001  -0.00001
  16        9PY         0.00000   0.00000   0.00000  -0.00001  -0.00001
  17        9PZ         0.00011   0.00001  -0.00070   0.00035  -0.00404
  18       10D 0        0.00004   0.00000   0.00051  -0.00212  -0.00954
  19       10D+1        0.00000   0.00000   0.00001  -0.00004  -0.00009
  20       10D-1        0.00000   0.00000   0.00001  -0.00002  -0.00006
  21       10D+2        0.00000   0.00000   0.00000  -0.00001  -0.00002
  22       10D-2        0.00000   0.00000   0.00000  -0.00002  -0.00003
  23       11D 0       -0.00024  -0.00002  -0.00528   0.00466  -0.01874
  24       11D+1        0.00000   0.00000   0.00006  -0.00008  -0.00022
  25       11D-1        0.00000   0.00000   0.00003  -0.00004  -0.00014
  26       11D+2        0.00001   0.00000  -0.00004  -0.00002  -0.00001
  27       11D-2        0.00001   0.00000  -0.00007  -0.00003  -0.00002
  28       12D 0        0.00028   0.00008   0.00202  -0.00842  -0.01659
  29       12D+1        0.00001   0.00000   0.00001   0.00000  -0.00003
  30       12D-1        0.00000   0.00000   0.00000   0.00000  -0.00003
  31       12D+2        0.00001   0.00000  -0.00005   0.00001   0.00003
  32       12D-2        0.00001   0.00000  -0.00008   0.00002   0.00006
  33       13F 0       -0.00007   0.00000   0.00000   0.00244   0.00067
  34       13F+1        0.00000   0.00000   0.00000   0.00001   0.00001
  35       13F-1        0.00000   0.00000   0.00000   0.00001   0.00001
  36       13F+2        0.00000   0.00000   0.00000  -0.00001  -0.00002
  37       13F-2        0.00000   0.00000   0.00001  -0.00002  -0.00003
  38       13F+3        0.00000   0.00000   0.00000   0.00000   0.00000
  39       13F-3        0.00001   0.00000  -0.00014   0.00194   0.00397
  40       14F 0        0.00127  -0.00001   0.00473   0.00259  -0.00202
  41       14F+1        0.00000   0.00000  -0.00001   0.00002   0.00002
  42       14F-1        0.00000   0.00000   0.00000   0.00001   0.00001
  43       14F+2        0.00000   0.00000   0.00002  -0.00001  -0.00004
  44       14F-2        0.00000   0.00000   0.00004  -0.00003  -0.00007
  45       14F+3        0.00000   0.00000   0.00000   0.00000   0.00000
  46       14F-3       -0.00042   0.00003   0.00185  -0.00102   0.00406
  47 2   H  1S         -0.00008   0.00000  -0.00857   0.03720   0.08063
  48        2S          0.00095  -0.00006  -0.01532   0.04385   0.08382
  49        3S          0.00179   0.00004  -0.00106  -0.00489  -0.01196
  50        4S          0.00003   0.00000  -0.00047   0.00050   0.00039
  51        5PX         0.00000   0.00000   0.00000   0.00000   0.00000
  52        5PY         0.00001   0.00000  -0.00109   0.00399   0.00864
  53        5PZ        -0.00004   0.00000   0.00028   0.00095   0.00034
  54        6PX         0.00000   0.00000  -0.00003  -0.00001   0.00000
  55        6PY         0.00007   0.00000  -0.00075   0.00081   0.00120
  56        6PZ         0.00032  -0.00001   0.00011   0.00240  -0.00058
  57        7PX         0.00001   0.00000  -0.00005   0.00001   0.00003
  58        7PY         0.00043   0.00001   0.00131  -0.00497  -0.01035
  59        7PZ        -0.00055   0.00001  -0.00282  -0.00175  -0.00134
  60        8D 0        0.00006   0.00000   0.00014  -0.00035  -0.00091
  61        8D+1        0.00000   0.00000   0.00000   0.00000   0.00000
  62        8D-1       -0.00001   0.00000  -0.00014   0.00049   0.00023
  63        8D+2       -0.00002   0.00000   0.00003  -0.00054  -0.00137
  64        8D-2        0.00000   0.00000   0.00000   0.00000   0.00000
  65        9D 0        0.00008  -0.00001  -0.00005   0.00122   0.00099
  66        9D+1        0.00000   0.00000   0.00001   0.00000  -0.00001
  67        9D-1        0.00014   0.00000  -0.00005   0.00003  -0.00040
  68        9D+2        0.00004   0.00000  -0.00098   0.00225   0.00416
  69        9D-2        0.00000   0.00000  -0.00001   0.00000   0.00000
  70 3   H  1S         -0.00008   0.00000  -0.00857   0.03720   0.08063
  71        2S          0.00095  -0.00006  -0.01532   0.04385   0.08382
  72        3S          0.00179   0.00004  -0.00106  -0.00489  -0.01196
  73        4S          0.00003   0.00000  -0.00047   0.00050   0.00039
  74        5PX         0.00001   0.00000  -0.00094   0.00345   0.00748
  75        5PY        -0.00001   0.00000   0.00054  -0.00200  -0.00432
  76        5PZ        -0.00004   0.00000   0.00028   0.00096   0.00035
  77        6PX         0.00007   0.00000  -0.00066   0.00070   0.00104
  78        6PY        -0.00003   0.00000   0.00035  -0.00041  -0.00060
  79        6PZ         0.00032  -0.00001   0.00011   0.00240  -0.00058
  80        7PX         0.00037   0.00001   0.00111  -0.00429  -0.00895
  81        7PY        -0.00021   0.00000  -0.00071   0.00250   0.00520
  82        7PZ        -0.00055   0.00001  -0.00282  -0.00175  -0.00134
  83        8D 0        0.00006   0.00000   0.00014  -0.00035  -0.00091
  84        8D+1       -0.00001   0.00000  -0.00012   0.00043   0.00020
  85        8D-1        0.00000   0.00000   0.00007  -0.00025  -0.00012
  86        8D+2        0.00001   0.00000  -0.00002   0.00027   0.00069
  87        8D-2       -0.00001   0.00000   0.00003  -0.00047  -0.00119
  88        9D 0        0.00008  -0.00001  -0.00005   0.00122   0.00099
  89        9D+1        0.00012   0.00000  -0.00004   0.00002  -0.00035
  90        9D-1       -0.00007   0.00000   0.00003  -0.00002   0.00019
  91        9D+2       -0.00002   0.00000   0.00048  -0.00112  -0.00208
  92        9D-2        0.00003   0.00000  -0.00086   0.00195   0.00361
  93 4   H  1S         -0.00008   0.00000  -0.00865   0.03681   0.08034
  94        2S          0.00092  -0.00006  -0.01519   0.04344   0.08358
  95        3S          0.00177   0.00004  -0.00043  -0.00485  -0.01210
  96        4S          0.00003   0.00000  -0.00045   0.00053   0.00038
  97        5PX        -0.00001   0.00000   0.00094  -0.00341  -0.00745
  98        5PY        -0.00001   0.00000   0.00054  -0.00197  -0.00430
  99        5PZ        -0.00004   0.00000   0.00027   0.00098   0.00042
 100        6PX        -0.00005   0.00000   0.00059  -0.00068  -0.00108
 101        6PY        -0.00003   0.00000   0.00034  -0.00039  -0.00062
 102        6PZ         0.00032  -0.00001  -0.00003   0.00250  -0.00042
 103        7PX        -0.00037  -0.00001  -0.00127   0.00425   0.00891
 104        7PY        -0.00021   0.00000  -0.00073   0.00245   0.00514
 105        7PZ        -0.00055   0.00001  -0.00283  -0.00178  -0.00141
 106        8D 0        0.00006   0.00000   0.00015  -0.00034  -0.00091
 107        8D+1        0.00001   0.00000   0.00014  -0.00044  -0.00023
 108        8D-1        0.00000   0.00000   0.00008  -0.00025  -0.00013
 109        8D+2        0.00001   0.00000  -0.00001   0.00027   0.00068
 110        8D-2        0.00001   0.00000  -0.00003   0.00046   0.00118
 111        9D 0        0.00008  -0.00001  -0.00006   0.00122   0.00096
 112        9D+1       -0.00012   0.00000   0.00007  -0.00001   0.00036
 113        9D-1       -0.00007   0.00000   0.00004  -0.00001   0.00021
 114        9D+2       -0.00002   0.00000   0.00050  -0.00112  -0.00207
 115        9D-2       -0.00003   0.00000   0.00086  -0.00194  -0.00359
 116 5   Cl 1S          0.00008   0.99708  -0.00064   0.06652  -0.03471
 117        2S         -0.00009   0.01040   0.00292  -0.25208   0.13046
 118        3S          0.00006   0.00017  -0.00390   0.52503  -0.27762
 119        4S          0.00008   0.00026  -0.00025   0.06433  -0.03741
 120        5S         -0.00182  -0.00020  -0.01229   0.35116  -0.17010
 121        6S         -0.00052  -0.00011  -0.00461   0.02451   0.01133
 122        7PX        -0.00002   0.00000   0.00000   0.00003   0.00006
 123        7PY        -0.00001   0.00000   0.00000   0.00002   0.00004
 124        7PZ         0.00740   0.00016   0.00152   0.00453   0.02869
 125        8PX         0.00000   0.00000   0.00001  -0.00008  -0.00014
 126        8PY         0.00000   0.00000   0.00001  -0.00005  -0.00010
 127        8PZ         0.00051  -0.00003  -0.00224  -0.00587  -0.07186
 128        9PX         0.00000   0.00000   0.00000  -0.00004  -0.00007
 129        9PY         0.00000   0.00000   0.00000  -0.00002  -0.00005
 130        9PZ         0.00032   0.00003  -0.00263   0.00075  -0.03129
 131       10PX         0.00000   0.00000   0.00000  -0.00005  -0.00006
 132       10PY         0.00000   0.00000   0.00000  -0.00003  -0.00005
 133       10PZ         0.00097   0.00015   0.00273   0.00308  -0.05226
 134       11PX         0.00000   0.00000   0.00000   0.00000   0.00000
 135       11PY         0.00000   0.00000   0.00000   0.00000   0.00000
 136       11PZ         0.00003   0.00002  -0.00040   0.00263  -0.00873
 137       12D 0       -0.00003   0.00001  -0.00035   0.00447   0.00452
 138       12D+1        0.00000   0.00000   0.00000   0.00001   0.00002
 139       12D-1        0.00000   0.00000   0.00000   0.00001   0.00001
 140       12D+2        0.00000   0.00000   0.00000   0.00000   0.00000
 141       12D-2        0.00000   0.00000   0.00000   0.00000   0.00000
 142       13D 0       -0.00022   0.00000  -0.00163   0.00819   0.00969
 143       13D+1        0.00000   0.00000   0.00000   0.00001   0.00000
 144       13D-1        0.00000   0.00000   0.00000   0.00001   0.00001
 145       13D+2        0.00000   0.00000   0.00000   0.00000   0.00000
 146       13D-2        0.00000   0.00000   0.00000   0.00000   0.00000
 147       14D 0       -0.00014  -0.00004  -0.00184  -0.00019   0.00539
 148       14D+1        0.00000   0.00000   0.00000   0.00001  -0.00002
 149       14D-1        0.00000   0.00000   0.00000   0.00000  -0.00001
 150       14D+2        0.00000   0.00000   0.00000   0.00000   0.00000
 151       14D-2        0.00000   0.00000   0.00000   0.00000   0.00001
 152       15F 0        0.00005   0.00000   0.00023  -0.00180  -0.00191
 153       15F+1        0.00000   0.00000   0.00000   0.00000   0.00000
 154       15F-1        0.00000   0.00000   0.00000   0.00000   0.00000
 155       15F+2        0.00000   0.00000   0.00000   0.00000   0.00000
 156       15F-2        0.00000   0.00000   0.00000   0.00000   0.00000
 157       15F+3        0.00000   0.00000   0.00000   0.00000   0.00000
 158       15F-3       -0.00001   0.00000  -0.00001   0.00002   0.00009
 159       16F 0       -0.00005   0.00001   0.00005  -0.00093  -0.00172
 160       16F+1        0.00000   0.00000   0.00000   0.00001   0.00001
 161       16F-1        0.00000   0.00000   0.00000   0.00000   0.00001
 162       16F+2        0.00000   0.00000   0.00000   0.00000  -0.00001
 163       16F-2        0.00000   0.00000   0.00001   0.00000  -0.00001
 164       16F+3        0.00000   0.00000   0.00000   0.00000   0.00000
 165       16F-3        0.00003   0.00000   0.00002  -0.00001  -0.00021
 166 6   F  1S          0.97742  -0.00002   0.21188   0.01315   0.02169
 167        2S         -0.01503   0.00000  -0.53158  -0.03404  -0.05749
 168        3S          0.04206   0.00000  -0.16469  -0.01081  -0.01859
 169        4S          0.00193  -0.00001  -0.36873  -0.02365  -0.04410
 170        5S         -0.00085  -0.00006  -0.04531   0.00416   0.00766
 171        6PX         0.00000   0.00000  -0.00004   0.00004   0.00046
 172        6PY         0.00000   0.00000  -0.00002   0.00003   0.00029
 173        6PZ         0.00048   0.00000   0.01343   0.01270   0.08783
 174        7PX         0.00000   0.00000  -0.00005   0.00005   0.00055
 175        7PY         0.00000   0.00000  -0.00002   0.00003   0.00035
 176        7PZ        -0.00013   0.00000   0.01465   0.01551   0.10568
 177        8PX         0.00000   0.00000  -0.00005   0.00002   0.00042
 178        8PY         0.00000   0.00000  -0.00002   0.00002   0.00027
 179        8PZ         0.00240  -0.00001   0.01240   0.01221   0.08399
 180        9PX         0.00000   0.00000  -0.00002   0.00001   0.00013
 181        9PY         0.00000   0.00000  -0.00001   0.00001   0.00008
 182        9PZ        -0.00008  -0.00002   0.00217   0.00313   0.02429
 183       10D 0       -0.00002   0.00000  -0.00013   0.00017   0.00060
 184       10D+1        0.00000   0.00000   0.00000   0.00000   0.00000
 185       10D-1        0.00000   0.00000   0.00000   0.00000   0.00000
 186       10D+2        0.00000   0.00000   0.00000   0.00000   0.00000
 187       10D-2        0.00000   0.00000   0.00000   0.00000   0.00000
 188       11D 0       -0.00003   0.00000  -0.00104   0.00090   0.00275
 189       11D+1        0.00000   0.00000   0.00000   0.00000   0.00000
 190       11D-1        0.00000   0.00000   0.00000   0.00000   0.00000
 191       11D+2        0.00000   0.00000   0.00000   0.00000   0.00000
 192       11D-2        0.00000   0.00000   0.00000   0.00000   0.00000
 193       12D 0        0.00080   0.00000  -0.00055   0.00034   0.00386
 194       12D+1        0.00000   0.00000   0.00000  -0.00001  -0.00001
 195       12D-1        0.00000   0.00000   0.00000  -0.00001   0.00000
 196       12D+2        0.00000   0.00000   0.00000   0.00000   0.00000
 197       12D-2        0.00000   0.00000   0.00000   0.00000   0.00000
 198       13F 0       -0.00006   0.00000  -0.00002   0.00013   0.00027
 199       13F+1        0.00000   0.00000   0.00000   0.00000   0.00000
 200       13F-1        0.00000   0.00000   0.00000   0.00000   0.00000
 201       13F+2        0.00000   0.00000   0.00000   0.00000   0.00000
 202       13F-2        0.00000   0.00000   0.00000   0.00000   0.00000
 203       13F+3        0.00000   0.00000   0.00000   0.00000   0.00000
 204       13F-3        0.00001   0.00000   0.00001   0.00002   0.00003
 205       14F 0        0.00020   0.00000  -0.00039  -0.00007   0.00062
 206       14F+1        0.00000   0.00000   0.00000   0.00000  -0.00001
 207       14F-1        0.00000   0.00000   0.00000   0.00000   0.00000
 208       14F+2        0.00000   0.00000   0.00000   0.00000   0.00000
 209       14F-2        0.00000   0.00000   0.00000   0.00000   0.00000
 210       14F+3        0.00000   0.00000   0.00000   0.00000   0.00000
 211       14F-3       -0.00001   0.00000  -0.00007  -0.00006  -0.00009
                          11        12        13        14        15
     Eigenvalues --     1.96437   1.96436   1.95923   1.95918   1.94911
   1 1   C  1S          0.00026   0.00000   0.00000  -0.00017   0.00177
   2        2S         -0.00077   0.00001   0.00000   0.00052  -0.00503
   3        3S         -0.00023   0.00000   0.00000   0.00014  -0.00121
   4        4S          0.00044   0.00000   0.00000  -0.00185  -0.00867
   5        5S          0.00007   0.00000   0.00000  -0.00025  -0.00191
   6        6PX         0.08407  -0.04928  -0.11547   0.20022   0.05884
   7        6PY         0.04902   0.08453   0.20008   0.11555   0.03393
   8        6PZ        -0.00049  -0.00003  -0.00007  -0.00130  -0.00176
   9        7PX         0.11259  -0.06601  -0.15306   0.26537   0.08181
  10        7PY         0.06565   0.11323   0.26521   0.15315   0.04717
  11        7PZ        -0.00061  -0.00004  -0.00009  -0.00169  -0.00252
  12        8PX         0.08268  -0.04831  -0.11812   0.20468   0.06319
  13        8PY         0.04821   0.08288   0.20467   0.11813   0.03643
  14        8PZ        -0.00060  -0.00002  -0.00007  -0.00137  -0.00235
  15        9PX        -0.00192   0.00109  -0.00946   0.01646   0.01065
  16        9PY        -0.00112  -0.00187   0.01639   0.00950   0.00614
  17        9PZ         0.00004   0.00000  -0.00001  -0.00011  -0.00008
  18       10D 0        0.00004   0.00000   0.00000   0.00004   0.00032
  19       10D+1       -0.00240   0.00136   0.00064  -0.00125  -0.00328
  20       10D-1       -0.00139  -0.00233  -0.00109  -0.00072  -0.00189
  21       10D+2        0.00312   0.00539   0.01284   0.00740   0.00251
  22       10D-2        0.00534  -0.00314  -0.00742   0.01281   0.00435
  23       11D 0        0.00006   0.00001   0.00000   0.00019   0.00158
  24       11D+1       -0.01122   0.00640  -0.00383   0.00610  -0.01357
  25       11D-1       -0.00654  -0.01096   0.00666   0.00353  -0.00782
  26       11D+2        0.01038   0.01777   0.03926   0.02260   0.00855
  27       11D-2        0.01779  -0.01036  -0.02268   0.03914   0.01481
  28       12D 0        0.00012   0.00000   0.00000   0.00008   0.00079
  29       12D+1       -0.00529   0.00306  -0.00292   0.00455   0.00096
  30       12D-1       -0.00308  -0.00524   0.00507   0.00263   0.00056
  31       12D+2        0.01019   0.01728   0.03115   0.01787   0.00511
  32       12D-2        0.01746  -0.01008  -0.01800   0.03094   0.00886
  33       13F 0        0.00001   0.00000   0.00000   0.00004  -0.00005
  34       13F+1        0.00023  -0.00013   0.00100  -0.00173  -0.00193
  35       13F-1        0.00013   0.00022  -0.00174  -0.00100  -0.00111
  36       13F+2       -0.00033  -0.00055  -0.00010  -0.00008  -0.00017
  37       13F-2       -0.00057   0.00032   0.00006  -0.00015  -0.00030
  38       13F+3        0.00000  -0.00001   0.00000   0.00000   0.00000
  39       13F-3        0.00000   0.00000   0.00000  -0.00001  -0.00010
  40       14F 0       -0.00005   0.00000   0.00000   0.00002  -0.00013
  41       14F+1        0.00041  -0.00019   0.00291  -0.00503  -0.00626
  42       14F-1        0.00024   0.00032  -0.00505  -0.00290  -0.00361
  43       14F+2       -0.00200  -0.00332  -0.00014  -0.00018  -0.00165
  44       14F-2       -0.00343   0.00194   0.00008  -0.00031  -0.00286
  45       14F+3        0.00000  -0.00003   0.00001   0.00000   0.00000
  46       14F-3        0.00008   0.00000   0.00000  -0.00015  -0.00046
  47 2   H  1S         -0.03389  -0.05815  -0.13126  -0.07571  -0.02447
  48        2S         -0.03077  -0.05253  -0.13375  -0.07688  -0.02322
  49        3S          0.02899   0.04987   0.10319   0.05966   0.00338
  50        4S         -0.00294  -0.00498   0.01504   0.00871   0.00058
  51        5PX         0.00180  -0.00105  -0.00219   0.00379   0.00092
  52        5PY        -0.00266  -0.00456  -0.01073  -0.00618  -0.00187
  53        5PZ         0.00001   0.00003  -0.00242  -0.00142   0.00000
  54        6PX         0.00695  -0.00406  -0.00681   0.01181   0.00325
  55        6PY         0.00357   0.00620   0.00974   0.00569   0.00296
  56        6PZ        -0.00149  -0.00239   0.00034   0.00008  -0.00065
  57        7PX         0.00807  -0.00464  -0.00667   0.01143   0.00250
  58        7PY         0.00697   0.01211   0.03948   0.02287   0.00520
  59        7PZ         0.00035   0.00055   0.00665   0.00371   0.00170
  60        8D 0        0.00021   0.00035   0.00118   0.00067   0.00021
  61        8D+1        0.00001  -0.00001  -0.00016   0.00027  -0.00003
  62        8D-1       -0.00038  -0.00064  -0.00021  -0.00013  -0.00016
  63        8D+2        0.00031   0.00052   0.00166   0.00096   0.00028
  64        8D-2        0.00091  -0.00053  -0.00112   0.00194   0.00052
  65        9D 0       -0.00029  -0.00047   0.00126   0.00074  -0.00004
  66        9D+1       -0.00134   0.00077  -0.00048   0.00083  -0.00102
  67        9D-1       -0.00170  -0.00288   0.00297   0.00169  -0.00018
  68        9D+2       -0.00080  -0.00139  -0.00231  -0.00133  -0.00051
  69        9D-2        0.00143  -0.00083  -0.00144   0.00248   0.00098
  70 3   H  1S         -0.03338   0.05844   0.13125  -0.07573  -0.02451
  71        2S         -0.03031   0.05280   0.13374  -0.07689  -0.02325
  72        3S          0.02855  -0.05012  -0.10318   0.05966   0.00339
  73        4S         -0.00289   0.00500  -0.01504   0.00872   0.00058
  74        5PX        -0.00137   0.00449   0.01038  -0.00345  -0.00116
  75        5PY         0.00287  -0.00140  -0.00347   0.00637   0.00173
  76        5PZ         0.00001  -0.00002   0.00242  -0.00142   0.00000
  77        6PX         0.00654  -0.00339  -0.00502   0.01083   0.00419
  78        6PY         0.00429   0.00658   0.01077   0.00738   0.00133
  79        6PZ        -0.00147   0.00240  -0.00034   0.00008  -0.00065
  80        7PX         0.01000  -0.00825  -0.03085   0.02552   0.00576
  81        7PY         0.00359   0.01005   0.02553  -0.00154  -0.00044
  82        7PZ         0.00035  -0.00056  -0.00668   0.00372   0.00170
  83        8D 0        0.00020  -0.00036  -0.00118   0.00067   0.00021
  84        8D+1       -0.00032   0.00057   0.00026   0.00002  -0.00015
  85        8D-1        0.00020  -0.00032   0.00003   0.00030   0.00005
  86        8D+2        0.00064   0.00071   0.00180   0.00121   0.00031
  87        8D-2        0.00072  -0.00019  -0.00088   0.00180   0.00050
  88        9D 0       -0.00029   0.00047  -0.00127   0.00074  -0.00004
  89        9D+1       -0.00212   0.00212  -0.00233   0.00188  -0.00066
  90        9D-1       -0.00033  -0.00210   0.00190  -0.00012  -0.00080
  91        9D+2        0.00164   0.00001   0.00009   0.00281   0.00111
  92        9D-2        0.00003   0.00161   0.00272   0.00009   0.00005
  93 4   H  1S          0.06694  -0.00029   0.00001   0.15153   0.04579
  94        2S          0.06023  -0.00026   0.00001   0.15535   0.04589
  95        3S         -0.05799   0.00025  -0.00001  -0.11792  -0.00515
  96        4S          0.00579  -0.00003   0.00000  -0.01739  -0.00116
  97        5PX        -0.00452  -0.00103  -0.00218  -0.01072  -0.00305
  98        5PY        -0.00260   0.00182   0.00377  -0.00619  -0.00176
  99        5PZ         0.00002   0.00000   0.00000   0.00294  -0.00021
 100        6PX         0.00623  -0.00403  -0.00680   0.00959   0.00477
 101        6PY         0.00364   0.00692   0.01179   0.00553   0.00275
 102        6PZ         0.00269  -0.00001   0.00000  -0.00024   0.00115
 103        7PX         0.01210  -0.00465  -0.00668   0.03932   0.00825
 104        7PY         0.00703   0.00794   0.01157   0.02269   0.00476
 105        7PZ        -0.00104   0.00000   0.00000  -0.00790  -0.00281
 106        8D 0       -0.00040   0.00000   0.00000  -0.00137  -0.00039
 107        8D+1       -0.00066  -0.00001  -0.00017  -0.00027  -0.00026
 108        8D-1       -0.00038   0.00003   0.00029  -0.00015  -0.00015
 109        8D+2        0.00030   0.00090   0.00194   0.00096   0.00025
 110        8D-2        0.00051  -0.00052  -0.00112   0.00167   0.00044
 111        9D 0        0.00051   0.00000   0.00000  -0.00149   0.00023
 112        9D+1       -0.00286   0.00077  -0.00051   0.00300  -0.00043
 113        9D-1       -0.00166  -0.00130   0.00089   0.00173  -0.00025
 114        9D+2       -0.00079   0.00141   0.00250  -0.00134  -0.00055
 115        9D-2       -0.00139  -0.00081  -0.00145  -0.00231  -0.00096
 116 5   Cl 1S          0.00009   0.00000   0.00000   0.00009   0.00034
 117        2S         -0.00036   0.00000   0.00000  -0.00034  -0.00132
 118        3S          0.00075  -0.00001   0.00000   0.00068   0.00272
 119        4S          0.00010   0.00000   0.00000   0.00010   0.00042
 120        5S          0.00058   0.00000   0.00000   0.00075   0.00240
 121        6S          0.00004   0.00000   0.00000   0.00016   0.00080
 122        7PX        -0.00753   0.00444   0.02182  -0.03792   0.19358
 123        7PY        -0.00439  -0.00761  -0.03780  -0.02188   0.11162
 124        7PZ        -0.00006   0.00000   0.00001  -0.00008   0.00093
 125        8PX         0.01784  -0.01051  -0.05156   0.08961  -0.44287
 126        8PY         0.01040   0.01803   0.08934   0.05171  -0.25536
 127        8PZ         0.00010  -0.00001  -0.00003   0.00013  -0.00218
 128        9PX         0.00827  -0.00488  -0.02385   0.04144  -0.21394
 129        9PY         0.00482   0.00836   0.04132   0.02392  -0.12336
 130        9PZ         0.00006   0.00000  -0.00001   0.00009  -0.00109
 131       10PX         0.00885  -0.00524  -0.02790   0.04859  -0.31824
 132       10PY         0.00516   0.00899   0.04834   0.02804  -0.18350
 133       10PZ        -0.00005   0.00000  -0.00002  -0.00020  -0.00252
 134       11PX         0.00185  -0.00107  -0.00170   0.00296  -0.05374
 135       11PY         0.00108   0.00183   0.00295   0.00171  -0.03099
 136       11PZ        -0.00003   0.00000   0.00000  -0.00008  -0.00085
 137       12D 0       -0.00003   0.00000   0.00000  -0.00005  -0.00018
 138       12D+1       -0.00161   0.00095   0.00309  -0.00534   0.00020
 139       12D-1       -0.00094  -0.00163  -0.00535  -0.00308   0.00011
 140       12D+2        0.00005   0.00010   0.00047   0.00027   0.00012
 141       12D-2        0.00009  -0.00006  -0.00027   0.00046   0.00021
 142       13D 0       -0.00002   0.00000   0.00001  -0.00002  -0.00029
 143       13D+1       -0.00248   0.00146   0.00548  -0.00951   0.00058
 144       13D-1       -0.00145  -0.00251  -0.00949  -0.00549   0.00034
 145       13D+2        0.00016   0.00028   0.00057   0.00032   0.00029
 146       13D-2        0.00028  -0.00016  -0.00033   0.00056   0.00050
 147       14D 0        0.00000   0.00000   0.00000   0.00004   0.00000
 148       14D+1        0.00009  -0.00003  -0.00003   0.00004   0.00289
 149       14D-1        0.00005   0.00006   0.00005   0.00002   0.00166
 150       14D+2       -0.00033  -0.00057  -0.00006  -0.00005   0.00004
 151       14D-2       -0.00057   0.00033   0.00003  -0.00008   0.00008
 152       15F 0        0.00001   0.00000   0.00000   0.00001   0.00003
 153       15F+1        0.00076  -0.00045  -0.00131   0.00228  -0.00122
 154       15F-1        0.00044   0.00076   0.00228   0.00131  -0.00070
 155       15F+2       -0.00006  -0.00010  -0.00029  -0.00017  -0.00005
 156       15F-2       -0.00009   0.00006   0.00017  -0.00029  -0.00009
 157       15F+3        0.00000   0.00000   0.00000   0.00000   0.00000
 158       15F-3        0.00000   0.00000   0.00000   0.00000   0.00000
 159       16F 0        0.00000   0.00000   0.00000  -0.00001   0.00005
 160       16F+1        0.00050  -0.00030  -0.00100   0.00176  -0.00155
 161       16F-1        0.00029   0.00051   0.00174   0.00102  -0.00090
 162       16F+2        0.00000   0.00001   0.00016   0.00009  -0.00010
 163       16F-2        0.00001  -0.00001  -0.00009   0.00015  -0.00018
 164       16F+3        0.00000   0.00000   0.00000   0.00000   0.00000
 165       16F-3        0.00000   0.00000   0.00000  -0.00001   0.00001
 166 6   F  1S          0.00005   0.00000   0.00000   0.00014  -0.00033
 167        2S         -0.00012   0.00000   0.00000  -0.00037   0.00073
 168        3S         -0.00004   0.00000   0.00000  -0.00013   0.00022
 169        4S         -0.00020   0.00000   0.00000  -0.00040   0.00043
 170        5S         -0.00008   0.00000   0.00000  -0.00019   0.00012
 171        6PX         0.28719  -0.16731   0.08096  -0.13983  -0.01975
 172        6PY         0.16743   0.28696  -0.14029  -0.08070  -0.01138
 173        6PZ         0.00059  -0.00011   0.00005   0.00097   0.01087
 174        7PX         0.34258  -0.19958   0.09600  -0.16580  -0.02337
 175        7PY         0.19973   0.34231  -0.16635  -0.09569  -0.01347
 176        7PZ         0.00070  -0.00013   0.00006   0.00117   0.01297
 177        8PX         0.27699  -0.16137   0.08076  -0.13956  -0.02005
 178        8PY         0.16149   0.27678  -0.13994  -0.08054  -0.01156
 179        8PZ         0.00049  -0.00010   0.00005   0.00085   0.01065
 180        9PX         0.08709  -0.05074   0.02850  -0.04930  -0.00975
 181        9PY         0.05078   0.08703  -0.04938  -0.02845  -0.00562
 182        9PZ         0.00013  -0.00003   0.00002   0.00017   0.00331
 183       10D 0        0.00000   0.00000   0.00000   0.00001   0.00003
 184       10D+1        0.00052  -0.00030  -0.00005   0.00008   0.00010
 185       10D-1        0.00030   0.00052   0.00008   0.00005   0.00006
 186       10D+2        0.00001   0.00002   0.00003   0.00002   0.00001
 187       10D-2        0.00002  -0.00001  -0.00002   0.00003   0.00001
 188       11D 0       -0.00001   0.00000   0.00000   0.00002   0.00006
 189       11D+1        0.00209  -0.00122  -0.00061   0.00106   0.00052
 190       11D-1        0.00122   0.00209   0.00106   0.00061   0.00030
 191       11D+2        0.00003   0.00004   0.00022   0.00013   0.00009
 192       11D-2        0.00004  -0.00002  -0.00013   0.00022   0.00015
 193       12D 0       -0.00001   0.00000   0.00000   0.00003   0.00030
 194       12D+1        0.00514  -0.00299   0.00178  -0.00310   0.00025
 195       12D-1        0.00299   0.00513  -0.00309  -0.00179   0.00015
 196       12D+2        0.00003   0.00001  -0.00023  -0.00014  -0.00018
 197       12D-2        0.00005  -0.00001   0.00014  -0.00025  -0.00032
 198       13F 0        0.00000   0.00000   0.00000   0.00000   0.00001
 199       13F+1        0.00019  -0.00011  -0.00013   0.00022   0.00005
 200       13F-1        0.00011   0.00019   0.00022   0.00013   0.00003
 201       13F+2        0.00003   0.00005   0.00010   0.00006   0.00003
 202       13F-2        0.00005  -0.00003  -0.00006   0.00010   0.00006
 203       13F+3        0.00000   0.00000   0.00000   0.00000   0.00000
 204       13F-3        0.00000   0.00000   0.00000   0.00000   0.00000
 205       14F 0       -0.00001   0.00000   0.00000   0.00000   0.00005
 206       14F+1        0.00125  -0.00073   0.00044  -0.00076   0.00000
 207       14F-1        0.00073   0.00126  -0.00076  -0.00044   0.00000
 208       14F+2       -0.00006  -0.00012  -0.00021  -0.00012  -0.00008
 209       14F-2       -0.00011   0.00007   0.00012  -0.00021  -0.00014
 210       14F+3        0.00000   0.00000   0.00000   0.00000   0.00000
 211       14F-3        0.00000   0.00000   0.00000   0.00000   0.00000
                          16        17        18        19        20
     Eigenvalues --     1.94911   1.94881   1.93534   0.06020   0.02497
   1 1   C  1S         -0.00001   0.05355  -0.01548  -0.02464  -0.00132
   2        2S          0.00002  -0.15249   0.05009   0.06870   0.00501
   3        3S          0.00000  -0.03603   0.01655   0.02516   0.00283
   4        4S          0.00003  -0.29058   0.08569  -0.22476  -0.01160
   5        5S          0.00001  -0.05712   0.03910  -0.03025  -0.00226
   6        6PX        -0.03399  -0.00279  -0.00079   0.00144   0.13731
   7        6PY         0.05895  -0.00161  -0.00050   0.00093   0.07953
   8        6PZ        -0.00001  -0.04541  -0.12884   0.27919  -0.00102
   9        7PX        -0.04723  -0.00377  -0.00109   0.00195   0.25506
  10        7PY         0.08191  -0.00218  -0.00069   0.00127   0.14773
  11        7PZ        -0.00002  -0.06435  -0.18077   0.44303  -0.00178
  12        8PX        -0.03634  -0.00245  -0.00096   0.00087   0.11486
  13        8PY         0.06303  -0.00142  -0.00058   0.00057   0.06653
  14        8PZ        -0.00001  -0.06401  -0.07655   0.20210  -0.00081
  15        9PX        -0.00612  -0.00040  -0.00013   0.00019   0.02575
  16        9PY         0.01061  -0.00023  -0.00008   0.00011   0.01492
  17        9PZ         0.00000  -0.00120  -0.00165  -0.00016  -0.00035
  18       10D 0        0.00000   0.00935  -0.01105  -0.00886  -0.00014
  19       10D+1        0.00186   0.00016  -0.00004  -0.00001   0.02205
  20       10D-1       -0.00323   0.00010  -0.00003  -0.00001   0.01277
  21       10D+2        0.00436  -0.00010  -0.00001  -0.00003   0.00182
  22       10D-2       -0.00251  -0.00018  -0.00002  -0.00006   0.00315
  23       11D 0        0.00000   0.04965  -0.04566   0.06723   0.00159
  24       11D+1        0.00773   0.00050  -0.00014   0.00031   0.05098
  25       11D-1       -0.01339   0.00032  -0.00011   0.00021   0.02956
  26       11D+2        0.01481  -0.00024  -0.00005  -0.00018   0.03531
  27       11D-2       -0.00854  -0.00042  -0.00009  -0.00031   0.06094
  28       12D 0        0.00000   0.02840  -0.00366  -0.01763  -0.00039
  29       12D+1       -0.00063   0.00010  -0.00002  -0.00003   0.01586
  30       12D-1        0.00110   0.00007  -0.00001  -0.00003   0.00919
  31       12D+2        0.00883  -0.00003  -0.00006  -0.00008   0.00724
  32       12D-2       -0.00510  -0.00005  -0.00010  -0.00013   0.01250
  33       13F 0        0.00000  -0.00209  -0.00328  -0.00582   0.00013
  34       13F+1        0.00112   0.00006   0.00000  -0.00007  -0.00845
  35       13F-1       -0.00193   0.00004   0.00000  -0.00005  -0.00489
  36       13F+2       -0.00028   0.00001   0.00000   0.00000   0.00156
  37       13F-2        0.00016   0.00001   0.00000  -0.00001   0.00269
  38       13F+3        0.00000   0.00000   0.00000   0.00000   0.00000
  39       13F-3        0.00000  -0.00308   0.00114  -0.00054  -0.00005
  40       14F 0        0.00001  -0.00555  -0.00086   0.01179   0.00032
  41       14F+1        0.00363   0.00026  -0.00002  -0.00005  -0.00245
  42       14F-1       -0.00629   0.00014  -0.00001  -0.00002  -0.00142
  43       14F+2       -0.00283   0.00005  -0.00003   0.00012  -0.00129
  44       14F-2        0.00164   0.00008  -0.00004   0.00018  -0.00222
  45       14F+3       -0.00003  -0.00001   0.00000  -0.00001   0.00000
  46       14F-3        0.00000  -0.01486   0.00914  -0.03831  -0.00142
  47 2   H  1S         -0.04056  -0.03283   0.02896  -0.00708   0.02011
  48        2S         -0.03993  -0.00246   0.02305   0.08057   0.13364
  49        3S          0.00476   0.02193   0.02042   0.06906   0.08510
  50        4S          0.00094   0.00007   0.00189   0.00731   0.03639
  51        5PX        -0.00053  -0.00005  -0.00002   0.00008   0.00260
  52        5PY        -0.00312  -0.00208   0.00249  -0.00201  -0.00436
  53        5PZ         0.00016  -0.00267  -0.00321   0.01427  -0.00616
  54        6PX        -0.00189  -0.00010  -0.00006  -0.00003   0.00667
  55        6PY         0.00486   0.00536  -0.00155   0.00990   0.03070
  56        6PZ        -0.00102  -0.00105  -0.01030   0.02841  -0.00260
  57        7PX        -0.00145   0.00009  -0.00004  -0.00018  -0.00170
  58        7PY         0.00845   0.01084  -0.00164   0.01284   0.02605
  59        7PZ         0.00260   0.00807   0.00320  -0.01404   0.00263
  60        8D 0        0.00035   0.00014  -0.00085   0.00060   0.00128
  61        8D+1        0.00002   0.00000   0.00000   0.00000   0.00158
  62        8D-1       -0.00025  -0.00020  -0.00171   0.00674  -0.00199
  63        8D+2        0.00045   0.00052  -0.00061   0.00187   0.00126
  64        8D-2       -0.00030  -0.00002  -0.00001   0.00003   0.00191
  65        9D 0       -0.00013   0.00077  -0.00283   0.00615  -0.00145
  66        9D+1        0.00060   0.00003  -0.00002   0.00003   0.00379
  67        9D-1       -0.00040   0.00201  -0.00055  -0.00583   0.00781
  68        9D+2       -0.00093   0.00111   0.00036  -0.00116  -0.00493
  69        9D-2       -0.00057  -0.00001  -0.00001  -0.00008   0.00091
  70 3   H  1S          0.04054  -0.03282   0.02896  -0.00708   0.02000
  71        2S          0.03991  -0.00244   0.02305   0.08057   0.13294
  72        3S         -0.00476   0.02193   0.02042   0.06905   0.08466
  73        4S         -0.00094   0.00007   0.00189   0.00731   0.03620
  74        5PX         0.00297  -0.00182   0.00215  -0.00170  -0.00245
  75        5PY        -0.00110   0.00099  -0.00126   0.00108   0.00442
  76        5PZ        -0.00015  -0.00267  -0.00321   0.01427  -0.00613
  77        6PX        -0.00326   0.00459  -0.00137   0.00855   0.02979
  78        6PY         0.00407  -0.00277   0.00072  -0.00496  -0.00949
  79        6PZ         0.00102  -0.00105  -0.01030   0.02841  -0.00258
  80        7PX        -0.00659   0.00942  -0.00144   0.01104   0.02159
  81        7PY         0.00548  -0.00534   0.00079  -0.00658  -0.01443
  82        7PZ        -0.00260   0.00807   0.00319  -0.01403   0.00263
  83        8D 0       -0.00035   0.00014  -0.00085   0.00061   0.00127
  84        8D+1        0.00021  -0.00017  -0.00148   0.00583  -0.00093
  85        8D-1       -0.00014   0.00010   0.00085  -0.00337   0.00237
  86        8D+2        0.00049  -0.00028   0.00030  -0.00091   0.00103
  87        8D-2       -0.00024   0.00044  -0.00053   0.00164   0.00204
  88        9D 0        0.00013   0.00078  -0.00283   0.00614  -0.00143
  89        9D+1        0.00004   0.00176  -0.00048  -0.00504   0.00863
  90        9D-1       -0.00072  -0.00098   0.00026   0.00295  -0.00060
  91        9D+2        0.00003  -0.00056  -0.00019   0.00051   0.00324
  92        9D-2        0.00109   0.00096   0.00031  -0.00104  -0.00378
  93 4   H  1S          0.00002  -0.03572   0.02874  -0.00797  -0.04455
  94        2S          0.00002  -0.00598   0.02287   0.08010  -0.26524
  95        3S         -0.00001   0.02083   0.02071   0.07031  -0.16380
  96        4S          0.00000   0.00008   0.00198   0.00742  -0.07220
  97        5PX        -0.00053   0.00198  -0.00218   0.00193  -0.00766
  98        5PY         0.00092   0.00114  -0.00126   0.00112  -0.00441
  99        5PZ         0.00000  -0.00271  -0.00315   0.01424   0.01230
 100        6PX        -0.00188  -0.00484   0.00121  -0.00862   0.05219
 101        6PY         0.00326  -0.00279   0.00069  -0.00497   0.03014
 102        6PZ         0.00000  -0.00081  -0.01029   0.02889   0.00497
 103        7PX        -0.00145  -0.00977   0.00129  -0.01142   0.04339
 104        7PY         0.00253  -0.00564   0.00075  -0.00659   0.02504
 105        7PZ         0.00000   0.00834   0.00311  -0.01364  -0.00569
 106        8D 0        0.00000   0.00014  -0.00086   0.00080  -0.00250
 107        8D+1        0.00001   0.00016   0.00146  -0.00583  -0.00349
 108        8D-1       -0.00002   0.00009   0.00084  -0.00337  -0.00201
 109        8D+2        0.00052  -0.00027   0.00031  -0.00095   0.00132
 110        8D-2       -0.00030  -0.00048   0.00054  -0.00165   0.00227
 111        9D 0        0.00000   0.00076  -0.00283   0.00625   0.00396
 112        9D+1        0.00059  -0.00180   0.00049   0.00503   0.01378
 113        9D-1       -0.00102  -0.00104   0.00028   0.00291   0.00796
 114        9D+2        0.00098  -0.00053  -0.00017   0.00064  -0.00488
 115        9D-2       -0.00057  -0.00093  -0.00030   0.00112  -0.00844
 116 5   Cl 1S          0.00000   0.01022   0.00052  -0.01681   0.00000
 117        2S          0.00000  -0.03899  -0.00176   0.05632  -0.00004
 118        3S         -0.00001   0.08064   0.01145  -0.15699  -0.00014
 119        4S          0.00000   0.01244   0.00456  -0.03986   0.00003
 120        5S         -0.00001   0.06889   0.01236  -0.04572   0.00063
 121        6S          0.00000   0.02020  -0.01251   0.01624   0.00077
 122        7PX        -0.11169  -0.00600   0.00009   0.00020   0.01836
 123        7PY         0.19370  -0.00342  -0.00002   0.00006   0.01063
 124        7PZ        -0.00007   0.02655  -0.21009  -0.16359  -0.00025
 125        8PX         0.25552   0.01370  -0.00018  -0.00040  -0.02858
 126        8PY        -0.44314   0.00782   0.00005  -0.00011  -0.01655
 127        8PZ         0.00015  -0.06199   0.46454   0.36115   0.00049
 128        9PX         0.12343   0.00664  -0.00008  -0.00025  -0.03051
 129        9PY        -0.21407   0.00379   0.00003  -0.00008  -0.01767
 130        9PZ         0.00007  -0.03093   0.21824   0.20667   0.00037
 131       10PX         0.18363   0.00988  -0.00002  -0.00005   0.01479
 132       10PY        -0.31847   0.00563   0.00009  -0.00002   0.00857
 133       10PZ         0.00011  -0.07192   0.31756   0.02929  -0.00075
 134       11PX         0.03101   0.00171   0.00004  -0.00012   0.00512
 135       11PY        -0.05378   0.00097   0.00004  -0.00006   0.00297
 136       11PZ         0.00002  -0.02392   0.04608   0.00726  -0.00029
 137       12D 0        0.00000  -0.00472  -0.01243   0.06754   0.00065
 138       12D+1       -0.00011   0.00001   0.00004  -0.00009  -0.05019
 139       12D-1        0.00018   0.00000   0.00001  -0.00001  -0.02907
 140       12D+2        0.00021   0.00000   0.00000   0.00000   0.00036
 141       12D-2       -0.00012  -0.00001   0.00000  -0.00001   0.00059
 142       13D 0        0.00000  -0.00754  -0.01946   0.09797   0.00095
 143       13D+1       -0.00033   0.00004   0.00005  -0.00022  -0.07503
 144       13D-1        0.00057   0.00002   0.00002  -0.00007  -0.04346
 145       13D+2        0.00047  -0.00001   0.00000   0.00000   0.00058
 146       13D-2       -0.00027  -0.00002   0.00000   0.00000   0.00095
 147       14D 0        0.00000   0.00151  -0.01322   0.03016   0.00021
 148       14D+1       -0.00166  -0.00007  -0.00001  -0.00002  -0.00816
 149       14D-1        0.00288  -0.00004  -0.00001   0.00001  -0.00472
 150       14D+2        0.00004   0.00000   0.00000  -0.00001   0.00011
 151       14D-2       -0.00002   0.00000   0.00001  -0.00001   0.00018
 152       15F 0        0.00000   0.00099   0.00461  -0.00358  -0.00005
 153       15F+1        0.00070   0.00003  -0.00001   0.00000   0.00434
 154       15F-1       -0.00122   0.00002   0.00000   0.00000   0.00251
 155       15F+2       -0.00009   0.00000   0.00000   0.00000  -0.00011
 156       15F-2        0.00005   0.00001   0.00000   0.00001  -0.00018
 157       15F+3        0.00000   0.00000   0.00000   0.00000   0.00000
 158       15F-3        0.00000  -0.00007   0.00004   0.00004   0.00000
 159       16F 0        0.00000   0.00136   0.00401   0.00167   0.00002
 160       16F+1        0.00090   0.00003   0.00000   0.00005   0.00026
 161       16F-1       -0.00155   0.00002   0.00000   0.00003   0.00015
[...]
  80        7PX         2.76617  -8.33864   4.42869  -1.81010  -1.72403
  81        7PY         0.55737  -5.64801  -8.70454   0.95738   4.47064
  82        7PZ        -1.16756  -1.91266   3.00993   0.00010  -0.40434
  83        8D 0       -0.03702  -0.00361  -0.00880   0.02735   0.00888
  84        8D+1        0.01607  -0.02675   0.00746   0.00818   0.00397
  85        8D-1       -0.00065  -0.02585  -0.02853  -0.00464  -0.00816
  86        8D+2        0.04368   0.09973   0.05356   0.02213  -0.03179
  87        8D-2       -0.11766   0.02950   0.02625  -0.03773   0.00517
  88        9D 0       -0.52267   0.12238  -0.40290  -0.13298   0.13856
  89        9D+1       -0.24083   0.04388   0.25522  -0.04160  -0.07767
  90        9D-1        0.05557   0.35261   0.08192   0.02249   0.13833
  91        9D+2        0.22356  -1.72117  -0.21419  -0.36622   0.35787
  92        9D-2        0.24602  -0.17167  -1.46226   0.61054   0.36268
  93 4   H  1S         -0.03446  -0.01943   0.00001  -0.01022  -0.02581
  94        2S         -0.35911   3.48589   0.00121  -0.40868   2.20260
  95        3S          1.83234  28.88196   0.00698  -2.73162  25.94633
  96        4S          1.93076  -1.49262  -0.00126  -1.91271  11.14741
  97        5PX        -0.04455   0.08518  -0.05459  -0.07855   0.10275
  98        5PY        -0.02563   0.04914   0.09467  -0.04533   0.05927
  99        5PZ         0.05704   0.02107  -0.00005   0.03020  -0.01187
 100        6PX        -0.17328  -2.16387   0.74693   0.58016  -1.14520
 101        6PY        -0.10093  -1.24852  -1.29529   0.33486  -0.66066
 102        6PZ        -0.32850  -0.01626   0.00056  -0.15755   0.18231
 103        7PX         0.55784  -8.26431   5.32940   1.60396  -6.48335
 104        7PY         0.31513  -4.76586  -9.23897   0.92622  -3.73981
 105        7PZ        -2.17414   3.04843   0.00487   0.06443   0.88421
 106        8D 0       -0.03406  -0.01767   0.00003   0.02544  -0.01798
 107        8D+1       -0.00833  -0.02427   0.02059  -0.00759   0.01364
 108        8D-1       -0.00481  -0.01399  -0.03561  -0.00435   0.00787
 109        8D+2        0.06309   0.01808   0.10253   0.02357   0.01929
 110        8D-2        0.10910   0.03135  -0.05927   0.04081   0.03343
 111        9D 0       -0.39117  -0.57149  -0.00014  -0.13756  -0.26525
 112        9D+1        0.25292  -0.13358  -0.18319   0.03535  -0.24769
 113        9D-1        0.14579  -0.07713   0.31600   0.02009  -0.14296
 114        9D+2       -0.24959   0.63498  -1.59853  -0.34683   0.14433
 115        9D-2       -0.43013   1.09809   0.92397  -0.60046   0.24914
 116 5   Cl 1S          0.01986   0.00420  -0.00001   0.01156  -0.00008
 117        2S          0.27450   0.05862  -0.00012   0.16017  -0.00116
 118        3S          0.76587   0.16233  -0.00033   0.45134  -0.00304
 119        4S         -0.04067  -0.01032   0.00002  -0.01250   0.00042
 120        5S         -4.25763  -0.89925   0.00184  -2.97883   0.02946
 121        6S         -9.71824  -1.86570   0.00383 -13.26567   0.04696
 122        7PX         0.00011   0.00049  -0.00021   0.00010   0.00270
 123        7PY         0.00006   0.00028   0.00037   0.00005   0.00156
 124        7PZ        -0.00488  -0.00056   0.00000  -0.02303   0.00009
 125        8PX         0.00010   0.01251  -0.00650   0.00177   0.05264
 126        8PY         0.00003   0.00721   0.01127   0.00091   0.03042
 127        8PZ        -0.06959  -0.00742   0.00001  -0.32212   0.00073
 128        9PX        -0.00027  -0.00268   0.00128  -0.00037  -0.00911
 129        9PY        -0.00015  -0.00154  -0.00223  -0.00019  -0.00526
 130        9PZ         0.00324  -0.00101   0.00000   0.08075  -0.00042
 131       10PX        -0.00621  -0.02902   0.01169  -0.00856  -0.37089
 132       10PY        -0.00161  -0.01634  -0.02025  -0.00326  -0.21432
 133       10PZ         5.82265   1.16929  -0.00240   5.06858  -0.02220
 134       11PX         0.19804  -0.96775   0.57567  -0.00788   0.21947
 135       11PY         0.11393  -0.55814  -0.99815  -0.00340   0.12682
 136       11PZ         0.80050   0.13219   0.00008   3.36860  -0.00513
 137       12D 0        0.06665   0.01377  -0.00004   0.00154   0.00009
 138       12D+1       -0.00518   0.02621  -0.01570   0.00032   0.00315
 139       12D-1       -0.00293   0.01512   0.02722   0.00018   0.00182
 140       12D+2        0.00084  -0.00406  -0.00715  -0.00005  -0.00609
 141       12D-2        0.00147  -0.00701   0.00411  -0.00009  -0.01052
 142       13D 0       -0.37953  -0.07875   0.00022  -0.06854  -0.00016
 143       13D+1        0.01857  -0.09649   0.05730  -0.00152  -0.02193
 144       13D-1        0.01043  -0.05570  -0.09934  -0.00091  -0.01265
 145       13D+2       -0.00185   0.00918   0.01650   0.00017   0.02190
 146       13D-2       -0.00323   0.01582  -0.00949   0.00030   0.03786
 147       14D 0       -1.37553  -0.27249   0.00042  -1.24358  -0.00055
 148       14D+1       -0.04339   0.24342  -0.14434   0.00862   0.28344
 149       14D-1       -0.02568   0.14022   0.25022   0.00426   0.16371
 150       14D+2        0.00518  -0.02857  -0.05197  -0.00012  -0.10086
 151       14D-2        0.00901  -0.04935   0.02992  -0.00020  -0.17421
 152       15F 0       -0.04214  -0.00843   0.00001   0.00119  -0.00044
 153       15F+1       -0.00051   0.00309  -0.00158   0.00040   0.01591
 154       15F-1       -0.00032   0.00177   0.00274   0.00023   0.00919
 155       15F+2        0.00069  -0.00419  -0.00774  -0.00001  -0.00523
 156       15F-2        0.00119  -0.00726   0.00447   0.00000  -0.00903
 157       15F+3        0.00000   0.00000  -0.00070   0.00001   0.00000
 158       15F-3       -0.00910  -0.00132   0.00000   0.02259   0.00029
 159       16F 0        0.22942   0.04560  -0.00009   0.08923   0.00161
 160       16F+1        0.00182  -0.00898   0.00539  -0.00167  -0.05468
 161       16F-1        0.00122  -0.00512  -0.00930  -0.00089  -0.03157
 162       16F+2       -0.00401   0.02095   0.03742   0.00008   0.02142
 163       16F-2       -0.00696   0.03630  -0.02160   0.00011   0.03698
 164       16F+3        0.00001  -0.00001   0.00157  -0.00002  -0.00002
 165       16F-3        0.01892   0.00269   0.00000  -0.04209  -0.00060
 166 6   F  1S          0.03840   0.00848  -0.00002  -0.02341  -0.00018
 167        2S          0.13438   0.03004  -0.00006  -0.08925  -0.00087
 168        3S         -0.06953  -0.01501   0.00003   0.03752   0.00010
 169        4S         -0.35728  -0.08565   0.00018  -0.00742   0.00441
 170        5S         -0.06786   0.00034  -0.00004  -5.90914   0.04435
 171        6PX         0.00136  -0.00618   0.00375  -0.00005  -0.00144
 172        6PY         0.00078  -0.00356  -0.00649  -0.00003  -0.00083
 173        6PZ         0.00538   0.00108   0.00000   0.00229   0.00004
 174        7PX        -0.00701   0.03171  -0.01929  -0.00001   0.00526
 175        7PY        -0.00405   0.01829   0.03345   0.00000   0.00304
 176        7PZ        -0.06287  -0.01308   0.00002   0.00231  -0.00034
 177        8PX         0.04842  -0.22023   0.13363   0.00145  -0.00131
 178        8PY         0.02801  -0.12698  -0.23169   0.00074  -0.00076
 179        8PZ         0.62332   0.12946  -0.00020  -0.24111   0.00617
 180        9PX         0.14125  -0.69462   0.40900   0.00213   0.19603
 181        9PY         0.08082  -0.40070  -0.70918   0.00035   0.11328
 182        9PZ        -0.86462  -0.15727   0.00056  -2.48564   0.01831
 183       10D 0        0.01094   0.00247   0.00000  -0.00813   0.00003
 184       10D+1        0.00256  -0.01201   0.00708  -0.00001  -0.00188
 185       10D-1        0.00148  -0.00692  -0.01228  -0.00001  -0.00109
 186       10D+2       -0.00062   0.00248   0.00407   0.00002  -0.00143
 187       10D-2       -0.00107   0.00428  -0.00234   0.00004  -0.00247
 188       11D 0       -0.04056  -0.00910  -0.00001   0.01631  -0.00006
 189       11D+1       -0.00827   0.03863  -0.02281  -0.00006   0.00326
 190       11D-1       -0.00477   0.02227   0.03954  -0.00002   0.00189
 191       11D+2        0.00206  -0.00851  -0.01406  -0.00007   0.00505
 192       11D-2        0.00359  -0.01471   0.00810  -0.00013   0.00873
 193       12D 0        0.40750   0.08738  -0.00011  -0.01259   0.00122
 194       12D+1        0.02588  -0.11092   0.06801   0.00183   0.02777
 195       12D-1        0.01510  -0.06390  -0.11789   0.00104   0.01604
 196       12D+2       -0.00711   0.03200   0.05331   0.00047  -0.00948
 197       12D-2       -0.01237   0.05532  -0.03071   0.00082  -0.01637
 198       13F 0       -0.02668  -0.00526   0.00002  -0.00748   0.00004
 199       13F+1        0.00301  -0.01570   0.00882   0.00002  -0.00707
 200       13F-1        0.00171  -0.00907  -0.01530   0.00000  -0.00408
 201       13F+2        0.00086  -0.00453  -0.00761  -0.00005  -0.00135
 202       13F-2        0.00151  -0.00786   0.00440  -0.00009  -0.00235
 203       13F+3        0.00000   0.00001   0.00071   0.00000   0.00000
 204       13F-3        0.01242   0.00215  -0.00001  -0.00150  -0.00018
 205       14F 0        0.06626   0.01337  -0.00006   0.01159  -0.00007
 206       14F+1       -0.00645   0.03445  -0.01917   0.00024   0.01574
 207       14F-1       -0.00365   0.01990   0.03327   0.00015   0.00910
 208       14F+2       -0.00244   0.01254   0.02113   0.00016   0.00329
 209       14F-2       -0.00426   0.02175  -0.01222   0.00027   0.00571
 210       14F+3        0.00000  -0.00001  -0.00114   0.00000   0.00000
 211       14F-3       -0.01676  -0.00274   0.00001   0.00275   0.00023
                         211
     Eigenvalues --     0.00000
   1 1   C  1S          0.00000
   2        2S          0.00000
   3        3S          0.00000
   4        4S         -0.00010
   5        5S         -0.00011
   6        6PX        -0.00380
   7        6PY         0.00658
   8        6PZ         0.00000
   9        7PX         0.77443
  10        7PY        -1.34031
  11        7PZ         0.00044
  12        8PX         8.69830
  13        8PY       -15.05366
  14        8PZ         0.00496
  15        9PX         3.94303
  16        9PY        -6.82394
  17        9PZ         0.00226
  18       10D 0        0.00000
  19       10D+1       -0.00088
  20       10D-1        0.00151
  21       10D+2       -0.01873
  22       10D-2        0.01083
  23       11D 0       -0.00010
  24       11D+1       -0.10717
  25       11D-1        0.18522
  26       11D+2       -0.38141
  27       11D-2        0.22050
  28       12D 0       -0.00055
  29       12D+1       -0.65324
  30       12D-1        1.13084
  31       12D+2        0.44358
  32       12D-2       -0.25690
  33       13F 0        0.00003
  34       13F+1        0.01912
  35       13F-1       -0.03309
  36       13F+2       -0.00844
  37       13F-2        0.00490
  38       13F+3       -0.00014
  39       13F-3       -0.00001
  40       14F 0       -0.00029
  41       14F+1       -0.20258
  42       14F-1        0.35067
  43       14F+2        0.07221
  44       14F-2       -0.04198
  45       14F+3       -0.00256
  46       14F-3        0.00005
  47 2   H  1S          0.02334
  48        2S         -1.95599
  49        3S        -22.60536
  50        4S         -9.67232
  51        5PX         0.02564
  52        5PY         0.10174
  53        5PZ         0.00875
  54        6PX        -0.25481
  55        6PY        -1.15802
  56        6PZ        -0.14214
  57        7PX        -1.72461
  58        7PY        -6.48359
  59        7PZ        -0.70067
  60        8D 0        0.01624
  61        8D+1        0.00280
  62        8D-1        0.01335
  63        8D+2        0.03582
  64        8D-2        0.01440
  65        9D 0        0.23125
  66        9D+1       -0.04685
  67        9D-1       -0.23692
  68        9D+2        0.24145
  69        9D-2       -0.28087
  70 3   H  1S         -0.02335
  71        2S          1.95703
  72        3S         22.61815
  73        4S          9.67777
  74        5PX        -0.10095
  75        5PY         0.02876
  76        5PZ        -0.00880
  77        6PX         1.13048
  78        6PY        -0.35923
  79        6PZ         0.14271
  80        7PX         6.47833
  81        7PY        -1.75375
  82        7PZ         0.70377
  83        8D 0       -0.01626
  84        8D+1       -0.01294
  85        8D-1        0.00424
  86        8D+2        0.00545
  87        8D-2       -0.03824
  88        9D 0       -0.23121
  89        9D+1        0.22890
  90        9D-1       -0.07812
  91        9D+2        0.36356
  92        9D-2       -0.06905
  93 4   H  1S          0.00001
  94        2S         -0.00106
  95        3S         -0.01245
  96        4S         -0.00537
  97        5PX         0.02512
  98        5PY        -0.04364
  99        5PZ         0.00002
 100        6PX        -0.24983
 101        6PY         0.43409
 102        6PZ        -0.00023
 103        7PX        -1.71728
 104        7PY         2.98244
 105        7PZ        -0.00144
 106        8D 0        0.00001
 107        8D+1        0.00330
 108        8D-1       -0.00574
 109        8D+2       -0.02507
 110        8D-2        0.01446
 111        9D 0        0.00006
 112        9D+1       -0.05077
 113        9D-1        0.08856
 114        9D+2        0.48385
 115        9D-2       -0.27970
 116 5   Cl 1S          0.00000
 117        2S          0.00000
 118        3S          0.00001
 119        4S          0.00000
 120        5S         -0.00005
 121        6S         -0.00007
 122        7PX        -0.00151
 123        7PY         0.00261
 124        7PZ         0.00000
 125        8PX        -0.02988
 126        8PY         0.05172
 127        8PZ        -0.00002
 128        9PX         0.00508
 129        9PY        -0.00880
 130        9PZ         0.00000
 131       10PX         0.21300
 132       10PY        -0.36863
 133       10PZ         0.00017
 134       11PX        -0.12521
 135       11PY         0.21670
 136       11PZ        -0.00007
 137       12D 0        0.00000
 138       12D+1       -0.00175
 139       12D-1        0.00303
 140       12D+2       -0.01070
 141       12D-2        0.00619
 142       13D 0        0.00001
 143       13D+1        0.01254
 144       13D-1       -0.02168
 145       13D+2        0.03856
 146       13D-2       -0.02229
 147       14D 0       -0.00016
 148       14D+1       -0.16235
 149       14D-1        0.28085
 150       14D+2       -0.17645
 151       14D-2        0.10194
 152       15F 0       -0.00001
 153       15F+1       -0.00927
 154       15F-1        0.01603
 155       15F+2       -0.00921
 156       15F-2        0.00532
 157       15F+3        0.00036
 158       15F-3        0.00000
 159       16F 0        0.00004
 160       16F+1        0.03147
 161       16F-1       -0.05443
 162       16F+2        0.03750
 163       16F-2       -0.02166
 164       16F+3       -0.00076
 165       16F-3        0.00002
 166 6   F  1S          0.00000
 167        2S          0.00000
 168        3S          0.00000
 169        4S         -0.00002
 170        5S         -0.00006
 171        6PX         0.00083
 172        6PY        -0.00143
 173        6PZ         0.00000
 174        7PX        -0.00294
 175        7PY         0.00509
 176        7PZ         0.00000
 177        8PX         0.00000
 178        8PY        -0.00001
 179        8PZ        -0.00001
 180        9PX        -0.11381
 181        9PY         0.19697
 182        9PZ        -0.00009
 183       10D 0        0.00000
 184       10D+1        0.00112
 185       10D-1       -0.00194
 186       10D+2       -0.00235
 187       10D-2        0.00136
 188       11D 0        0.00000
 189       11D+1       -0.00195
 190       11D-1        0.00338
 191       11D+2        0.00836
 192       11D-2       -0.00483
 193       12D 0       -0.00002
 194       12D+1       -0.01617
 195       12D-1        0.02798
 196       12D+2       -0.01542
 197       12D-2        0.00890
 198       13F 0        0.00001
 199       13F+1        0.00417
 200       13F-1       -0.00721
 201       13F+2       -0.00232
 202       13F-2        0.00135
 203       13F+3       -0.00013
 204       13F-3        0.00000
 205       14F 0       -0.00001
 206       14F+1       -0.00923
 207       14F-1        0.01599
 208       14F+2        0.00567
 209       14F-2       -0.00329
 210       14F+3        0.00019
 211       14F-3        0.00000
          Condensed to atoms (all electrons):
              1          2          3          4          5          6
     1  C    7.002833  -0.008508  -0.008512  -0.004352  -0.049235  -0.099111
     2  H   -0.008508   0.546482   0.020640   0.019736  -0.018757   0.004408
     3  H   -0.008512   0.020640   0.546485   0.019737  -0.018755   0.004413
     4  H   -0.004352   0.019736   0.019737   0.545053  -0.019070   0.002803
     5  Cl  -0.049235  -0.018757  -0.018755  -0.019070  17.707347   0.026343
     6  F   -0.099111   0.004408   0.004413   0.002803   0.026343   9.908237
 Mulliken atomic charges:
              1
     1  C   -0.833115
     2  H    0.435998
     3  H    0.435992
     4  H    0.436092
     5  Cl  -0.627873
     6  F   -0.847094
 Sum of Mulliken atomic charges =  -1.00000
 Mulliken charges with hydrogens summed into heavy atoms:
              1
     1  C    0.474967
     5  Cl  -0.627873
     6  F   -0.847094
 Sum of Mulliken charges with hydrogens summed into heavy atoms =  -1.00000
 Electronic spatial extent (au):  <R**2>=            490.3542
 Charge=             -1.0000 electrons
 Dipole moment (field-independent basis, Debye):
    X=             -0.0009    Y=              0.0005    Z=              4.0734  Tot=              4.0734
 Quadrupole moment (field-independent basis, Debye-Ang):
   XX=            -28.1837   YY=            -28.1829   ZZ=            -62.8096
   XY=             -0.0007   XZ=             -0.0167   YZ=             -0.0212
 Traceless Quadrupole moment (field-independent basis, Debye-Ang):
   XX=             11.5417   YY=             11.5425   ZZ=            -23.0842
   XY=             -0.0007   XZ=             -0.0167   YZ=             -0.0212
 Octapole moment (field-independent basis, Debye-Ang**2):
  XXX=             -0.0284  YYY=             -0.9761  ZZZ=             49.8125  XYY=             -0.0100
  XXY=              0.9389  XXZ=             -4.2297  XZZ=              0.0013  YZZ=              0.0157
  YYZ=             -4.2216  XYZ=             -0.0065
 Hexadecapole moment (field-independent basis, Debye-Ang**3):
 XXXX=            -41.2772 YYYY=            -41.2706 ZZZZ=           -761.7418 XXXY=             -0.0023
 XXXZ=             -0.0474 YYYX=             -0.0031 YYYZ=              0.5211 ZZZX=             -0.0815
 ZZZY=             -0.1981 XXYY=            -13.7580 XXZZ=           -103.3747 YYZZ=           -103.3871
 XXYZ=             -0.6815 YYXZ=             -0.0155 ZZXY=              0.0099
 N-N= 8.497624216973D+01 E-N=-1.604162526774D+03  KE= 5.991932640835D+02
 1\1\GINC-TRAPISTA\SP\RQCISD-FC\Aug-CC-pVTZ\C1H3Cl1F1(1-)\BRUNS\24-Aug-
 2020\0\\# QCISD aug-cc-pvtz nosymm density=current output=wfn\\clch3f_
 ts-wavefunction\\-1,1\C,0,0.000175,0.000029,-0.497709\H,0,0.000019,-1.
 05257,-0.620726\H,0,-0.911312,0.526365,-0.621245\H,0,0.91175,0.526132,
 -0.63157\Cl,0,0.000555,0.000962,1.644718\F,0,-0.000186,-0.000921,-2.59
 3468\\Version=EM64L-G09RevB.01\HF=-598.6171148\MP2=-599.2912811\MP3=-5
 99.3099894\MP4D=-599.3248824\MP4DQ=-599.3104412\MP4SDQ=-599.319806\QCI
 SD=-599.3191871\RMSD=9.361e-09\Dipole=0.0001377,0.0006486,1.5896013\Qu
 adrupole=8.580967,8.5815793,-17.1625464,-0.0005313,-0.0124129,-0.01577
 97\PG=C01 [X(C1H3Cl1F1)]\\@

 Writing a WFN file to GAUSSIAN.wfn.


 "THE TIME HAS COME", THE WALRUS SAID,
 "TO TALK OF MANY THINGS,
 OF SHOES AND SHIPS AND SEALING WAX,
 OF CABBAGES AND KINGS,
 AND WHY THE SEA IS BOILING HOT,
 AND WHETHER PIGS HAVE WINGS."
 Job cpu time:  0 days  3 hours 12 minutes 40.2 seconds.
 File lengths (MBytes):  RWF=  29002 Int=      0 D2E=      0 Chk=      4 Scr=      1
 Normal termination of Gaussian 09 at Mon Aug 24 07:29:51 2020.
