 clch3f_ts-wavefunction
GAUSSIAN            211 MOL ORBITALS    339 PRIMITIVES        6 NUCLEI
  C    1    (CENTRE  1)   0.00033070  0.00005480 -0.94053370  CHARGE =  6.0
  H    2    (CENTRE  2)   0.00003590 -1.98906904 -1.17300214  CHARGE =  1.0
  H    3    (CENTRE  3)  -1.72213010  0.99468570 -1.17398291  CHARGE =  1.0
  H    4    (CENTRE  4)   1.72295780  0.99424539 -1.17459707  CHARGE =  1.0
  Cl   5    (CENTRE  5)   0.00104880  0.00181792  3.12696385  CHARGE = 17.0
  F    6    (CENTRE  6)  -0.00035149 -0.00174044 -4.90094425  CHARGE =  9.0
CENTRE ASSIGNMENTS    1  1  1  1  1  1  1  1  1  1  1  1  1  1  1  1  1  1  1  1
CENTRE ASSIGNMENTS    1  1  1  1  1  1  1  1  1  1  1  1  1  1  1  1  1  1  1  1
CENTRE ASSIGNMENTS    1  1  1  1  1  1  1  1  1  1  1  1  1  1  1  1  1  1  1  1
CENTRE ASSIGNMENTS    1  1  1  1  1  1  1  1  1  1  1  1  2  2  2  2  2  2  2  2
CENTRE ASSIGNMENTS    2  2  2  2  2  2  2  2  2  2  2  2  2  2  2  2  2  2  2  3
CENTRE ASSIGNMENTS    3  3  3  3  3  3  3  3  3  3  3  3  3  3  3  3  3  3  3  3
CENTRE ASSIGNMENTS    3  3  3  3  3  3  4  4  4  4  4  4  4  4  4  4  4  4  4  4
CENTRE ASSIGNMENTS    4  4  4  4  4  4  4  4  4  4  4  4  4  5  5  5  5  5  5  5
CENTRE ASSIGNMENTS    5  5  5  5  5  5  5  5  5  5  5  5  5  5  5  5  5  5  5  5
CENTRE ASSIGNMENTS    5  5  5  5  5  5  5  5  5  5  5  5  5  5  5  5  5  5  5  5
CENTRE ASSIGNMENTS    5  5  5  5  5  5  5  5  5  5  5  5  5  5  5  5  5  5  5  5
CENTRE ASSIGNMENTS    5  5  5  5  5  5  5  5  5  5  5  5  5  5  5  5  5  5  5  5
CENTRE ASSIGNMENTS    5  5  5  5  5  5  5  5  5  5  5  5  5  5  5  5  5  5  5  5
CENTRE ASSIGNMENTS    5  5  5  5  5  5  5  6  6  6  6  6  6  6  6  6  6  6  6  6
CENTRE ASSIGNMENTS    6  6  6  6  6  6  6  6  6  6  6  6  6  6  6  6  6  6  6  6
CENTRE ASSIGNMENTS    6  6  6  6  6  6  6  6  6  6  6  6  6  6  6  6  6  6  6  6
CENTRE ASSIGNMENTS    6  6  6  6  6  6  6  6  6  6  6  6  6  6  6  6  6  6  6
TYPE ASSIGNMENTS      1  1  1  1  1  1  1  1  1  1  1  1  1  1  1  1  2  2  2  3
TYPE ASSIGNMENTS      3  3  4  4  4  2  3  4  2  3  4  2  3  4  5  6  7  8  9 10
TYPE ASSIGNMENTS      5  6  7  8  9 10  5  6  7  8  9 10 11 12 13 17 14 15 18 19
TYPE ASSIGNMENTS     16 20 11 12 13 17 14 15 18 19 16 20  1  1  1  1  1  1  2  3
TYPE ASSIGNMENTS      4  2  3  4  2  3  4  5  6  7  8  9 10  5  6  7  8  9 10  1
TYPE ASSIGNMENTS      1  1  1  1  1  2  3  4  2  3  4  2  3  4  5  6  7  8  9 10
TYPE ASSIGNMENTS      5  6  7  8  9 10  1  1  1  1  1  1  2  3  4  2  3  4  2  3
TYPE ASSIGNMENTS      4  5  6  7  8  9 10  5  6  7  8  9 10  1  1  1  1  1  1  1
TYPE ASSIGNMENTS      1  1  1  1  1  1  1  1  1  1  1  1  1  1  1  1  1  1  1  1
TYPE ASSIGNMENTS      1  1  1  1  2  2  2  2  2  2  3  3  3  3  3  3  4  4  4  4
TYPE ASSIGNMENTS      4  4  2  2  2  2  2  2  3  3  3  3  3  3  4  4  4  4  4  4
TYPE ASSIGNMENTS      2  3  4  2  3  4  2  3  4  5  6  7  8  9 10  5  6  7  8  9
TYPE ASSIGNMENTS     10  5  6  7  8  9 10 11 12 13 17 14 15 18 19 16 20 11 12 13
TYPE ASSIGNMENTS     17 14 15 18 19 16 20  1  1  1  1  1  1  1  1  1  1  1  1  1
TYPE ASSIGNMENTS      1  1  1  2  2  2  3  3  3  4  4  4  2  3  4  2  3  4  2  3
TYPE ASSIGNMENTS      4  5  6  7  8  9 10  5  6  7  8  9 10  5  6  7  8  9 10 11
TYPE ASSIGNMENTS     12 13 17 14 15 18 19 16 20 11 12 13 17 14 15 18 19 16 20
EXPONENTS  0.8236000D+04 0.1235000D+04 0.2808000D+03 0.7927000D+02 0.2559000D+02
EXPONENTS  0.8997000D+01 0.3319000D+01 0.2808000D+03 0.7927000D+02 0.2559000D+02
EXPONENTS  0.8997000D+01 0.3319000D+01 0.3643000D+00 0.9059000D+00 0.1285000D+00
EXPONENTS  0.4402000D-01 0.1871000D+02 0.4133000D+01 0.1200000D+01 0.1871000D+02
EXPONENTS  0.4133000D+01 0.1200000D+01 0.1871000D+02 0.4133000D+01 0.1200000D+01
EXPONENTS  0.3827000D+00 0.3827000D+00 0.3827000D+00 0.1209000D+00 0.1209000D+00
EXPONENTS  0.1209000D+00 0.3569000D-01 0.3569000D-01 0.3569000D-01 0.1097000D+01
EXPONENTS  0.1097000D+01 0.1097000D+01 0.1097000D+01 0.1097000D+01 0.1097000D+01
EXPONENTS  0.3180000D+00 0.3180000D+00 0.3180000D+00 0.3180000D+00 0.3180000D+00
EXPONENTS  0.3180000D+00 0.1000000D+00 0.1000000D+00 0.1000000D+00 0.1000000D+00
EXPONENTS  0.1000000D+00 0.1000000D+00 0.7610000D+00 0.7610000D+00 0.7610000D+00
EXPONENTS  0.7610000D+00 0.7610000D+00 0.7610000D+00 0.7610000D+00 0.7610000D+00
EXPONENTS  0.7610000D+00 0.7610000D+00 0.2680000D+00 0.2680000D+00 0.2680000D+00
EXPONENTS  0.2680000D+00 0.2680000D+00 0.2680000D+00 0.2680000D+00 0.2680000D+00
EXPONENTS  0.2680000D+00 0.2680000D+00 0.3387000D+02 0.5095000D+01 0.1159000D+01
EXPONENTS  0.3258000D+00 0.1027000D+00 0.2526000D-01 0.1407000D+01 0.1407000D+01
EXPONENTS  0.1407000D+01 0.3880000D+00 0.3880000D+00 0.3880000D+00 0.1020000D+00
EXPONENTS  0.1020000D+00 0.1020000D+00 0.1057000D+01 0.1057000D+01 0.1057000D+01
EXPONENTS  0.1057000D+01 0.1057000D+01 0.1057000D+01 0.2470000D+00 0.2470000D+00
EXPONENTS  0.2470000D+00 0.2470000D+00 0.2470000D+00 0.2470000D+00 0.3387000D+02
EXPONENTS  0.5095000D+01 0.1159000D+01 0.3258000D+00 0.1027000D+00 0.2526000D-01
EXPONENTS  0.1407000D+01 0.1407000D+01 0.1407000D+01 0.3880000D+00 0.3880000D+00
EXPONENTS  0.3880000D+00 0.1020000D+00 0.1020000D+00 0.1020000D+00 0.1057000D+01
EXPONENTS  0.1057000D+01 0.1057000D+01 0.1057000D+01 0.1057000D+01 0.1057000D+01
EXPONENTS  0.2470000D+00 0.2470000D+00 0.2470000D+00 0.2470000D+00 0.2470000D+00
EXPONENTS  0.2470000D+00 0.3387000D+02 0.5095000D+01 0.1159000D+01 0.3258000D+00
EXPONENTS  0.1027000D+00 0.2526000D-01 0.1407000D+01 0.1407000D+01 0.1407000D+01
EXPONENTS  0.3880000D+00 0.3880000D+00 0.3880000D+00 0.1020000D+00 0.1020000D+00
EXPONENTS  0.1020000D+00 0.1057000D+01 0.1057000D+01 0.1057000D+01 0.1057000D+01
EXPONENTS  0.1057000D+01 0.1057000D+01 0.2470000D+00 0.2470000D+00 0.2470000D+00
EXPONENTS  0.2470000D+00 0.2470000D+00 0.2470000D+00 0.4561000D+06 0.6833000D+05
EXPONENTS  0.1555000D+05 0.4405000D+04 0.1439000D+04 0.5204000D+03 0.2031000D+03
EXPONENTS  0.8396000D+02 0.3620000D+02 0.1583000D+02 0.6334000D+01 0.4405000D+04
EXPONENTS  0.1439000D+04 0.5204000D+03 0.2031000D+03 0.8396000D+02 0.3620000D+02
EXPONENTS  0.1583000D+02 0.6334000D+01 0.2694000D+01 0.1439000D+04 0.2031000D+03
EXPONENTS  0.8396000D+02 0.3620000D+02 0.1583000D+02 0.6334000D+01 0.2694000D+01
EXPONENTS  0.4313000D+00 0.9768000D+00 0.1625000D+00 0.5910000D-01 0.6633000D+03
EXPONENTS  0.1568000D+03 0.4998000D+02 0.1842000D+02 0.7240000D+01 0.2922000D+01
EXPONENTS  0.6633000D+03 0.1568000D+03 0.4998000D+02 0.1842000D+02 0.7240000D+01
EXPONENTS  0.2922000D+01 0.6633000D+03 0.1568000D+03 0.4998000D+02 0.1842000D+02
EXPONENTS  0.7240000D+01 0.2922000D+01 0.1568000D+03 0.4998000D+02 0.1842000D+02
EXPONENTS  0.7240000D+01 0.2922000D+01 0.3818000D+00 0.1568000D+03 0.4998000D+02
EXPONENTS  0.1842000D+02 0.7240000D+01 0.2922000D+01 0.3818000D+00 0.1568000D+03
EXPONENTS  0.4998000D+02 0.1842000D+02 0.7240000D+01 0.2922000D+01 0.3818000D+00
EXPONENTS  0.1022000D+01 0.1022000D+01 0.1022000D+01 0.1301000D+00 0.1301000D+00
EXPONENTS  0.1301000D+00 0.4190000D-01 0.4190000D-01 0.4190000D-01 0.1046000D+01
EXPONENTS  0.1046000D+01 0.1046000D+01 0.1046000D+01 0.1046000D+01 0.1046000D+01
EXPONENTS  0.3440000D+00 0.3440000D+00 0.3440000D+00 0.3440000D+00 0.3440000D+00
EXPONENTS  0.3440000D+00 0.1350000D+00 0.1350000D+00 0.1350000D+00 0.1350000D+00
EXPONENTS  0.1350000D+00 0.1350000D+00 0.7060000D+00 0.7060000D+00 0.7060000D+00
EXPONENTS  0.7060000D+00 0.7060000D+00 0.7060000D+00 0.7060000D+00 0.7060000D+00
EXPONENTS  0.7060000D+00 0.7060000D+00 0.3120000D+00 0.3120000D+00 0.3120000D+00
EXPONENTS  0.3120000D+00 0.3120000D+00 0.3120000D+00 0.3120000D+00 0.3120000D+00
EXPONENTS  0.3120000D+00 0.3120000D+00 0.1950000D+05 0.2923000D+04 0.6645000D+03
EXPONENTS  0.1875000D+03 0.6062000D+02 0.2142000D+02 0.7950000D+01 0.6645000D+03
EXPONENTS  0.1875000D+03 0.6062000D+02 0.2142000D+02 0.7950000D+01 0.8815000D+00
EXPONENTS  0.2257000D+01 0.3041000D+00 0.9158000D-01 0.4388000D+02 0.9926000D+01
EXPONENTS  0.2930000D+01 0.4388000D+02 0.9926000D+01 0.2930000D+01 0.4388000D+02
EXPONENTS  0.9926000D+01 0.2930000D+01 0.9132000D+00 0.9132000D+00 0.9132000D+00
EXPONENTS  0.2672000D+00 0.2672000D+00 0.2672000D+00 0.7361000D-01 0.7361000D-01
EXPONENTS  0.7361000D-01 0.3107000D+01 0.3107000D+01 0.3107000D+01 0.3107000D+01
EXPONENTS  0.3107000D+01 0.3107000D+01 0.8550000D+00 0.8550000D+00 0.8550000D+00
EXPONENTS  0.8550000D+00 0.8550000D+00 0.8550000D+00 0.2920000D+00 0.2920000D+00
EXPONENTS  0.2920000D+00 0.2920000D+00 0.2920000D+00 0.2920000D+00 0.1917000D+01
EXPONENTS  0.1917000D+01 0.1917000D+01 0.1917000D+01 0.1917000D+01 0.1917000D+01
EXPONENTS  0.1917000D+01 0.1917000D+01 0.1917000D+01 0.1917000D+01 0.7240000D+00
EXPONENTS  0.7240000D+00 0.7240000D+00 0.7240000D+00 0.7240000D+00 0.7240000D+00
EXPONENTS  0.7240000D+00 0.7240000D+00 0.7240000D+00 0.7240000D+00
MO    1     MO 0.0        OCC NO =    2.0000299  ORB. ENERGY =    0.000000
  0.59464656D-08  0.11085410D-07  0.18735853D-07  0.28163481D-07  0.34593793D-07
  0.29195940D-07  0.10978436D-07  0.15723661D-10  0.11752463D-09  0.43921637D-09
  0.12253453D-08  0.16416248D-08 -0.19384528D-08 -0.12650341D-08  0.82516924D-08
  0.82680352D-08  0.43482428D-04  0.40767540D-04  0.29028917D-04 -0.10210988D-03
 -0.95734499D-04 -0.68168666D-04  0.27050395D-07  0.25361464D-07  0.18058873D-07
  0.14503870D-03 -0.34059354D-03  0.12887209D-06  0.17931502D-03 -0.42108405D-03
  0.14063203D-06  0.35526250D-05 -0.83421753D-05  0.28893104D-08 -0.60292048D-04
  0.60460613D-04 -0.16856590D-06  0.51374541D-04 -0.19547135D-03  0.45897033D-03
 -0.17877412D-03  0.17874562D-03  0.28497470D-07  0.15242620D-03  0.36078489D-04
 -0.84918081D-04 -0.37463927D-04  0.37483940D-04 -0.20013150D-07  0.31935375D-04
 -0.25840593D-04  0.60639957D-04  0.36254892D-04 -0.85136336D-04 -0.11925107D-06
  0.36271041D-04 -0.85149246D-04 -0.21605328D-04 -0.14503572D-03  0.34055825D-03
  0.21963081D-04  0.18377739D-04 -0.10212588D-04  0.23981023D-04  0.32465889D-07
 -0.10179001D-04  0.23950457D-04 -0.45674797D-04  0.40816764D-04 -0.95893526D-04
  0.45577400D-04  0.38953980D-04  0.36179539D-04  0.65251288D-04  0.96212986D-04
 -0.34303258D-03 -0.10254939D-02  0.11580186D-04  0.15291968D-05 -0.65963479D-04
 -0.18893966D-04  0.32577617D-04 -0.26864714D-03 -0.24647353D-03  0.29429919D-04
 -0.15745712D-03 -0.20108005D-04  0.10039799D-03 -0.42301297D-04 -0.58096692D-04
  0.11625976D-04 -0.17774521D-04 -0.27087877D-03  0.40046302D-04  0.10692555D-04
 -0.50738857D-04  0.11287382D-04  0.23858336D-04 -0.28982529D-04 -0.31436220D-04
 -0.56696518D-04 -0.83598983D-04  0.29805343D-03  0.89106938D-03 -0.10062391D-04
  0.48449108D-04 -0.30698455D-04  0.16449844D-04  0.17705855D-03 -0.15995084D-03
  0.21429071D-03  0.95890815D-04 -0.10751176D-03  0.17554388D-04 -0.20759213D-05
 -0.48511810D-04  0.50587732D-04 -0.11620928D-03  0.21743476D-03 -0.94124858D-04
 -0.23171843D-04 -0.20940335D-04  0.44112178D-04 -0.30733458D-04  0.34766257D-05
 -0.44231113D-04 -0.47418388D-05 -0.85521016D-05 -0.12610069D-04  0.44953668D-04
  0.13442803D-03 -0.15188324D-05 -0.55347316D-05 -0.76990004D-05  0.24847335D-05
  0.10873986D-04 -0.89222660D-04  0.32359690D-04  0.19419978D-04 -0.74932692D-04
  0.26737053D-05 -0.12003545D-04  0.43728435D-05  0.76307014D-05  0.31008546D-04
 -0.53149055D-04  0.21033788D-04 -0.14739695D-04  0.80698422D-05  0.66698528D-05
  0.17636682D-04  0.26978658D-04 -0.54328062D-04 -0.18218948D-06 -0.34085708D-06
 -0.58892543D-06 -0.95471731D-06 -0.14498298D-05 -0.20151271D-05 -0.23958317D-05
 -0.21342901D-05 -0.10599336D-05 -0.17064034D-06 -0.18003564D-08 -0.85430385D-09
 -0.28498146D-07 -0.99310334D-07 -0.35763259D-06 -0.78835654D-06 -0.11097516D-05
  0.52938767D-07  0.14523027D-05  0.85873746D-06 -0.17349893D-10 -0.21014957D-09
 -0.43824478D-09 -0.12568097D-08 -0.65264379D-10  0.54199731D-08  0.14004170D-07
 -0.11409938D-07  0.51611868D-07 -0.29904978D-08 -0.15014545D-08  0.45489372D+01
  0.59920144D+01  0.66101299D+01  0.54902304D+01  0.29154647D+01  0.75220513D+00
 -0.10682408D+02 -0.14071231D+02 -0.15522770D+02 -0.12892876D+02 -0.68464749D+01
 -0.17664263D+01  0.38108265D-02  0.50197499D-02  0.55375699D-02  0.45993854D-02
  0.24424013D-02  0.63015230D-03 -0.17968551D-03  0.17370839D-02  0.24494696D-02
  0.35033895D-02 -0.17740671D-04 -0.32129386D-02  0.42196075D-03 -0.40792450D-02
 -0.57521612D-02 -0.82271122D-02  0.41660938D-04  0.75450379D-02 -0.15074941D-06
  0.14573483D-05  0.20550132D-05  0.29392126D-05 -0.14883759D-07 -0.26955351D-05
  0.30035867D-01 -0.70534140D-01  0.25164994D-04 -0.25175568D-03  0.59120691D-03
 -0.21184832D-06 -0.22774532D-04  0.53482149D-04 -0.18904362D-07 -0.11065767D-04
  0.11381625D-04 -0.31585778D-06  0.93705250D-05 -0.37730818D-03  0.88602622D-03
  0.38769339D-05 -0.39926442D-05  0.11571029D-06 -0.32828077D-05  0.13640107D-03
 -0.32030622D-03 -0.11105777D-05  0.11301999D-05 -0.19622176D-07  0.94244354D-06
 -0.23760123D-04  0.55794739D-04  0.91752481D-06 -0.21538822D-05 -0.33983194D-08
  0.94021015D-06 -0.21764123D-05 -0.31315060D-04 -0.36927846D-05  0.86380589D-05
  0.31325255D-04  0.26697027D-04  0.55151244D-05 -0.12951160D-04 -0.18745206D-07
  0.55104564D-05 -0.12946519D-04  0.64227918D-05 -0.22055830D-04  0.51799999D-04
 -0.63665562D-05 -0.54806844D-05  0.21566698D-07  0.40200363D-07  0.68148571D-07
  0.10318615D-06  0.12900542D-06  0.11096779D-06  0.42558537D-07 -0.41933395D-10
 -0.55511963D-09 -0.20162955D-08 -0.59813026D-08 -0.68922432D-08  0.83716559D-08
  0.81613423D-09 -0.14182756D-07 -0.15356160D-07 -0.11229919D-03 -0.10982615D-03
 -0.72566783D-04  0.26371645D-03  0.25790893D-03  0.17041134D-03 -0.11637944D-06
 -0.11381655D-06 -0.75203404D-07 -0.37963617D-05  0.89266542D-05  0.17497067D-08
 -0.25537385D-04  0.59961241D-04 -0.38660864D-07 -0.76252565D-05  0.17906339D-04
 -0.85542976D-08 -0.65086112D-04  0.65124629D-04 -0.38516995D-07  0.55477160D-04
 -0.51023037D-04  0.11974316D-03  0.32658388D-04 -0.32690533D-04  0.32145091D-07
 -0.27834267D-04  0.39170148D-04 -0.91944479D-04 -0.16480278D-04  0.16508077D-04
 -0.27798989D-07  0.14045365D-04 -0.28368799D-04  0.66592911D-04 -0.27154276D-04
  0.63753143D-04  0.99100710D-07 -0.27281080D-04  0.63878168D-04  0.17216877D-03
  0.10874391D-03 -0.25513760D-03 -0.17246607D-03 -0.14674661D-03  0.96515408D-05
 -0.22660095D-04 -0.36021249D-07  0.96917488D-05 -0.22699656D-04 -0.54617875D-04
 -0.38646371D-04  0.90679942D-04  0.54725939D-04  0.46552625D-04
MO    2     MO 0.0        OCC NO =    2.0000299  ORB. ENERGY =    0.000000
  0.85429764D-08  0.15925829D-07  0.26916821D-07  0.40461002D-07  0.49699094D-07
  0.41944282D-07  0.15772145D-07 -0.10921428D-10 -0.81630905D-10 -0.30507333D-09
 -0.85110709D-09 -0.11402489D-08  0.13464213D-08  0.23975945D-08 -0.43919642D-08
 -0.17306003D-08  0.10211051D-03  0.95735094D-04  0.68169090D-04  0.43481628D-04
  0.40766790D-04  0.29028383D-04 -0.33737702D-07 -0.31631240D-07 -0.22523327D-07
  0.34060044D-03  0.14503711D-03 -0.12318725D-06  0.42109037D-03  0.17931179D-03
 -0.15191044D-06  0.83425833D-05  0.35523185D-05 -0.30040657D-08  0.25606249D-04
 -0.25772817D-04  0.16656774D-06  0.12029151D-03 -0.45909077D-03 -0.19547062D-03
  0.76226334D-04 -0.76196490D-04 -0.29843719D-07  0.35760923D-03  0.84549375D-04
  0.36086575D-04  0.15957483D-04 -0.15979033D-04  0.21549894D-07  0.74885776D-04
 -0.60718543D-04 -0.25838024D-04  0.85148532D-04  0.36253577D-04  0.12259523D-06
  0.85164539D-04  0.36268452D-04  0.90140947D-05 -0.34061014D-03 -0.14502918D-03
 -0.93818803D-05  0.42697093D-04 -0.23959894D-04 -0.10211685D-04 -0.34442093D-07
 -0.23925038D-04 -0.10179879D-04  0.19526065D-04  0.95804721D-04  0.40814933D-04
 -0.19422738D-04  0.91495751D-04 -0.15411742D-04 -0.27795711D-04 -0.40984760D-04
  0.14612627D-03  0.43684596D-03 -0.49331814D-05  0.36221016D-05  0.28098339D-04
  0.80478294D-05  0.76691337D-04  0.11442749D-03  0.10497753D-03  0.69152843D-04
  0.67064456D-04  0.85514807D-05 -0.42771770D-04  0.18015101D-04  0.24756669D-04
  0.27526121D-04 -0.41475752D-04  0.11539163D-03 -0.17043407D-04 -0.45586218D-05
  0.21602029D-04  0.26532175D-04  0.56105795D-04  0.12331698D-04 -0.23626695D-04
 -0.42611717D-04 -0.62830952D-04  0.22401784D-03  0.66968740D-03 -0.75615650D-05
  0.38873310D-04 -0.18815304D-04  0.12361281D-04  0.18520517D-03 -0.29948251D-04
  0.16100153D-03  0.11908409D-03  0.61220063D-06  0.13148632D-04  0.14636207D-04
 -0.52682661D-04  0.38046453D-04 -0.68668256D-04  0.13517138D-03 -0.11959948D-03
 -0.18027638D-05 -0.31315530D-04  0.33118294D-04 -0.50596526D-05  0.40749892D-04
  0.32824752D-04  0.39038211D-04  0.70407021D-04  0.10381511D-03 -0.37013409D-03
 -0.11065344D-02  0.12494960D-04  0.61871025D-04  0.35156680D-04 -0.20447394D-04
  0.25593270D-03  0.13602590D-03 -0.26616480D-03  0.15166332D-03  0.77065609D-04
 -0.21822438D-04 -0.85876965D-05  0.71514949D-04 -0.62927253D-04 -0.13127959D-03
  0.25044598D-03  0.15071817D-03  0.17962991D-04  0.36802864D-04 -0.54765855D-04
 -0.25654803D-04  0.30690925D-04  0.91552993D-05  0.44808832D-07  0.83832542D-07
  0.14484404D-06  0.23480921D-06  0.35658031D-06  0.49561308D-06  0.58924598D-06
  0.52492079D-06  0.26068677D-06  0.41968364D-07  0.44279103D-09  0.21103869D-09
  0.70398973D-08  0.24532633D-07  0.88345982D-07  0.19474772D-06  0.27414194D-06
 -0.13077464D-07 -0.35876234D-06 -0.21213392D-06  0.33066210D-11  0.40051255D-10
  0.83522669D-10  0.23952847D-09  0.12438380D-10 -0.10329629D-08 -0.26689779D-08
  0.21745575D-08 -0.13011803D-07  0.24717336D-08  0.26252790D-09  0.10682409D+02
  0.14071231D+02  0.15522771D+02  0.12892877D+02  0.68464752D+01  0.17664264D+01
  0.45489360D+01  0.59920129D+01  0.66101282D+01  0.54902290D+01  0.29154640D+01
  0.75220494D+00 -0.38479591D-02 -0.50686623D-02 -0.55915280D-02 -0.46442018D-02
 -0.24662000D-02 -0.63629250D-03 -0.42196090D-03  0.40792465D-02  0.57521634D-02
  0.82271153D-02 -0.41660954D-04 -0.75450407D-02 -0.17968533D-03  0.17370821D-02
  0.24494671D-02  0.35033860D-02 -0.17740653D-04 -0.32129354D-02  0.15198009D-06
 -0.14692457D-05 -0.20717898D-05 -0.29632075D-05  0.15005266D-07  0.27175407D-05
  0.70534148D-01  0.30035857D-01 -0.25406427D-04 -0.59120584D-03 -0.25175631D-03
  0.21262872D-06 -0.53482131D-04 -0.22774533D-04  0.19251185D-07  0.45327087D-05
 -0.48514649D-05  0.31875619D-06  0.21548254D-04 -0.88605268D-03 -0.37730391D-03
 -0.15861914D-05  0.17015474D-05 -0.11535604D-06 -0.75439173D-05  0.32031716D-03
  0.13639838D-03  0.46174924D-06 -0.48186279D-06  0.20113550D-07  0.21836195D-05
 -0.55797470D-04 -0.23759674D-04  0.21699772D-05  0.91708792D-06  0.31979917D-08
  0.21921596D-05  0.93998356D-06  0.13344260D-04 -0.87020912D-05 -0.36912473D-05
 -0.13353854D-04  0.62616484D-04  0.12948072D-04  0.55150338D-05  0.18676188D-07
  0.12943541D-04  0.55102958D-05 -0.27675248D-05 -0.51787757D-04 -0.22055397D-04
  0.27114963D-05 -0.12920435D-04 -0.53093850D-08 -0.98967028D-08 -0.16777116D-07
 -0.25402823D-07 -0.31759123D-07 -0.27318541D-07 -0.10477249D-07  0.70993432D-11
  0.93982011D-10  0.34135976D-09  0.10126373D-08  0.11668600D-08 -0.14173252D-08
 -0.25748714D-09  0.24423849D-08  0.32515449D-08 -0.26371523D-03 -0.25790773D-03
 -0.17041054D-03 -0.11229935D-03 -0.10982631D-03 -0.72566888D-04  0.10391163D-06
  0.10162330D-06  0.67146813D-07 -0.89182127D-05 -0.38025941D-05  0.31978838D-08
 -0.59967657D-04 -0.25532466D-04  0.24911686D-07 -0.17906508D-04 -0.76250848D-05
  0.69512595D-08  0.27720185D-04 -0.27762740D-04  0.42555523D-07  0.13008457D-03
 -0.11988073D-03 -0.51017047D-04 -0.13902846D-04  0.13935968D-04 -0.33121807D-07
 -0.65251576D-04  0.92014923D-04  0.39166085D-04  0.70122217D-05 -0.70369126D-05
  0.24690869D-07  0.32917029D-04 -0.66632994D-04 -0.28363372D-04 -0.63845880D-04
 -0.27147013D-04 -0.93343642D-07 -0.63985424D-04 -0.27271913D-04 -0.73252621D-04
  0.25552306D-03  0.10871295D-03  0.73532652D-04 -0.34394592D-03  0.22689869D-04
  0.96489844D-05  0.33299697D-07  0.22733968D-04  0.96885948D-05  0.23233223D-04
 -0.90803574D-04 -0.38635548D-04 -0.23333122D-04  0.10909900D-03
MO    3     MO 0.0        OCC NO =    2.0000210  ORB. ENERGY =    0.000000
 -0.14082929D-01 -0.26253417D-01 -0.44371851D-01 -0.66699167D-01 -0.81927981D-01
 -0.69144325D-01 -0.26000072D-01 -0.37192564D-05 -0.27799137D-04 -0.10389172D-03
 -0.28984173D-03 -0.38830801D-03  0.45851936D-03 -0.85136036D-03 -0.18903191D-02
 -0.78022641D-04  0.20548290D-06  0.19265328D-06  0.13718061D-06  0.49951204D-06
  0.46832429D-06  0.33347479D-06  0.11543604D-02  0.10822863D-02  0.77065231D-03
  0.10449978D-06  0.26374993D-06  0.60752483D-03 -0.64891755D-07 -0.16599399D-06
 -0.37207216D-03  0.85587915D-09  0.21137577D-08  0.48434587D-05 -0.10617102D-03
 -0.10617157D-03  0.21234259D-03 -0.13543537D-08  0.11348834D-06  0.27354243D-06
 -0.24675408D-04 -0.24673329D-04  0.49348737D-04 -0.58192757D-09  0.26409505D-07
  0.68800345D-07  0.11133510D-04  0.11134175D-04 -0.22267686D-04  0.21547025D-09
 -0.11671161D-07 -0.29207655D-07 -0.15759656D-07  0.34787688D-04  0.94070552D-05
  0.37367389D-07 -0.10438886D-03 -0.14064660D-04  0.99115775D-08  0.25795310D-07
 -0.14156506D-04  0.37306994D-07  0.30305036D-08  0.51041379D-04 -0.85147714D-04
  0.80879933D-07 -0.15290058D-03  0.12778858D-03 -0.89971444D-07 -0.22355859D-06
  0.12765456D-03  0.54033714D-07 -0.53357877D-05 -0.96233129D-05 -0.14189569D-04
  0.73834143D-03  0.23138907D-03  0.49462023D-05  0.16488962D-07  0.92296940D-04
  0.25874370D-04  0.24518801D-07  0.19646778D-03 -0.42769295D-05  0.12591055D-07
  0.43415628D-04  0.38552470D-04 -0.72299530D-04  0.53764673D-04  0.18534857D-04
  0.45650880D-07  0.42094015D-07  0.75137178D-04 -0.98858567D-05 -0.11863283D-04
  0.21749139D-04 -0.64134694D-08  0.67916771D-08 -0.33829660D-04 -0.53356200D-05
 -0.96230104D-05 -0.14189123D-04  0.73834367D-03  0.23140551D-03  0.49464079D-05
  0.79921994D-04 -0.46142358D-04  0.25920306D-04  0.17013532D-03 -0.98260319D-04
 -0.41860391D-05  0.37590587D-04 -0.21689397D-04  0.38574216D-04  0.22221374D-04
 -0.40795216D-04  0.18573842D-04 -0.10914287D-03  0.65134091D-04 -0.37520202D-04
 -0.11362967D-04 -0.10369251D-04  0.21732218D-04  0.16898018D-05 -0.29310507D-04
  0.16961690D-04 -0.53354464D-05 -0.96226973D-05 -0.14188662D-04  0.73834712D-03
  0.23140339D-03  0.49463732D-05 -0.79924606D-04 -0.46122228D-04  0.25948688D-04
 -0.17016254D-03 -0.98217746D-04 -0.41242066D-05 -0.37582134D-04 -0.21679925D-04
  0.38587480D-04  0.22226379D-04 -0.40822368D-04  0.18595988D-04  0.10909742D-03
 -0.65147155D-04 -0.37543222D-04 -0.11352991D-04 -0.10368880D-04  0.21721871D-04
 -0.16829985D-05  0.29338013D-04  0.16954803D-04 -0.15479307D+00 -0.28960132D+00
 -0.50036685D+00 -0.81115346D+00 -0.12318144D+01 -0.17121061D+01 -0.20355629D+01
 -0.18133502D+01 -0.90054805D+00 -0.14498062D+00 -0.15296311D-02 -0.72372054D-03
 -0.24142105D-01 -0.84130404D-01 -0.30296721D+00 -0.66785351D+00 -0.94012219D+00
  0.44846892D-01  0.12303131D+01  0.72747646D+00 -0.15526095D-04 -0.18805893D-03
 -0.39217707D-03 -0.11246956D-02 -0.58403875D-04  0.48502327D-02  0.12532070D-01
 -0.10210541D-01  0.46660971D-01 -0.40399608D-03 -0.13596308D-03  0.10426040D-02
  0.13733534D-02  0.15150237D-02  0.12583458D-02  0.66821655D-03  0.17240336D-03
  0.25675489D-02  0.33820625D-02  0.37309444D-02  0.30988414D-02  0.16455708D-02
  0.42456586D-03  0.59221659D+01  0.78008779D+01  0.86055895D+01  0.71476159D+01
  0.37955824D+01  0.97928009D+00 -0.36892061D-07  0.35664871D-06  0.50291191D-06
  0.71929707D-06 -0.36424191D-08 -0.65966325D-06 -0.90836875D-07  0.87815246D-06
  0.12382866D-05  0.17710775D-05 -0.89684869D-08 -0.16242451D-05 -0.20947284D-03
  0.20250486D-02  0.28555300D-02  0.40841633D-02 -0.20681628D-04 -0.37455629D-02
  0.73085160D-05  0.17994247D-04  0.41509120D-01 -0.84007068D-07 -0.20593305D-06
 -0.47619601D-03 -0.16960819D-08 -0.42628234D-08 -0.97433258D-05 -0.65227571D-05
 -0.65231299D-05  0.13045887D-04  0.18275360D-09  0.63347981D-08  0.17015256D-07
 -0.10954213D-03 -0.10954198D-03  0.21908411D-03 -0.19880078D-10  0.11631751D-06
  0.28386914D-06 -0.13938654D-04 -0.13938604D-04  0.27877258D-04  0.35612911D-10
  0.14789801D-07  0.35820136D-07  0.11544248D-08 -0.70812437D-05  0.57961517D-05
 -0.96523362D-08  0.21229768D-04 -0.87038511D-05  0.61890617D-08  0.13963271D-07
 -0.86846040D-05 -0.72712576D-08  0.81137110D-08  0.20515257D-05 -0.33447800D-04
  0.11213205D-07 -0.60684709D-05  0.50174562D-04 -0.35554338D-07 -0.86106229D-07
  0.50168837D-04  0.20479585D-08 -0.84215171D-03 -0.15697722D-02 -0.26611137D-02
 -0.40292860D-02 -0.50374949D-02 -0.43331490D-02 -0.16618559D-02 -0.67837052D-06
 -0.89803555D-05 -0.32618285D-04 -0.96761529D-04 -0.11149812D-03  0.13543107D-03
 -0.93747432D-04 -0.16062274D-03  0.10887814D-04  0.67334058D-06  0.65851238D-06
  0.43510697D-06  0.17963482D-05  0.17567893D-05  0.11607850D-05  0.39305727D-02
  0.38440143D-02  0.25399028D-02  0.15138978D-06  0.40862318D-06  0.88729273D-03
  0.40079929D-08  0.78227369D-08  0.21259483D-04  0.15351902D-08  0.43676874D-08
  0.91425759D-05 -0.35580773D-04 -0.35577955D-04  0.71158728D-04  0.54971435D-09
  0.36599499D-07  0.97485026D-07  0.20905987D-04  0.20904774D-04 -0.41810761D-04
 -0.21461828D-09 -0.21671337D-07 -0.56347788D-07  0.18311870D-04  0.18312031D-04
 -0.36623901D-04 -0.17725438D-10 -0.18387582D-07 -0.52331445D-07 -0.99796118D-08
 -0.32967153D-05  0.46605765D-04 -0.14956549D-07  0.97476371D-05 -0.69916512D-04
  0.44895384D-07  0.14250870D-06 -0.69900782D-04 -0.87542048D-09  0.58707211D-08
  0.10389117D-05 -0.25443734D-04  0.74276038D-08 -0.30416648D-05  0.38168111D-04
 -0.25039767D-07 -0.75070279D-07  0.38163092D-04  0.25230919D-09
MO    4     MO 0.0        OCC NO =    2.0000123  ORB. ENERGY =    0.000000
  0.27307342D-01  0.50906386D-01  0.86038729D-01  0.12933226D+00  0.15886151D+00
  0.13407351D+00  0.50415142D-01 -0.12575109D-05 -0.93991146D-05 -0.35126637D-04
 -0.97997849D-04 -0.13129010D-03  0.15502913D-03  0.26594109D-02 -0.35126239D-02
 -0.32511656D-04  0.63797356D-06  0.59814076D-06  0.42591186D-06  0.15794147D-05
  0.14808016D-05  0.10544190D-05  0.36187571D-02  0.33928148D-02  0.24158863D-02
  0.22780794D-06  0.56268776D-06  0.13114200D-02 -0.71665593D-07 -0.18263185D-06
 -0.40771759D-03  0.73938353D-09  0.16001210D-08  0.39646166D-05 -0.32046426D-03
 -0.32046514D-03  0.64092940D-03 -0.18601337D-08  0.33934182D-06  0.83395944D-06
  0.83941356D-05  0.84002296D-05 -0.16794365D-04 -0.91211571D-09 -0.65164568D-08
 -0.18064111D-07 -0.18595547D-04 -0.18595005D-04  0.37190552D-04  0.10184478D-09
  0.19476366D-07  0.49895725D-07  0.97211520D-08 -0.45102581D-04  0.28647154D-04
 -0.59115289D-07  0.13522964D-03 -0.43029694D-04  0.29951833D-07  0.78101643D-07
 -0.42911769D-04 -0.46213192D-07  0.12935113D-07  0.79612128D-04 -0.16340745D-03
  0.13433175D-06 -0.23840950D-03  0.24521552D-03 -0.17313709D-06 -0.42688042D-06
  0.24500685D-03  0.84838506D-07 -0.90981510D-04 -0.16408890D-03 -0.24194899D-03
  0.98998749D-03  0.67301642D-03  0.39034476D-05 -0.33136799D-08 -0.65572010D-04
  0.27215077D-04  0.30461839D-07  0.29996472D-03 -0.44953688D-04  0.27413899D-07
  0.10953975D-03  0.75805901D-04 -0.13828003D-03  0.25620462D-04  0.11265957D-03
  0.66914078D-07  0.10659224D-06  0.14030998D-03 -0.14956733D-04 -0.20316674D-04
  0.35273407D-04 -0.12173006D-07  0.10125678D-07 -0.61164321D-04 -0.90981015D-04
 -0.16408801D-03 -0.24194767D-03  0.99000293D-03  0.67302800D-03  0.39045376D-05
 -0.56784427D-04  0.32809240D-04  0.27186102D-04  0.25977120D-03 -0.15004951D-03
 -0.44808719D-04  0.94843485D-04 -0.54733952D-04  0.75861032D-04 -0.15399688D-04
 -0.97336826D-04  0.11273651D-03 -0.14187305D-03  0.12154397D-03 -0.69925430D-04
 -0.18965323D-04 -0.16276564D-04  0.35241887D-04  0.46015641D-05 -0.52989174D-04
  0.30656224D-04 -0.90981211D-04 -0.16408836D-03 -0.24194819D-03  0.99000779D-03
  0.67303046D-03  0.39042443D-05  0.56802252D-04  0.32794449D-04  0.27164942D-04
 -0.25982698D-03 -0.14998465D-03 -0.44717795D-04 -0.94830860D-04 -0.54710049D-04
  0.75894557D-04 -0.15404192D-04 -0.97371230D-04  0.11277542D-03  0.14180850D-03
 -0.12147034D-03 -0.69944200D-04 -0.18947678D-04 -0.16275624D-04  0.35223302D-04
 -0.45888316D-05  0.53036173D-04  0.30644687D-04  0.91011719D-01  0.17027321D+00
  0.29419435D+00  0.47692360D+00  0.72425426D+00  0.10066453D+01  0.11968241D+01
  0.10661725D+01  0.52948381D+00  0.85242413D-01  0.89935781D-03  0.42608445D-03
  0.14213464D-01  0.49531076D-01  0.17836942D+00  0.39319320D+00  0.55348912D+00
 -0.26403235D-01 -0.72433663D+00 -0.42829571D+00  0.62727557D-05  0.75978390D-04
  0.15844492D-03  0.45439245D-03  0.23595967D-04 -0.19595606D-02 -0.50631283D-02
  0.41251986D-02 -0.28440577D-01  0.13844105D-02 -0.18927184D-03  0.17509957D-02
  0.23064709D-02  0.25443984D-02  0.21133221D-02  0.11222327D-02  0.28954190D-03
  0.42798406D-02  0.56375513D-02  0.62191015D-02  0.51654508D-02  0.27429977D-02
  0.70770774D-03  0.99249735D+01  0.13073512D+02  0.14422130D+02  0.11978708D+02
  0.63610265D+01  0.16411781D+01 -0.59318906D-07  0.57345701D-06  0.80863425D-06
  0.11565609D-05 -0.58566615D-08 -0.10606754D-05 -0.14490578D-06  0.14008559D-05
  0.19753530D-05  0.28252773D-05 -0.14306807D-07 -0.25910458D-05 -0.33597394D-03
  0.32479799D-02  0.45799906D-02  0.65505982D-02 -0.33171307D-04 -0.60075164D-02
  0.12807169D-04  0.31302303D-04  0.72587409D-01 -0.51407771D-07 -0.12793895D-06
 -0.29365180D-03 -0.62557651D-09 -0.17198712D-08 -0.38005025D-05  0.45086229D-03
  0.45086172D-03 -0.90172402D-03  0.81581282D-10 -0.47863285D-06 -0.11663356D-05
 -0.30511672D-03 -0.30511653D-03  0.61023325D-03 -0.37801615D-10  0.32383133D-06
  0.79023996D-06  0.51861292D-05  0.51861471D-05 -0.10372276D-04  0.38860956D-10
 -0.57345022D-08 -0.12979051D-07  0.17753219D-07 -0.14178343D-04 -0.46244120D-04
 -0.39417561D-08  0.42655845D-04  0.69347670D-04 -0.49317901D-07 -0.12081510D-06
  0.69384690D-04 -0.15074843D-07  0.14719730D-07  0.41588447D-05 -0.61486593D-04
  0.21009128D-07 -0.12317421D-04  0.92235335D-04 -0.65168317D-07 -0.15911308D-06
  0.92224443D-04  0.43821278D-08 -0.62075458D-02 -0.11570876D-01 -0.19615213D-01