 clch3f_ts-wavefunction
GAUSSIAN            211 MOL ORBITALS    339 PRIMITIVES        6 NUCLEI
  C    1    (CENTRE  1)   0.00033070  0.00005480 -0.94053370  CHARGE =  6.0
  H    2    (CENTRE  2)   0.00003590 -1.98906904 -1.17300214  CHARGE =  1.0
  H    3    (CENTRE  3)  -1.72213010  0.99468570 -1.17398291  CHARGE =  1.0
  H    4    (CENTRE  4)   1.72295780  0.99424539 -1.17459707  CHARGE =  1.0
  Cl   5    (CENTRE  5)  -0.01784846  0.00181792  3.10806659  CHARGE = 17.0
  F    6    (CENTRE  6)  -0.00035149 -0.00174044 -4.90094425  CHARGE =  9.0
CENTRE ASSIGNMENTS    1  1  1  1  1  1  1  1  1  1  1  1  1  1  1  1  1  1  1  1
CENTRE ASSIGNMENTS    1  1  1  1  1  1  1  1  1  1  1  1  1  1  1  1  1  1  1  1
CENTRE ASSIGNMENTS    1  1  1  1  1  1  1  1  1  1  1  1  1  1  1  1  1  1  1  1
CENTRE ASSIGNMENTS    1  1  1  1  1  1  1  1  1  1  1  1  2  2  2  2  2  2  2  2
CENTRE ASSIGNMENTS    2  2  2  2  2  2  2  2  2  2  2  2  2  2  2  2  2  2  2  3
CENTRE ASSIGNMENTS    3  3  3  3  3  3  3  3  3  3  3  3  3  3  3  3  3  3  3  3
CENTRE ASSIGNMENTS    3  3  3  3  3  3  4  4  4  4  4  4  4  4  4  4  4  4  4  4
CENTRE ASSIGNMENTS    4  4  4  4  4  4  4  4  4  4  4  4  4  5  5  5  5  5  5  5
CENTRE ASSIGNMENTS    5  5  5  5  5  5  5  5  5  5  5  5  5  5  5  5  5  5  5  5
CENTRE ASSIGNMENTS    5  5  5  5  5  5  5  5  5  5  5  5  5  5  5  5  5  5  5  5
CENTRE ASSIGNMENTS    5  5  5  5  5  5  5  5  5  5  5  5  5  5  5  5  5  5  5  5
CENTRE ASSIGNMENTS    5  5  5  5  5  5  5  5  5  5  5  5  5  5  5  5  5  5  5  5
CENTRE ASSIGNMENTS    5  5  5  5  5  5  5  5  5  5  5  5  5  5  5  5  5  5  5  5
CENTRE ASSIGNMENTS    5  5  5  5  5  5  5  6  6  6  6  6  6  6  6  6  6  6  6  6
CENTRE ASSIGNMENTS    6  6  6  6  6  6  6  6  6  6  6  6  6  6  6  6  6  6  6  6
CENTRE ASSIGNMENTS    6  6  6  6  6  6  6  6  6  6  6  6  6  6  6  6  6  6  6  6
CENTRE ASSIGNMENTS    6  6  6  6  6  6  6  6  6  6  6  6  6  6  6  6  6  6  6
TYPE ASSIGNMENTS      1  1  1  1  1  1  1  1  1  1  1  1  1  1  1  1  2  2  2  3
TYPE ASSIGNMENTS      3  3  4  4  4  2  3  4  2  3  4  2  3  4  5  6  7  8  9 10
TYPE ASSIGNMENTS      5  6  7  8  9 10  5  6  7  8  9 10 11 12 13 17 14 15 18 19
TYPE ASSIGNMENTS     16 20 11 12 13 17 14 15 18 19 16 20  1  1  1  1  1  1  2  3
TYPE ASSIGNMENTS      4  2  3  4  2  3  4  5  6  7  8  9 10  5  6  7  8  9 10  1
TYPE ASSIGNMENTS      1  1  1  1  1  2  3  4  2  3  4  2  3  4  5  6  7  8  9 10
TYPE ASSIGNMENTS      5  6  7  8  9 10  1  1  1  1  1  1  2  3  4  2  3  4  2  3
TYPE ASSIGNMENTS      4  5  6  7  8  9 10  5  6  7  8  9 10  1  1  1  1  1  1  1
TYPE ASSIGNMENTS      1  1  1  1  1  1  1  1  1  1  1  1  1  1  1  1  1  1  1  1
TYPE ASSIGNMENTS      1  1  1  1  2  2  2  2  2  2  3  3  3  3  3  3  4  4  4  4
TYPE ASSIGNMENTS      4  4  2  2  2  2  2  2  3  3  3  3  3  3  4  4  4  4  4  4
TYPE ASSIGNMENTS      2  3  4  2  3  4  2  3  4  5  6  7  8  9 10  5  6  7  8  9
TYPE ASSIGNMENTS     10  5  6  7  8  9 10 11 12 13 17 14 15 18 19 16 20 11 12 13
TYPE ASSIGNMENTS     17 14 15 18 19 16 20  1  1  1  1  1  1  1  1  1  1  1  1  1
TYPE ASSIGNMENTS      1  1  1  2  2  2  3  3  3  4  4  4  2  3  4  2  3  4  2  3
TYPE ASSIGNMENTS      4  5  6  7  8  9 10  5  6  7  8  9 10  5  6  7  8  9 10 11
TYPE ASSIGNMENTS     12 13 17 14 15 18 19 16 20 11 12 13 17 14 15 18 19 16 20
EXPONENTS  0.8236000D+04 0.1235000D+04 0.2808000D+03 0.7927000D+02 0.2559000D+02
EXPONENTS  0.8997000D+01 0.3319000D+01 0.2808000D+03 0.7927000D+02 0.2559000D+02
EXPONENTS  0.8997000D+01 0.3319000D+01 0.3643000D+00 0.9059000D+00 0.1285000D+00
EXPONENTS  0.4402000D-01 0.1871000D+02 0.4133000D+01 0.1200000D+01 0.1871000D+02
EXPONENTS  0.4133000D+01 0.1200000D+01 0.1871000D+02 0.4133000D+01 0.1200000D+01
EXPONENTS  0.3827000D+00 0.3827000D+00 0.3827000D+00 0.1209000D+00 0.1209000D+00
EXPONENTS  0.1209000D+00 0.3569000D-01 0.3569000D-01 0.3569000D-01 0.1097000D+01
EXPONENTS  0.1097000D+01 0.1097000D+01 0.1097000D+01 0.1097000D+01 0.1097000D+01
EXPONENTS  0.3180000D+00 0.3180000D+00 0.3180000D+00 0.3180000D+00 0.3180000D+00
EXPONENTS  0.3180000D+00 0.1000000D+00 0.1000000D+00 0.1000000D+00 0.1000000D+00
EXPONENTS  0.1000000D+00 0.1000000D+00 0.7610000D+00 0.7610000D+00 0.7610000D+00
EXPONENTS  0.7610000D+00 0.7610000D+00 0.7610000D+00 0.7610000D+00 0.7610000D+00
EXPONENTS  0.7610000D+00 0.7610000D+00 0.2680000D+00 0.2680000D+00 0.2680000D+00
EXPONENTS  0.2680000D+00 0.2680000D+00 0.2680000D+00 0.2680000D+00 0.2680000D+00
EXPONENTS  0.2680000D+00 0.2680000D+00 0.3387000D+02 0.5095000D+01 0.1159000D+01
EXPONENTS  0.3258000D+00 0.1027000D+00 0.2526000D-01 0.1407000D+01 0.1407000D+01
EXPONENTS  0.1407000D+01 0.3880000D+00 0.3880000D+00 0.3880000D+00 0.1020000D+00
EXPONENTS  0.1020000D+00 0.1020000D+00 0.1057000D+01 0.1057000D+01 0.1057000D+01
EXPONENTS  0.1057000D+01 0.1057000D+01 0.1057000D+01 0.2470000D+00 0.2470000D+00
EXPONENTS  0.2470000D+00 0.2470000D+00 0.2470000D+00 0.2470000D+00 0.3387000D+02
EXPONENTS  0.5095000D+01 0.1159000D+01 0.3258000D+00 0.1027000D+00 0.2526000D-01
EXPONENTS  0.1407000D+01 0.1407000D+01 0.1407000D+01 0.3880000D+00 0.3880000D+00
EXPONENTS  0.3880000D+00 0.1020000D+00 0.1020000D+00 0.1020000D+00 0.1057000D+01
EXPONENTS  0.1057000D+01 0.1057000D+01 0.1057000D+01 0.1057000D+01 0.1057000D+01
EXPONENTS  0.2470000D+00 0.2470000D+00 0.2470000D+00 0.2470000D+00 0.2470000D+00
EXPONENTS  0.2470000D+00 0.3387000D+02 0.5095000D+01 0.1159000D+01 0.3258000D+00
EXPONENTS  0.1027000D+00 0.2526000D-01 0.1407000D+01 0.1407000D+01 0.1407000D+01
EXPONENTS  0.3880000D+00 0.3880000D+00 0.3880000D+00 0.1020000D+00 0.1020000D+00
EXPONENTS  0.1020000D+00 0.1057000D+01 0.1057000D+01 0.1057000D+01 0.1057000D+01
EXPONENTS  0.1057000D+01 0.1057000D+01 0.2470000D+00 0.2470000D+00 0.2470000D+00
EXPONENTS  0.2470000D+00 0.2470000D+00 0.2470000D+00 0.4561000D+06 0.6833000D+05
EXPONENTS  0.1555000D+05 0.4405000D+04 0.1439000D+04 0.5204000D+03 0.2031000D+03
EXPONENTS  0.8396000D+02 0.3620000D+02 0.1583000D+02 0.6334000D+01 0.4405000D+04
EXPONENTS  0.1439000D+04 0.5204000D+03 0.2031000D+03 0.8396000D+02 0.3620000D+02
EXPONENTS  0.1583000D+02 0.6334000D+01 0.2694000D+01 0.1439000D+04 0.2031000D+03
EXPONENTS  0.8396000D+02 0.3620000D+02 0.1583000D+02 0.6334000D+01 0.2694000D+01
EXPONENTS  0.4313000D+00 0.9768000D+00 0.1625000D+00 0.5910000D-01 0.6633000D+03
EXPONENTS  0.1568000D+03 0.4998000D+02 0.1842000D+02 0.7240000D+01 0.2922000D+01
EXPONENTS  0.6633000D+03 0.1568000D+03 0.4998000D+02 0.1842000D+02 0.7240000D+01
EXPONENTS  0.2922000D+01 0.6633000D+03 0.1568000D+03 0.4998000D+02 0.1842000D+02
EXPONENTS  0.7240000D+01 0.2922000D+01 0.1568000D+03 0.4998000D+02 0.1842000D+02
EXPONENTS  0.7240000D+01 0.2922000D+01 0.3818000D+00 0.1568000D+03 0.4998000D+02
EXPONENTS  0.1842000D+02 0.7240000D+01 0.2922000D+01 0.3818000D+00 0.1568000D+03
EXPONENTS  0.4998000D+02 0.1842000D+02 0.7240000D+01 0.2922000D+01 0.3818000D+00
EXPONENTS  0.1022000D+01 0.1022000D+01 0.1022000D+01 0.1301000D+00 0.1301000D+00
EXPONENTS  0.1301000D+00 0.4190000D-01 0.4190000D-01 0.4190000D-01 0.1046000D+01
EXPONENTS  0.1046000D+01 0.1046000D+01 0.1046000D+01 0.1046000D+01 0.1046000D+01
EXPONENTS  0.3440000D+00 0.3440000D+00 0.3440000D+00 0.3440000D+00 0.3440000D+00
EXPONENTS  0.3440000D+00 0.1350000D+00 0.1350000D+00 0.1350000D+00 0.1350000D+00
EXPONENTS  0.1350000D+00 0.1350000D+00 0.7060000D+00 0.7060000D+00 0.7060000D+00
EXPONENTS  0.7060000D+00 0.7060000D+00 0.7060000D+00 0.7060000D+00 0.7060000D+00
EXPONENTS  0.7060000D+00 0.7060000D+00 0.3120000D+00 0.3120000D+00 0.3120000D+00
EXPONENTS  0.3120000D+00 0.3120000D+00 0.3120000D+00 0.3120000D+00 0.3120000D+00
EXPONENTS  0.3120000D+00 0.3120000D+00 0.1950000D+05 0.2923000D+04 0.6645000D+03
EXPONENTS  0.1875000D+03 0.6062000D+02 0.2142000D+02 0.7950000D+01 0.6645000D+03
EXPONENTS  0.1875000D+03 0.6062000D+02 0.2142000D+02 0.7950000D+01 0.8815000D+00
EXPONENTS  0.2257000D+01 0.3041000D+00 0.9158000D-01 0.4388000D+02 0.9926000D+01
EXPONENTS  0.2930000D+01 0.4388000D+02 0.9926000D+01 0.2930000D+01 0.4388000D+02
EXPONENTS  0.9926000D+01 0.2930000D+01 0.9132000D+00 0.9132000D+00 0.9132000D+00
EXPONENTS  0.2672000D+00 0.2672000D+00 0.2672000D+00 0.7361000D-01 0.7361000D-01
EXPONENTS  0.7361000D-01 0.3107000D+01 0.3107000D+01 0.3107000D+01 0.3107000D+01
EXPONENTS  0.3107000D+01 0.3107000D+01 0.8550000D+00 0.8550000D+00 0.8550000D+00
EXPONENTS  0.8550000D+00 0.8550000D+00 0.8550000D+00 0.2920000D+00 0.2920000D+00
EXPONENTS  0.2920000D+00 0.2920000D+00 0.2920000D+00 0.2920000D+00 0.1917000D+01
EXPONENTS  0.1917000D+01 0.1917000D+01 0.1917000D+01 0.1917000D+01 0.1917000D+01
EXPONENTS  0.1917000D+01 0.1917000D+01 0.1917000D+01 0.1917000D+01 0.7240000D+00
EXPONENTS  0.7240000D+00 0.7240000D+00 0.7240000D+00 0.7240000D+00 0.7240000D+00
EXPONENTS  0.7240000D+00 0.7240000D+00 0.7240000D+00 0.7240000D+00
MO    1     MO 0.0        OCC NO =    2.0000300  ORB. ENERGY =    0.000000
  0.31884578D-04  0.59439276D-04  0.10046047D-03  0.15101083D-03  0.18548976D-03
  0.15654681D-03  0.58865689D-04 -0.14463024D-07 -0.10810214D-06 -0.40400238D-06
 -0.11271037D-05 -0.15100083D-05  0.17830382D-05  0.55565262D-05 -0.20279046D-04
 -0.20092462D-05  0.79709288D-04  0.74732524D-04  0.53214009D-04 -0.79224972D-04
 -0.74278447D-04 -0.52890679D-04  0.55403501D-05  0.51944304D-05  0.36987439D-05
  0.25661465D-03 -0.25508673D-03  0.10646559D-05  0.32833039D-03 -0.32631810D-03
 -0.71966152D-06  0.65879470D-05 -0.65466201D-05  0.29290501D-07 -0.43664844D-04
  0.44520447D-04 -0.85560261D-06  0.88495503D-04 -0.36188188D-03  0.35959951D-03
 -0.13777133D-03  0.13585560D-03  0.19157353D-05  0.27555102D-03  0.70673152D-04
 -0.70505736D-04 -0.28606617D-04  0.29175572D-04 -0.56895569D-06  0.58140009D-04
 -0.46609701D-04  0.46270545D-04  0.65675127D-04 -0.65015148D-04 -0.97239820D-06
  0.65689102D-04 -0.66045027D-04 -0.15401429D-04 -0.26271448D-03  0.26109047D-03
  0.18318623D-04  0.33396706D-04 -0.18942081D-04  0.19672902D-04  0.28840129D-06
 -0.18855672D-04  0.16255146D-04 -0.37015908D-04  0.75681916D-04 -0.75273851D-04
  0.36150704D-04  0.73800596D-04  0.28130176D-04  0.50733931D-04  0.74807151D-04
 -0.24865572D-03 -0.78986992D-03  0.87471786D-05  0.34713468D-05 -0.49698448D-04
 -0.16514317D-04  0.59336914D-04 -0.20076890D-03 -0.19186014D-03  0.53621746D-04
 -0.12113588D-03 -0.15629615D-04  0.76972143D-04 -0.29591954D-04 -0.47380189D-04
  0.22157353D-04 -0.32019316D-04 -0.21081730D-03  0.30325234D-04  0.82609472D-05
 -0.38586181D-04  0.20607729D-04  0.44179872D-04 -0.21989902D-04 -0.38312251D-04
 -0.69097722D-04 -0.10188455D-03  0.36310162D-03  0.10886734D-02 -0.11785443D-04
  0.60349257D-04 -0.36291851D-04  0.23898710D-04  0.23067177D-03 -0.15778049D-03
  0.26729931D-03  0.13489131D-03 -0.10023700D-03  0.22877569D-04 -0.50419076D-06
 -0.66841495D-04  0.67345686D-04 -0.13072873D-03  0.25573350D-03 -0.13419849D-03
 -0.22713450D-04 -0.31444101D-04  0.54157551D-04 -0.29971458D-04  0.18083575D-04
 -0.28772653D-04  0.10525774D-04  0.18983667D-04  0.27991406D-04 -0.86524532D-04
 -0.29206449D-03  0.33035699D-05  0.17828848D-04  0.48312865D-05 -0.58520086D-05
  0.10421995D-03 -0.33307104D-04 -0.70180163D-04  0.75255299D-04 -0.40800688D-04
 -0.54494487D-05 -0.14456744D-04  0.31551238D-04 -0.17094493D-04 -0.18974341D-04
  0.46260493D-04  0.76701569D-04 -0.71556784D-05  0.21151887D-04 -0.13996208D-04
  0.69481740D-05  0.37120235D-04 -0.48036487D-04  0.29538947D-04  0.55264218D-04
  0.95484311D-04  0.15479129D-03  0.23506542D-03  0.32671882D-03  0.38844365D-03
  0.34603910D-03  0.17185033D-03  0.27666450D-04  0.29189739D-06  0.14054977D-06
  0.46885051D-05  0.16338502D-04  0.58837590D-04  0.12970014D-03  0.18257594D-03
 -0.87094675D-05 -0.23893233D-03 -0.14127919D-03  0.46330847D-09  0.56117970D-08
  0.11702811D-07  0.33561624D-07  0.17428084D-08 -0.14473400D-06 -0.37396486D-06
  0.30468897D-06 -0.89787148D-05  0.44603618D-05  0.18961579D-06  0.82349829D+01
  0.10847399D+02  0.11966379D+02  0.99390147D+01  0.52778926D+01  0.13617239D+01
 -0.81848051D+01 -0.10781303D+02 -0.11893465D+02 -0.98784538D+01 -0.52457331D+01
 -0.13534266D+01  0.58634506D-01  0.77235361D-01  0.85202693D-01  0.70767508D-01
  0.37579510D-01  0.96957101D-02 -0.32593951D-03  0.31509735D-02  0.44432015D-02
  0.63549536D-02 -0.32180590D-04 -0.58280918D-02  0.32395357D-03 -0.31317747D-02
 -0.44161293D-02 -0.63162331D-02  0.31984515D-04  0.57925814D-02 -0.24258987D-05
  0.23452027D-04  0.33069807D-04  0.47298572D-04 -0.23951331D-06 -0.43377251D-04
  0.54365808D-01 -0.54034551D-01  0.39032758D-03 -0.45657626D-03  0.45380748D-03
 -0.43158478D-05 -0.41114436D-04  0.40863955D-04 -0.27207349D-06 -0.39092536D-05
  0.97317066D-05 -0.58224530D-05  0.13180412D-04 -0.69612221D-03  0.69190915D-03
  0.14562216D-05 -0.37346086D-05  0.22783870D-05 -0.50202464D-05  0.25278174D-03
 -0.25125182D-03 -0.73442793D-06  0.90592328D-06 -0.17149535D-06  0.16160995D-05
 -0.43333223D-04  0.43064328D-04  0.17925122D-05 -0.18540250D-05  0.62005497D-07
  0.18604682D-05 -0.15871813D-05 -0.25021833D-04 -0.72380047D-05  0.71492565D-05
  0.24835816D-04  0.50184539D-04  0.10406210D-04 -0.10299463D-04 -0.33782750D-06
  0.10329005D-04 -0.10410805D-04  0.57868740D-05 -0.41547636D-04  0.41309193D-04
 -0.47733915D-05 -0.10718415D-04 -0.56236997D-05 -0.10482586D-04 -0.17770318D-04
 -0.26906665D-04 -0.33639258D-04 -0.28935794D-04 -0.11097500D-04  0.51823563D-08
  0.68604694D-07  0.24918473D-06  0.73920180D-06  0.85178078D-06 -0.10346146D-05
 -0.26485069D-06  0.17959232D-05  0.32526378D-05 -0.20630717D-03 -0.20176391D-03
 -0.13331394D-03  0.20505661D-03  0.20054089D-03  0.13250584D-03  0.12493882D-04
  0.12218744D-04  0.80734407D-05 -0.65743831D-05  0.65545731D-05  0.92882787D-06
 -0.46939201D-04  0.46640753D-04  0.27900329D-05 -0.13885032D-04  0.13800908D-04
  0.44751934D-06 -0.49106098D-04  0.49908272D-04 -0.80217399D-06  0.99612272D-04
 -0.94074957D-04  0.93411510D-04  0.24747153D-04 -0.25013542D-04  0.26638868D-06
 -0.50036724D-04  0.72189421D-04 -0.71699380D-04 -0.12789439D-04  0.12555065D-04
  0.23437348D-06  0.25468590D-04 -0.52172638D-04  0.51819545D-04 -0.50067756D-04
  0.49653399D-04  0.32943606D-06 -0.50250412D-04  0.49961193D-04  0.13329041D-03
  0.20045368D-03 -0.19892139D-03 -0.13427872D-03 -0.26889461D-03  0.17778688D-04
 -0.17632755D-04 -0.47625624D-07  0.17836105D-04 -0.17738733D-04 -0.42436122D-04
 -0.71172169D-04  0.70636997D-04  0.42578999D-04  0.85417887D-04
MO    2     MO 0.0        OCC NO =    2.0000300  ORB. ENERGY =    0.000000
  0.31548541D-04  0.58812835D-04  0.99401705D-04  0.14941930D-03  0.18353485D-03
  0.15489694D-03  0.58245294D-04 -0.14366429D-07 -0.10738015D-06 -0.40130415D-06
 -0.11195761D-05 -0.14999233D-05  0.17711297D-05  0.55225497D-05 -0.20242470D-04
 -0.20154787D-05  0.77362713D-04  0.72532461D-04  0.51647433D-04  0.77846208D-04
  0.72985768D-04  0.51970215D-04  0.54602001D-05  0.51192846D-05  0.36452356D-05
  0.25679186D-03  0.25841315D-03  0.79313442D-06  0.32731583D-03  0.32932284D-03
 -0.96772006D-06  0.66175586D-05  0.66572149D-05  0.23544566D-07  0.47341894D-04
 -0.46810806D-04 -0.53108881D-06  0.93208342D-04 -0.35905317D-03 -0.36118779D-03
  0.13673600D-03 -0.13860282D-03  0.18668177D-05  0.27347508D-03  0.67420139D-04
  0.68105878D-04  0.29518097D-04 -0.28989068D-04 -0.52902892D-06  0.58062929D-04
 -0.47001357D-04 -0.47237058D-04  0.65478059D-04  0.66131068D-04 -0.74478468D-06
  0.65471794D-04  0.65106951D-04  0.19779652D-04 -0.26190597D-03 -0.26350015D-03
 -0.17545298D-04  0.36512781D-04 -0.18959534D-04 -0.18265251D-04  0.23014181D-06
 -0.19009832D-04 -0.21611908D-04  0.34278724D-04  0.75888434D-04  0.76407661D-04
 -0.34969149D-04  0.68896071D-04 -0.28569482D-04 -0.51526237D-04 -0.75975407D-04
  0.27102646D-03  0.80129339D-03 -0.83913028D-05  0.29363964D-05  0.51818996D-04
  0.17565563D-04  0.58705708D-04  0.20730748D-03  0.19113342D-03  0.53154671D-04
  0.12283703D-03  0.15783154D-04 -0.79051895D-04  0.30748202D-04  0.48303693D-04
  0.20983198D-04 -0.34273817D-04  0.21021587D-03 -0.31198170D-04 -0.87093174D-05
  0.39907487D-04  0.20410572D-04  0.42450935D-04  0.22170555D-04 -0.10229788D-04
 -0.18449843D-04 -0.27204283D-04  0.10363547D-03  0.29029446D-03 -0.29661915D-05
  0.18714947D-04 -0.61587031D-05  0.66711441D-05  0.10564090D-03  0.31699704D-04
  0.69959367D-04  0.74999031D-04  0.40883752D-04  0.60421315D-05  0.13292662D-04
 -0.31355860D-04  0.18063198D-04 -0.20042127D-04  0.41879567D-04 -0.78646281D-04
  0.67914973D-05 -0.21487378D-04  0.14695881D-04  0.69650402D-05  0.36031017D-04
  0.46480692D-04  0.39133312D-04  0.70578539D-04  0.10406801D-03 -0.34676014D-03
 -0.10848502D-02  0.11623825D-04  0.58537857D-04  0.35031927D-04 -0.22824361D-04
  0.23021303D-03  0.15802196D-03 -0.25612212D-03  0.13415800D-03  0.10022328D-03
 -0.20262389D-04 -0.19819005D-05  0.65727286D-04 -0.63745386D-04 -0.13267033D-03
  0.25442909D-03  0.13206947D-03  0.22192738D-04  0.30911871D-04 -0.53104609D-04
 -0.30198032D-04  0.18201424D-04  0.28653688D-04  0.29501813D-04  0.55194745D-04
  0.95364277D-04  0.15459670D-03  0.23476992D-03  0.32630810D-03  0.38795533D-03
  0.34560409D-03  0.17163430D-03  0.27631670D-04  0.29153044D-06  0.14036149D-06
  0.46822244D-05  0.16316615D-04  0.58758771D-04  0.12952640D-03  0.18233136D-03
 -0.86978003D-05 -0.23861225D-03 -0.14108993D-03  0.47866081D-09  0.57977513D-08
  0.12090599D-07  0.34673733D-07  0.18005587D-08 -0.14952995D-06 -0.38635669D-06
  0.31478524D-06 -0.89564878D-05  0.44167533D-05  0.19026070D-06  0.81846377D+01
  0.10781082D+02  0.11893222D+02  0.98782517D+01  0.52456258D+01  0.13533989D+01
  0.82351817D+01  0.10847661D+02  0.11966668D+02  0.99392546D+01  0.52780200D+01
  0.13617568D+01  0.51168842D-01  0.67401335D-01  0.74354224D-01  0.61757005D-01
  0.32794683D-01  0.84611997D-02 -0.32390585D-03  0.31313134D-02  0.44154787D-02
  0.63153026D-02 -0.31979803D-04 -0.57917281D-02 -0.32590630D-03  0.31506524D-02
  0.44427488D-02  0.63543060D-02 -0.32177311D-04 -0.58274979D-02 -0.21281800D-05
  0.20573875D-04  0.29011311D-04  0.41493850D-04 -0.21011901D-06 -0.38053774D-04
  0.54034786D-01  0.54368488D-01  0.34100575D-03 -0.45349490D-03 -0.45630968D-03
 -0.38845320D-05 -0.40850904D-04 -0.41103203D-04 -0.23521530D-06  0.13591104D-04
 -0.84158626D-05 -0.51752414D-05  0.21305544D-04 -0.69106254D-03 -0.69536199D-03
 -0.46785073D-05  0.26437915D-05  0.20347159D-05 -0.70671098D-05  0.25107798D-03
  0.25264110D-03  0.10481795D-05 -0.91377364D-06 -0.13440586D-06  0.19131106D-05
 -0.43039970D-04 -0.43300768D-04  0.15433071D-05  0.14556112D-05  0.74589814D-07
  0.15131204D-05  0.17696221D-05  0.24430369D-04 -0.61430417D-05 -0.61364558D-05
 -0.24654138D-04  0.48731891D-04  0.10343226D-04  0.10459461D-04 -0.29840956D-06
  0.10414999D-04  0.10337479D-04 -0.43248624D-05 -0.41444678D-04 -0.41715863D-04
  0.52200911D-05 -0.95643528D-05 -0.56113104D-05 -0.10459492D-04 -0.17731170D-04
 -0.26847389D-04 -0.33565149D-04 -0.28872047D-04 -0.11073052D-04  0.52775058D-08
  0.69864296D-07  0.25375983D-06  0.75277376D-06  0.86741972D-06 -0.10536104D-05
 -0.26238434D-06  0.18279431D-05  0.32627736D-05 -0.20534076D-03 -0.20081878D-03
 -0.13268946D-03 -0.20660268D-03 -0.20205291D-03 -0.13350490D-03  0.12597291D-04
  0.12319875D-04  0.81402625D-05 -0.55441990D-05 -0.55980132D-05  0.91523743D-06
 -0.47505814D-04 -0.47783829D-04  0.28525594D-05 -0.13770456D-04 -0.13855478D-04
  0.46050121D-06  0.51100324D-04 -0.50371190D-04 -0.72913398D-06  0.10068823D-03
 -0.93018583D-04 -0.93501792D-04 -0.25518789D-04  0.25311367D-04  0.20742187D-06
 -0.50413090D-04  0.71798465D-04  0.72190760D-04  0.12650449D-04 -0.12936995D-04
  0.28654577D-06  0.25360035D-04 -0.52611241D-04 -0.52899632D-04 -0.51006485D-04
 -0.51285113D-04  0.13884448D-06 -0.51083963D-04 -0.51199407D-04 -0.13303621D-03
  0.20410342D-03  0.20505475D-03  0.13261968D-03 -0.26329708D-03  0.18119970D-04
  0.18221758D-04  0.21408483D-07  0.18145028D-04  0.18186233D-04  0.42102622D-04
 -0.72504939D-04 -0.72851508D-04 -0.42166848D-04  0.83502192D-04
MO    3     MO 0.0        OCC NO =    2.0000210  ORB. ENERGY =    0.000000
 -0.14453668D-01 -0.26944549D-01 -0.45539959D-01 -0.68455052D-01 -0.84084770D-01
 -0.70964579D-01 -0.26684535D-01 -0.38140156D-05 -0.28507404D-04 -0.10653868D-03
 -0.29722632D-03 -0.39820132D-03  0.47020151D-03 -0.87192264D-03 -0.19343847D-02
 -0.82065265D-04 -0.30330243D-05 -0.28436531D-05 -0.20248504D-05  0.50983294D-06
  0.47800079D-06  0.34036504D-06  0.11672275D-02  0.10943499D-02  0.77924235D-03
 -0.28268629D-05  0.27409805D-06  0.60719379D-03  0.30365199D-05 -0.16636277D-06
 -0.37919792D-03  0.13225876D-07  0.20946733D-08  0.46694031D-05 -0.10555604D-03
 -0.10556628D-03  0.21112232D-03 -0.12267649D-05 -0.21354907D-05  0.27505220D-06
 -0.24080145D-04 -0.24074590D-04  0.48154735D-04 -0.66941273D-07  0.30453135D-05
  0.65717051D-07  0.11420878D-04  0.11424585D-04 -0.22845463D-04  0.38861829D-06
  0.69912126D-06 -0.29252672D-07 -0.12030857D-06  0.36267325D-04  0.77247481D-05
 -0.64323228D-07 -0.10882091D-03 -0.11543969D-04  0.42524893D-06  0.18941057D-07
 -0.11630275D-04  0.12963686D-05 -0.33591813D-06  0.51874071D-04 -0.85668256D-04
 -0.25683872D-06 -0.15539789D-03  0.12856960D-03  0.12645931D-05 -0.22432694D-06
  0.12843516D-03 -0.12298011D-06 -0.48307759D-05 -0.87125034D-05 -0.12846581D-04
  0.75271590D-03  0.23594783D-03  0.50643801D-05  0.19436879D-06  0.95857121D-04
  0.28425969D-04  0.20855588D-06  0.19933646D-03 -0.42567921D-05  0.24798870D-06
  0.44034937D-04  0.38734524D-04 -0.73918778D-04  0.54244348D-04  0.19674430D-04
  0.25708883D-06 -0.44866155D-06  0.76004435D-04 -0.96519340D-05 -0.12042782D-04
  0.21694716D-04  0.20175480D-06 -0.25537556D-06 -0.34559029D-04 -0.48245337D-05
 -0.87012452D-05 -0.12829981D-04  0.75283709D-03  0.23870105D-03  0.51485427D-05
  0.83356008D-04 -0.48023782D-04  0.29916570D-04  0.17181686D-03 -0.99126914D-04
 -0.42718576D-05  0.38286524D-04 -0.21958466D-04  0.39296767D-04  0.21455726D-04
 -0.42566094D-04  0.21110368D-04 -0.11067462D-03  0.66085590D-04 -0.38352080D-04
 -0.11354593D-04 -0.10134101D-04  0.21488695D-04  0.22898820D-05 -0.30071440D-04
  0.17251194D-04 -0.48323989D-05 -0.87154305D-05 -0.12850897D-04  0.75258656D-03
  0.23323019D-03  0.49804573D-05 -0.82650788D-04 -0.47799986D-04  0.27082051D-04
 -0.17343179D-03 -0.10021240D-03 -0.40101436D-05 -0.37952325D-04 -0.22032949D-04
  0.38228144D-04  0.22899004D-04 -0.41231348D-04  0.18332344D-04  0.11118266D-03
 -0.65680880D-04 -0.37570596D-04 -0.11511770D-04 -0.10340241D-04  0.21852012D-04
 -0.17976895D-05  0.29836389D-04  0.17395631D-04 -0.15460244D+00 -0.28924467D+00
 -0.49975063D+00 -0.81015448D+00 -0.12302973D+01 -0.17099975D+01 -0.20330560D+01
 -0.18111170D+01 -0.89943898D+00 -0.14480207D+00 -0.15277473D-02 -0.72284131D-03
 -0.24112776D-01 -0.84028197D-01 -0.30259914D+00 -0.66704216D+00 -0.93898007D+00
  0.44792409D-01  0.12288185D+01  0.72659268D+00 -0.15531644D-04 -0.18812614D-03
 -0.39231723D-03 -0.11250975D-02 -0.58424748D-04  0.48519662D-02  0.12536549D-01
 -0.10214190D-01  0.46600009D-01 -0.38435180D-03 -0.13196930D-03 -0.37358863D-01
 -0.49210363D-01 -0.54286733D-01 -0.45089382D-01 -0.23943713D-01 -0.61776032D-02
  0.25849423D-02  0.34049737D-02  0.37562190D-02  0.31198340D-02  0.16567184D-02
  0.42744201D-03  0.59412931D+01  0.78260729D+01  0.86333835D+01  0.71707010D+01
  0.38078412D+01  0.98244293D+00  0.12616828D-05 -0.12197138D-04 -0.17199237D-04
 -0.24599459D-04  0.12456820D-06  0.22560024D-04 -0.91645538D-07  0.88597009D-06
  0.12493103D-05  0.17868442D-05 -0.90483277D-08 -0.16387047D-05 -0.21079224D-03
  0.20378037D-02  0.28735160D-02  0.41098880D-02 -0.20811894D-04 -0.37691549D-02
 -0.26083980D-03  0.18119934D-04  0.41653270D-01  0.28538241D-05 -0.21182598D-06
 -0.48392971D-03  0.97786028D-07 -0.43867252D-08 -0.98416794D-05 -0.71168794D-05
 -0.71266686D-05  0.14243548D-04  0.71818048D-06 -0.18182658D-05  0.23740729D-07
 -0.11141362D-03 -0.11141959D-03  0.22283321D-03 -0.27530929D-06 -0.30836705D-05
  0.28827002D-06 -0.14322322D-04 -0.14324476D-04  0.28646798D-04  0.92888908D-07
 -0.66529295D-06  0.38148885D-07  0.25530961D-06 -0.72128551D-05  0.54421167D-05
  0.24453663D-06  0.21623125D-04 -0.81667907D-05 -0.10104655D-05  0.15440475D-07
 -0.81595595D-05  0.46458073D-06 -0.33265676D-06  0.20730353D-05 -0.33737755D-04
 -0.32956933D-06 -0.61315341D-05  0.50604575D-04  0.13275396D-05 -0.87571739D-07
  0.50608689D-04 -0.59013818D-07 -0.87937950D-03 -0.16391649D-02 -0.27787497D-02
 -0.42074028D-02 -0.52601802D-02 -0.45246983D-02 -0.17353192D-02 -0.68419371D-06
 -0.90574436D-05 -0.32898283D-04 -0.97592137D-04 -0.11245523D-03  0.13659362D-03
 -0.95959136D-04 -0.15940613D-03  0.12410919D-04  0.30434959D-05  0.29764725D-05
  0.19666812D-05  0.17841614D-05  0.17448709D-05  0.11529100D-05  0.39019596D-02
  0.38160313D-02  0.25214132D-02  0.16956983D-05  0.40064654D-06  0.87921285D-03
 -0.55289061D-06  0.99770527D-08  0.21389054D-04  0.12745300D-06  0.46557140D-08
  0.93356930D-05 -0.35646906D-04 -0.35641506D-04  0.71288412D-04 -0.13859933D-05
 -0.15375360D-07  0.10570068D-06  0.21097098D-04  0.21094617D-04 -0.42191715D-04
  0.69154488D-06  0.31143633D-06 -0.61286395D-07  0.18116524D-04  0.18117051D-04
 -0.36233575D-04 -0.28736811D-06 -0.75149439D-06 -0.49529124D-07 -0.11603392D-05
 -0.30036504D-05  0.46414978D-04 -0.11639553D-05  0.88732250D-05 -0.69626268D-04
  0.46449728D-05  0.13772606D-06 -0.69618667D-04  0.18457861D-05  0.41090546D-06
  0.95419494D-06 -0.25392011D-04  0.41206114D-06 -0.27889687D-05  0.38089329D-04
 -0.16447775D-05 -0.73616133D-07  0.38086705D-04 -0.55002464D-06
MO    4     MO 0.0        OCC NO =    2.0000123  ORB. ENERGY =    0.000000
  0.26826043D-01  0.50009149D-01  0.84522274D-01  0.12705274D+00  0.15606154D+00
  0.13171043D+00  0.49526562D-01 -0.14569177D-05 -0.10889557D-04 -0.40696761D-04
 -0.11353763D-03 -0.15210912D-03  0.17961251D-03  0.26462149D-02 -0.36107026D-02
 -0.42244674D-04 -0.37311187D-05 -0.34981609D-05 -0.24908990D-05  0.16029040D-05
  0.15028244D-05  0.10701005D-05  0.36695997D-02  0.34404829D-02  0.24498288D-02
 -0.10027768D-04  0.60731199D-06  0.13052654D-02  0.43880311D-05 -0.17939907D-06
 -0.41702427D-03  0.45964685D-07  0.17454097D-08  0.37046085D-05 -0.31916386D-03
 -0.31921209D-03  0.63837595D-03 -0.37536448D-05 -0.83963163D-05  0.83395816D-06
  0.96015788D-05  0.96098605D-05 -0.19211439D-04 -0.20327142D-05  0.86370260D-05
 -0.24130280D-07 -0.17867855D-04 -0.17863494D-04  0.35731350D-04  0.61397927D-06
  0.66167029D-06  0.49554171D-07 -0.37608414D-06 -0.42208997D-04  0.22584956D-04
 -0.43846491D-06  0.12657591D-03 -0.33940992D-04  0.15667173D-05  0.51076688D-07
 -0.33813875D-04  0.44575838D-05 -0.76033194D-06  0.82069177D-04 -0.16373257D-03
 -0.63455533D-06 -0.24578200D-03  0.24570083D-03  0.29155511D-05 -0.42552560D-06
  0.24549689D-03  0.13702325D-05 -0.90322844D-04 -0.16290097D-03 -0.24019738D-03
  0.10229364D-02  0.68429336D-03  0.42673230D-05  0.54357079D-06 -0.57777169D-04
  0.33541432D-04  0.11783644D-06  0.30466219D-03 -0.43242654D-04  0.34524639D-06
  0.11105576D-03  0.75812314D-04 -0.14238635D-03  0.24277881D-04  0.11810847D-03
  0.65264037D-06 -0.12773308D-05  0.14266218D-03 -0.14789628D-04 -0.21037099D-04
  0.35826727D-04  0.22816153D-06 -0.13458337D-06 -0.62799070D-04 -0.90478331D-04
 -0.16318140D-03 -0.24061087D-03  0.10177524D-02  0.68989291D-03  0.44204986D-05
 -0.49865032D-04  0.29124185D-04  0.36378863D-04  0.26004082D-03 -0.15015748D-03
 -0.40509355D-04  0.96551572D-04 -0.55541638D-04  0.76722822D-04 -0.19919773D-04
 -0.10244660D-03  0.12236637D-03 -0.14231840D-03  0.12597953D-03 -0.73289764D-04
 -0.19605785D-04 -0.16301027D-04  0.35906812D-04  0.59079508D-05 -0.54459116D-04
  0.31421964D-04 -0.90152446D-04 -0.16259365D-03 -0.23974424D-03  0.10280625D-02
  0.67871321D-03  0.41142327D-05  0.50238543D-04  0.28684482D-04  0.30707525D-04
 -0.26760765D-03 -0.15453070D-03 -0.45610135D-04 -0.95737381D-04 -0.55422051D-04
  0.75043418D-04 -0.14982130D-04 -0.99065498D-04  0.11404763D-03  0.14607258D-03
 -0.12104549D-03 -0.68913186D-04 -0.19301545D-04 -0.16354868D-04  0.35656413D-04
 -0.48216790D-05  0.54403922D-04  0.31517738D-04  0.91313975D-01  0.17083870D+00
  0.29517139D+00  0.47850750D+00  0.72665955D+00  0.10099884D+01  0.12007988D+01
  0.10697133D+01  0.53124226D+00  0.85525509D-01  0.90234464D-03  0.42753066D-03
  0.14261707D-01  0.49699194D-01  0.17897485D+00  0.39452777D+00  0.55536777D+00
 -0.26492853D-01 -0.72679518D+00 -0.42974944D+00  0.62780605D-05  0.76042644D-04
  0.15857892D-03  0.45477672D-03  0.23615922D-04 -0.19612178D-02 -0.50674101D-02
  0.41286872D-02 -0.28545143D-01  0.14181843D-02 -0.18175266D-03 -0.67839249D-01
 -0.89360161D-01 -0.98578246D-01 -0.81876952D-01 -0.43478933D-01 -0.11217792D-01
  0.43014600D-02  0.56660291D-02  0.62505170D-02  0.51915438D-02  0.27568538D-02
  0.71128269D-03  0.99144086D+01  0.13059595D+02  0.14406778D+02  0.11965957D+02
  0.63542553D+01  0.16394311D+01  0.21229683D-05 -0.20523492D-04 -0.28940266D-04
 -0.41392236D-04  0.20960446D-06  0.37960585D-04 -0.14587457D-06  0.14102215D-05
  0.19885595D-05  0.28441661D-05 -0.14402457D-07 -0.26083685D-05 -0.33685999D-03
  0.32565457D-02  0.45920693D-02  0.65678739D-02 -0.33258789D-04 -0.60233598D-02
 -0.49179114D-03  0.31473613D-04  0.72555578D-01  0.20429311D-05 -0.13795010D-06
 -0.30638790D-03  0.97225705D-07 -0.18929466D-08 -0.39567298D-05  0.45439948D-03
  0.45443551D-03 -0.90883499D-03  0.11380105D-05  0.14203021D-04 -0.11752067D-05
 -0.30964041D-03 -0.30966096D-03  0.61930137D-03 -0.60857084D-06 -0.90936583D-05
  0.80160742D-06  0.43326809D-05  0.43319558D-05 -0.86646368D-05  0.19584493D-06
 -0.14177942D-06 -0.83840382D-08  0.84427938D-07 -0.14493847D-04 -0.46952876D-04
  0.62819426D-07  0.43595679D-04  0.70414930D-04 -0.31610324D-06 -0.11413921D-06
  0.70443697D-04  0.12296344D-05 -0.56589246D-06  0.42133033D-05 -0.62577604D-04
 -0.55959528D-06 -0.12476252D-04  0.93864731D-04  0.22572727D-05 -0.16365815D-06
  0.93868081D-04 -0.11018022D-06 -0.63566957D-02 -0.11848892D-01 -0.20086511D-01