 Entering Gaussian System, Link 0=/home/bruns/programas/chemistry/gaussian/g09/g09
 Input=GAUSSIAN.com
 Output=GAUSSIAN.log
 Initial command:
 /home/bruns/programas/chemistry/gaussian/g09/l1.exe /home/bruns/programas/chemistry/gaussian/work/Gau-4982.inp -scrdir=/home/bruns/programas/chemistry/gaussian/work/
 Entering Link 1 = /home/bruns/programas/chemistry/gaussian/g09/l1.exe PID=      4984.
  
 Copyright (c) 1988,1990,1992,1993,1995,1998,2003,2009,2010,
            Gaussian, Inc.  All Rights Reserved.
  
 This is part of the Gaussian(R) 09 program.  It is based on
 the Gaussian(R) 03 system (copyright 2003, Gaussian, Inc.),
 the Gaussian(R) 98 system (copyright 1998, Gaussian, Inc.),
 the Gaussian(R) 94 system (copyright 1995, Gaussian, Inc.),
 the Gaussian 92(TM) system (copyright 1992, Gaussian, Inc.),
 the Gaussian 90(TM) system (copyright 1990, Gaussian, Inc.),
 the Gaussian 88(TM) system (copyright 1988, Gaussian, Inc.),
 the Gaussian 86(TM) system (copyright 1986, Carnegie Mellon
 University), and the Gaussian 82(TM) system (copyright 1983,
 Carnegie Mellon University). Gaussian is a federally registered
 trademark of Gaussian, Inc.
  
 This software contains proprietary and confidential information,
 including trade secrets, belonging to Gaussian, Inc.
  
 This software is provided under written license and may be
 used, copied, transmitted, or stored only in accord with that
 written license.
  
 The following legend is applicable only to US Government
 contracts under FAR:
  
                    RESTRICTED RIGHTS LEGEND
  
 Use, reproduction and disclosure by the US Government is
 subject to restrictions as set forth in subparagraphs (a)
 and (c) of the Commercial Computer Software - Restricted
 Rights clause in FAR 52.227-19.
  
 Gaussian, Inc.
 340 Quinnipiac St., Bldg. 40, Wallingford CT 06492
  
  
 ---------------------------------------------------------------
 Warning -- This program may not be used in any manner that
 competes with the business of Gaussian, Inc. or will provide
 assistance to any competitor of Gaussian, Inc.  The licensee
 of this program is prohibited from giving any competitor of
 Gaussian, Inc. access to this program.  By using this program,
 the user acknowledges that Gaussian, Inc. is engaged in the
 business of creating and licensing software in the field of
 computational chemistry and represents and warrants to the
 licensee that it is not a competitor of Gaussian, Inc. and that
 it will not use this program in any manner prohibited above.
 ---------------------------------------------------------------
  

 Cite this work as:
 Gaussian 09, Revision B.01,
 M. J. Frisch, G. W. Trucks, H. B. Schlegel, G. E. Scuseria, 
 M. A. Robb, J. R. Cheeseman, G. Scalmani, V. Barone, B. Mennucci, 
 G. A. Petersson, H. Nakatsuji, M. Caricato, X. Li, H. P. Hratchian, 
 A. F. Izmaylov, J. Bloino, G. Zheng, J. L. Sonnenberg, M. Hada, 
 M. Ehara, K. Toyota, R. Fukuda, J. Hasegawa, M. Ishida, T. Nakajima, 
 Y. Honda, O. Kitao, H. Nakai, T. Vreven, J. A. Montgomery, Jr., 
 J. E. Peralta, F. Ogliaro, M. Bearpark, J. J. Heyd, E. Brothers, 
 K. N. Kudin, V. N. Staroverov, T. Keith, R. Kobayashi, J. Normand, 
 K. Raghavachari, A. Rendell, J. C. Burant, S. S. Iyengar, J. Tomasi, 
 M. Cossi, N. Rega, J. M. Millam, M. Klene, J. E. Knox, J. B. Cross, 
 V. Bakken, C. Adamo, J. Jaramillo, R. Gomperts, R. E. Stratmann, 
 O. Yazyev, A. J. Austin, R. Cammi, C. Pomelli, J. W. Ochterski, 
 R. L. Martin, K. Morokuma, V. G. Zakrzewski, G. A. Voth, 
 P. Salvador, J. J. Dannenberg, S. Dapprich, A. D. Daniels, 
 O. Farkas, J. B. Foresman, J. V. Ortiz, J. Cioslowski, 
 and D. J. Fox, Gaussian, Inc., Wallingford CT, 2010.
 
 ******************************************
 Gaussian 09:  EM64L-G09RevB.01 12-Aug-2010
                24-Aug-2020 
 ******************************************
 %nproc=8
 Will use up to    8 processors via shared memory.
 %mem=8GB
 -----------------------------------------------------
 # QCISD aug-cc-pvtz nosymm density=current output=wfn
 -----------------------------------------------------
 1/30=1,38=1/1;
 2/12=2,15=1,17=6,18=5,40=1/2;
 3/5=16,6=1,7=10,11=9,16=1,25=1,30=1,71=1/1,2,3;
 4//1;
 5/5=2,38=5/2;
 8/6=4,9=120000,10=1/1,4;
 9/5=8,15=1/13;
 11/28=-7,31=1,32=3,42=3/11;
 10/5=6,13=10,31=1/2;
 6/7=2,8=2,9=2,10=2,22=-1,31=1/1;
 99/5=1,6=1100,9=1/99;
 ----------------------
 clch3f_ts-wavefunction
 ----------------------
 Symbolic Z-matrix:
 Charge = -1 Multiplicity = 1
 C                     0.00018   0.00003  -0.49771 
 H                     0.00002  -1.05257  -0.62073 
 H                    -0.91131   0.52637  -0.62125 
 H                     0.91175   0.52613  -0.62157 
 Cl                    0.00056   0.00096   1.64472 
 F                     0.00981  -0.00092  -2.59347 
 
                          Input orientation:                          
 ---------------------------------------------------------------------
 Center     Atomic      Atomic             Coordinates (Angstroms)
 Number     Number       Type             X           Y           Z
 ---------------------------------------------------------------------
      1          6           0        0.000175    0.000029   -0.497709
      2          1           0        0.000019   -1.052570   -0.620726
      3          1           0       -0.911312    0.526365   -0.621245
      4          1           0        0.911750    0.526132   -0.621570
      5         17           0        0.000555    0.000962    1.644718
      6          9           0        0.009814   -0.000921   -2.593468
 ---------------------------------------------------------------------
                    Distance matrix (angstroms):
                    1          2          3          4          5
     1  C    0.000000
     2  H    1.059763   0.000000
     3  H    1.059764   1.823063   0.000000
     4  H    1.059762   1.823062   1.823062   0.000000
     5  Cl   2.142427   2.498433   2.498427   2.498428   0.000000
     6  F    2.095781   2.235570   2.239680   2.231514   4.238197
                    6
     6  F    0.000000
 Symmetry turned off by external request.
 This structure is nearly, but not quite of a higher symmetry.
 Consider Symm=Loose if the higher symmetry is desired.
 Stoichiometry    CH3ClF(1-)
 Framework group  C1[X(CH3ClF)]
 Deg. of freedom    12
 Full point group                 C1      NOp   1
 Rotational constants (GHZ):    150.8658757      2.2147134      2.2147106
 Standard basis: Aug-CC-pVTZ (5D, 7F)
 Integral buffers will be    131072 words long.
 Raffenetti 1 integral format.
 Two-electron integral symmetry is turned off.
   211 basis functions,   339 primitive gaussians,   244 cartesian basis functions
    18 alpha electrons       18 beta electrons
       nuclear repulsion energy        84.9840524711 Hartrees.
 NAtoms=    6 NActive=    6 NUniq=    6 SFac= 1.00D+00 NAtFMM=   50 NAOKFM=F Big=F
 One-electron integrals computed using PRISM.
 NBasis=   211 RedAO= T  NBF=   211
 NBsUse=   211 1.00D-06 NBFU=   211
 Harris functional with IExCor=  205 diagonalized for initial guess.
 ExpMin= 2.53D-02 ExpMax= 4.56D+05 ExpMxC= 1.44D+03 IAcc=3 IRadAn=         0 AccDes= 0.00D+00
 HarFok:  IExCor=  205 AccDes= 0.00D+00 IRadAn=         0 IDoV= 1
 ScaDFX=  1.000000  1.000000  1.000000  1.000000
 FoFCou: FMM=F IPFlag=           0 FMFlag=      100000 FMFlg1=           0
         NFxFlg=           0 DoJE=T BraDBF=F KetDBF=T FulRan=T
         Omega=  0.000000  0.000000  1.000000  0.000000  0.000000 ICntrl=     500 IOpCl=  0
         NMat0=    1 NMatS0=    1 NMatT0=    0 NMatD0=    1 NMtDS0=    0 NMtDT0=    0
         I1Cent=           4 NGrid=           0.
 Symmetry not used in FoFCou.
 Requested convergence on RMS density matrix=1.00D-08 within 128 cycles.
 Requested convergence on MAX density matrix=1.00D-06.
 Requested convergence on             energy=1.00D-06.
 No special actions if energy rises.
 Keep R1 ints in memory in canonical form, NReq=454274131.
 SCF Done:  E(RHF) =  -598.617123004     A.U. after   12 cycles
             Convg  =    0.9413D-08             -V/T =  2.0001
 ExpMin= 2.53D-02 ExpMax= 4.56D+05 ExpMxC= 1.44D+03 IAcc=3 IRadAn=         5 AccDes= 0.00D+00
 HarFok:  IExCor=  205 AccDes= 0.00D+00 IRadAn=         5 IDoV=-2
 ScaDFX=  1.000000  1.000000  1.000000  1.000000
 DSYEVD returned Info=         101 IAlg= 4 N=    50 NDim=    50 NE2=    21472034 trying DSYEV.
 Range of M.O.s used for correlation:     8   211
 NBasis=   211 NAE=    18 NBE=    18 NFC=     7 NFV=     0
 NROrb=    204 NOA=    11 NOB=    11 NVA=   193 NVB=   193

 **** Warning!!: The largest alpha MO coefficient is  0.35242092D+02

 Semi-Direct transformation.
 ModeAB=           2 MOrb=            11 LenV=    1072528236
 LASXX=     44979418 LTotXX=    44979418 LenRXX=    44979418
 LTotAB=    45631872 MaxLAS=    67073160 LenRXY=    67073160
 NonZer=    89958836 LenScr=   135708672 LnRSAI=           0
 LnScr1=           0 LExtra=           0 Total=    247761250
 MaxDsk=          -1 SrtSym=           F ITran=            4
 JobTyp=0 Pass  1:  I=   1 to  11.
 (rs|ai) integrals will be sorted in core.
 Spin components of T(2) and E(2):
     alpha-alpha T2 =       0.2567354861D-01 E2=     -0.8208209795D-01
     alpha-beta  T2 =       0.1452558433D+00 E2=     -0.5099784569D+00
     beta-beta   T2 =       0.2567354861D-01 E2=     -0.8208209795D-01
 ANorm=    0.1093893478D+01
 E2 =    -0.6741426528D+00 EUMP2 =    -0.59929126565650D+03
 R2 and R3 integrals will be kept in memory, NReq=   900794930.
 Iterations=  50 Convergence= 0.100D-07
 Iteration Nr.   1
 **********************
 DD1Dir will call FoFMem   1 times, MxPair=       132
 NAB=    66 NAA=     0 NBB=     0.
 MP4(R+Q)=  0.14438857D-01
 E3=       -0.18701022D-01        EUMP3=      -0.59930996668D+03
 E4(DQ)=   -0.45155491D-03        UMP4(DQ)=   -0.59931041823D+03
 E4(SDQ)=  -0.98177358D-02        UMP4(SDQ)=  -0.59931978441D+03
 DE(Corr)= -0.67840482     E(Corr)=     -599.29552782    
 NORM(A)=   0.10996849D+01
 Iteration Nr.   2
 **********************
 DD1Dir will call FoFMem   1 times, MxPair=       132
 NAB=    66 NAA=     0 NBB=     0.
 DE(Corr)= -0.70060461     E(CORR)=     -599.31772761     Delta=-2.22D-02
 NORM(A)=   0.11070392D+01
 Iteration Nr.   3
 **********************
 DD1Dir will call FoFMem   1 times, MxPair=       132
 NAB=    66 NAA=     0 NBB=     0.
 DE(Corr)= -0.69820768     E(CORR)=     -599.31533068     Delta= 2.40D-03
 NORM(A)=   0.11110243D+01
 Iteration Nr.   4
 **********************
 DD1Dir will call FoFMem   1 times, MxPair=       132
 NAB=    66 NAA=     0 NBB=     0.
 DE(Corr)= -0.70126676     E(CORR)=     -599.31838976     Delta=-3.06D-03
 NORM(A)=   0.11131281D+01
 Iteration Nr.   5
 **********************
 DD1Dir will call FoFMem   1 times, MxPair=       132
 NAB=    66 NAA=     0 NBB=     0.
 DE(Corr)= -0.70186174     E(CORR)=     -599.31898474     Delta=-5.95D-04
 NORM(A)=   0.11141592D+01
 Iteration Nr.   6
 **********************
 DD1Dir will call FoFMem   1 times, MxPair=       132
 NAB=    66 NAA=     0 NBB=     0.
 DE(Corr)= -0.70200853     E(CORR)=     -599.31913153     Delta=-1.47D-04
 NORM(A)=   0.11144850D+01
 Iteration Nr.   7
 **********************
 DD1Dir will call FoFMem   1 times, MxPair=       132
 NAB=    66 NAA=     0 NBB=     0.
 DE(Corr)= -0.70203825     E(CORR)=     -599.31916125     Delta=-2.97D-05
 NORM(A)=   0.11145161D+01
 Iteration Nr.   8
 **********************
 DD1Dir will call FoFMem   1 times, MxPair=       132
 NAB=    66 NAA=     0 NBB=     0.
 DE(Corr)= -0.70205213     E(CORR)=     -599.31917513     Delta=-1.39D-05
 NORM(A)=   0.11145339D+01
 Iteration Nr.   9
 **********************
 DD1Dir will call FoFMem   1 times, MxPair=       132
 NAB=    66 NAA=     0 NBB=     0.
 DE(Corr)= -0.70202891     E(CORR)=     -599.31915191     Delta= 2.32D-05
 NORM(A)=   0.11145371D+01
 Iteration Nr.  10
 **********************
 DD1Dir will call FoFMem   1 times, MxPair=       132
 NAB=    66 NAA=     0 NBB=     0.
 DE(Corr)= -0.70204821     E(CORR)=     -599.31917121     Delta=-1.93D-05
 NORM(A)=   0.11145373D+01
 Iteration Nr.  11
 **********************
 DD1Dir will call FoFMem   1 times, MxPair=       132
 NAB=    66 NAA=     0 NBB=     0.
 DE(Corr)= -0.70203902     E(CORR)=     -599.31916202     Delta= 9.19D-06
 NORM(A)=   0.11145402D+01
 Iteration Nr.  12
 **********************
 DD1Dir will call FoFMem   1 times, MxPair=       132
 NAB=    66 NAA=     0 NBB=     0.
 DE(Corr)= -0.70204277     E(CORR)=     -599.31916577     Delta=-3.75D-06
 NORM(A)=   0.11145406D+01
 Iteration Nr.  13
 **********************
 DD1Dir will call FoFMem   1 times, MxPair=       132
 NAB=    66 NAA=     0 NBB=     0.
 DE(Corr)= -0.70204334     E(CORR)=     -599.31916634     Delta=-5.66D-07
 NORM(A)=   0.11145413D+01
 Iteration Nr.  14
 **********************
 DD1Dir will call FoFMem   1 times, MxPair=       132
 NAB=    66 NAA=     0 NBB=     0.
 DE(Corr)= -0.70204356     E(CORR)=     -599.31916656     Delta=-2.24D-07
 NORM(A)=   0.11145414D+01
 Iteration Nr.  15
 **********************
 DD1Dir will call FoFMem   1 times, MxPair=       132
 NAB=    66 NAA=     0 NBB=     0.
 DE(Corr)= -0.70204347     E(CORR)=     -599.31916647     Delta= 9.05D-08
 NORM(A)=   0.11145414D+01
 Iteration Nr.  16
 **********************
 DD1Dir will call FoFMem   1 times, MxPair=       132
 NAB=    66 NAA=     0 NBB=     0.
 DE(Corr)= -0.70204367     E(CORR)=     -599.31916668     Delta=-2.03D-07
 NORM(A)=   0.11145412D+01
 Iteration Nr.  17
 **********************
 DD1Dir will call FoFMem   1 times, MxPair=       132
 NAB=    66 NAA=     0 NBB=     0.
 DE(Corr)= -0.70204354     E(CORR)=     -599.31916655     Delta= 1.31D-07
 NORM(A)=   0.11145411D+01
 Iteration Nr.  18
 **********************
 DD1Dir will call FoFMem   1 times, MxPair=       132
 NAB=    66 NAA=     0 NBB=     0.
 DE(Corr)= -0.70204358     E(CORR)=     -599.31916658     Delta=-3.67D-08
 NORM(A)=   0.11145410D+01
 Iteration Nr.  19
 **********************
 DD1Dir will call FoFMem   1 times, MxPair=       132
 NAB=    66 NAA=     0 NBB=     0.
 DE(Corr)= -0.70204353     E(CORR)=     -599.31916653     Delta= 5.27D-08
 NORM(A)=   0.11145409D+01
 Iteration Nr.  20
 **********************
 DD1Dir will call FoFMem   1 times, MxPair=       132
 NAB=    66 NAA=     0 NBB=     0.
 DE(Corr)= -0.70204353     E(CORR)=     -599.31916653     Delta=-2.57D-09
 NORM(A)=   0.11145408D+01
 Iteration Nr.  21
 **********************
 DD1Dir will call FoFMem   1 times, MxPair=       132
 NAB=    66 NAA=     0 NBB=     0.
 DE(Corr)= -0.70204351     E(CORR)=     -599.31916651     Delta= 1.93D-08
 NORM(A)=   0.11145408D+01
 Iteration Nr.  22
 **********************
 DD1Dir will call FoFMem   1 times, MxPair=       132
 NAB=    66 NAA=     0 NBB=     0.
 DE(Corr)= -0.70204351     E(CORR)=     -599.31916651     Delta= 3.06D-09
 NORM(A)=   0.11145408D+01
 Iteration Nr.  23
 **********************
 DD1Dir will call FoFMem   1 times, MxPair=       132
 NAB=    66 NAA=     0 NBB=     0.
 DE(Corr)= -0.70204350     E(CORR)=     -599.31916651     Delta= 4.94D-09
 NORM(A)=   0.11145408D+01
 Iteration Nr.  24
 **********************
 DD1Dir will call FoFMem   1 times, MxPair=       132
 NAB=    66 NAA=     0 NBB=     0.
 DE(Corr)= -0.70204350     E(CORR)=     -599.31916651     Delta=-1.54D-09
 NORM(A)=   0.11145407D+01
 Iteration Nr.  25
 **********************
 DD1Dir will call FoFMem   1 times, MxPair=       132
 NAB=    66 NAA=     0 NBB=     0.
 DE(Corr)= -0.70204350     E(CORR)=     -599.31916650     Delta= 4.61D-09
 NORM(A)=   0.11145408D+01
 Iteration Nr.  26
 **********************
 DD1Dir will call FoFMem   1 times, MxPair=       132
 NAB=    66 NAA=     0 NBB=     0.
 DE(Corr)= -0.70204350     E(CORR)=     -599.31916651     Delta=-4.48D-09
 NORM(A)=   0.11145408D+01
 Iteration Nr.  27
 **********************
 DD1Dir will call FoFMem   1 times, MxPair=       132
 NAB=    66 NAA=     0 NBB=     0.
 DE(Corr)= -0.70204350     E(CORR)=     -599.31916650     Delta= 2.94D-09
 NORM(A)=   0.11145408D+01
 Largest amplitude= 6.61D-02

 Z-AMPLITUDE ITERATIONS

 Iteration Nr.   1
 **********************
 DD1Dir will call FoFMem   1 times, MxPair=       132
 NAB=    66 NAA=     0 NBB=     0.
 DE(Z)  -0.68265144D+00          E(Z)=    -0.59929977444D+03
 NORM(A)=   0.11145731D+01
 Iteration Nr.   2
 **********************
 DD1Dir will call FoFMem   1 times, MxPair=       132
 NAB=    66 NAA=     0 NBB=     0.
 DE(Z)  -0.68265499D+00          E(Z)=    -0.59929977799D+03
 NORM(A)=   0.11144718D+01
 Iteration Nr.   3
 **********************
 DD1Dir will call FoFMem   1 times, MxPair=       132
 NAB=    66 NAA=     0 NBB=     0.
 DE(Z)  -0.68264488D+00          E(Z)=    -0.59929976788D+03
 NORM(A)=   0.11145927D+01
 Iteration Nr.   4
 **********************
 DD1Dir will call FoFMem   1 times, MxPair=       132
 NAB=    66 NAA=     0 NBB=     0.
 DE(Z)  -0.68265662D+00          E(Z)=    -0.59929977962D+03
 NORM(A)=   0.11144478D+01
 Iteration Nr.   5
 **********************
 DD1Dir will call FoFMem   1 times, MxPair=       132
 NAB=    66 NAA=     0 NBB=     0.
 DE(Z)  -0.68264237D+00          E(Z)=    -0.59929976537D+03
 NORM(A)=   0.11078849D+01
 Iteration Nr.   6
 **********************
 DD1Dir will call FoFMem   1 times, MxPair=       132
 NAB=    66 NAA=     0 NBB=     0.
 DE(Z)  -0.68198204D+00          E(Z)=    -0.59929910504D+03
 NORM(A)=   0.11078795D+01
 Iteration Nr.   7
 **********************
 DD1Dir will call FoFMem   1 times, MxPair=       132
 NAB=    66 NAA=     0 NBB=     0.
 DE(Z)  -0.68198588D+00          E(Z)=    -0.59929910888D+03
 NORM(A)=   0.11078749D+01
 Iteration Nr.   8
 **********************
 DD1Dir will call FoFMem   1 times, MxPair=       132
 NAB=    66 NAA=     0 NBB=     0.
 DE(Z)  -0.68198242D+00          E(Z)=    -0.59929910542D+03
 NORM(A)=   0.11078716D+01
 Iteration Nr.   9
 **********************
 DD1Dir will call FoFMem   1 times, MxPair=       132
 NAB=    66 NAA=     0 NBB=     0.
 DE(Z)  -0.68198287D+00          E(Z)=    -0.59929910587D+03
 NORM(A)=   0.11078702D+01
 Iteration Nr.  10
 **********************
 DD1Dir will call FoFMem   1 times, MxPair=       132
 NAB=    66 NAA=     0 NBB=     0.
 DE(Z)  -0.68198256D+00          E(Z)=    -0.59929910556D+03
 NORM(A)=   0.11078698D+01
 Iteration Nr.  11
 **********************
 DD1Dir will call FoFMem   1 times, MxPair=       132
 NAB=    66 NAA=     0 NBB=     0.
 DE(Z)  -0.68198261D+00          E(Z)=    -0.59929910562D+03
 NORM(A)=   0.11078697D+01
 Iteration Nr.  12
 **********************
 DD1Dir will call FoFMem   1 times, MxPair=       132
 NAB=    66 NAA=     0 NBB=     0.
 DE(Z)  -0.68198264D+00          E(Z)=    -0.59929910564D+03
 NORM(A)=   0.11078698D+01
 Iteration Nr.  13
 **********************
 DD1Dir will call FoFMem   1 times, MxPair=       132
 NAB=    66 NAA=     0 NBB=     0.
 DE(Z)  -0.68198268D+00          E(Z)=    -0.59929910568D+03
 NORM(A)=   0.11078698D+01
 Iteration Nr.  14
 **********************
 DD1Dir will call FoFMem   1 times, MxPair=       132
 NAB=    66 NAA=     0 NBB=     0.
 DE(Z)  -0.68198266D+00          E(Z)=    -0.59929910566D+03
 NORM(A)=   0.11078698D+01
 Iteration Nr.  15
 **********************
 DD1Dir will call FoFMem   1 times, MxPair=       132
 NAB=    66 NAA=     0 NBB=     0.
 DE(Z)  -0.68198269D+00          E(Z)=    -0.59929910569D+03
 NORM(A)=   0.11078698D+01
 Iteration Nr.  16
 **********************
 DD1Dir will call FoFMem   1 times, MxPair=       132
 NAB=    66 NAA=     0 NBB=     0.
 DE(Z)  -0.68198268D+00          E(Z)=    -0.59929910568D+03
 NORM(A)=   0.11078698D+01
 Iteration Nr.  17
 **********************
 DD1Dir will call FoFMem   1 times, MxPair=       132
 NAB=    66 NAA=     0 NBB=     0.
 DE(Z)  -0.68198268D+00          E(Z)=    -0.59929910568D+03
 NORM(A)=   0.11078698D+01
 Iteration Nr.  18
 **********************
 DD1Dir will call FoFMem   1 times, MxPair=       132
 NAB=    66 NAA=     0 NBB=     0.
 DE(Z)  -0.68198268D+00          E(Z)=    -0.59929910568D+03
 NORM(A)=   0.11078697D+01
 Iteration Nr.  19
 **********************
 DD1Dir will call FoFMem   1 times, MxPair=       132
 NAB=    66 NAA=     0 NBB=     0.
 DE(Z)  -0.68198268D+00          E(Z)=    -0.59929910568D+03
 NORM(A)=   0.11078697D+01
 Iteration Nr.  20
 **********************
 DD1Dir will call FoFMem   1 times, MxPair=       132
 NAB=    66 NAA=     0 NBB=     0.
 DE(Z)  -0.68198268D+00          E(Z)=    -0.59929910568D+03
 NORM(A)=   0.11078697D+01
 Discarding MO integrals.
          Differentiating once with respect to electric field.
                with respect to dipole field.
          Electric field/nuclear overlap derivatives assumed to be zero.
          Keep R1 ints in memory in canonical form, NReq=448662239.
          There are     1 degrees of freedom in the 1st order CPHF.  IDoFFX=0.
 LinEq1:  Iter=  0 NonCon=     1 RMS=3.11D-03 Max=1.20D-01
 AX will form     1 AO Fock derivatives at one time.
 LinEq1:  Iter=  1 NonCon=     1 RMS=6.94D-04 Max=9.46D-03
 LinEq1:  Iter=  2 NonCon=     1 RMS=2.29D-04 Max=5.72D-03
 LinEq1:  Iter=  3 NonCon=     1 RMS=9.49D-05 Max=1.45D-03
 LinEq1:  Iter=  4 NonCon=     1 RMS=3.84D-05 Max=4.10D-04
 LinEq1:  Iter=  5 NonCon=     1 RMS=1.06D-05 Max=2.26D-04
 LinEq1:  Iter=  6 NonCon=     1 RMS=2.42D-06 Max=4.25D-05
 LinEq1:  Iter=  7 NonCon=     1 RMS=6.06D-07 Max=9.14D-06
 LinEq1:  Iter=  8 NonCon=     1 RMS=1.49D-07 Max=1.80D-06
 LinEq1:  Iter=  9 NonCon=     1 RMS=3.03D-08 Max=7.47D-07
 LinEq1:  Iter= 10 NonCon=     1 RMS=6.54D-09 Max=8.90D-08
 LinEq1:  Iter= 11 NonCon=     1 RMS=1.05D-09 Max=1.16D-08
 LinEq1:  Iter= 12 NonCon=     1 RMS=1.68D-10 Max=2.85D-09
 LinEq1:  Iter= 13 NonCon=     0 RMS=2.40D-11 Max=3.21D-10
 Linear equations converged to 1.000D-10 1.000D-09 after    13 iterations.
 End of Minotr Frequency-dependent properties file   721 does not exist.
 End of Minotr Frequency-dependent properties file   722 does not exist.

 **********************************************************************

            Population analysis using the QCI/CC density.

 **********************************************************************

     Natural Orbital Coefficients:
                           1         2         3         4         5
     Eigenvalues --     2.00003   2.00003   2.00002   2.00001   2.00001
   1 1   C  1S         -0.00001  -0.00001  -0.04328   0.08033   0.97619
   2        2S          0.00000   0.00000   0.00131   0.00050  -0.01332
   3        3S          0.00000   0.00000  -0.00132   0.00400   0.03985
   4        4S          0.00002   0.00002  -0.01265  -0.02361   0.00311
   5        5S          0.00002   0.00002  -0.00120  -0.00062  -0.00061
   6        6PX         0.00004   0.00004   0.00000   0.00000  -0.00001
   7        6PY         0.00004  -0.00004   0.00000   0.00000   0.00000
   8        6PZ         0.00000   0.00000   0.00053   0.00168   0.00087
   9        7PX         0.00060   0.00060   0.00000   0.00000   0.00001
  10        7PY         0.00059  -0.00060   0.00000   0.00000   0.00000
  11        7PZ         0.00000   0.00000   0.00142   0.00304  -0.00091
  12        8PX         0.00324   0.00321   0.00001   0.00001   0.00002
  13        8PY         0.00320  -0.00325   0.00000   0.00000   0.00000
  14        8PZ        -0.00002  -0.00001  -0.00373  -0.00410  -0.00309
  15        9PX         0.00030   0.00030   0.00000   0.00000   0.00000
  16        9PY         0.00030  -0.00030   0.00000   0.00000   0.00000
  17        9PZ         0.00000   0.00000   0.00021   0.00017  -0.00049
  18       10D 0        0.00000   0.00000   0.00011   0.00033  -0.00057
  19       10D+1       -0.00011  -0.00011   0.00000   0.00000   0.00000
  20       10D-1       -0.00011   0.00011   0.00000   0.00000   0.00000
  21       10D+2        0.00003  -0.00003   0.00000   0.00000   0.00000
  22       10D-2        0.00003   0.00003   0.00000   0.00000   0.00000
  23       11D 0        0.00000   0.00000   0.00022  -0.00009  -0.00029
  24       11D+1        0.00018   0.00018   0.00000   0.00000   0.00000
  25       11D-1        0.00018  -0.00018   0.00000   0.00000   0.00000
  26       11D+2        0.00071  -0.00072   0.00000   0.00000   0.00000
  27       11D-2        0.00072   0.00071   0.00000   0.00000   0.00001
  28       12D 0        0.00001   0.00001  -0.00078   0.00122  -0.00236
  29       12D+1       -0.00092  -0.00092   0.00000  -0.00001   0.00000
  30       12D-1       -0.00091   0.00093   0.00000   0.00000   0.00000
  31       12D+2        0.00114  -0.00115   0.00000   0.00000   0.00000
  32       12D-2        0.00115   0.00114   0.00000   0.00000   0.00001
  33       13F 0        0.00000   0.00000   0.00001   0.00003   0.00019
  34       13F+1       -0.00013  -0.00013   0.00000   0.00000   0.00000
  35       13F-1       -0.00013   0.00014   0.00000   0.00000   0.00000
  36       13F+2        0.00001  -0.00001   0.00000   0.00000   0.00000
  37       13F-2        0.00001   0.00001   0.00000   0.00000   0.00000
  38       13F+3        0.00000   0.00000   0.00000   0.00000   0.00000
  39       13F-3        0.00000   0.00000  -0.00006   0.00007   0.00090
  40       14F 0        0.00000   0.00000  -0.00113  -0.00215  -0.00019
  41       14F+1        0.00041   0.00041   0.00000   0.00000   0.00000
  42       14F-1        0.00040  -0.00041   0.00000   0.00000   0.00000
  43       14F+2        0.00024  -0.00024   0.00000   0.00000   0.00000
  44       14F-2        0.00024   0.00024   0.00000   0.00000   0.00000
  45       14F+3        0.00000   0.00000   0.00000   0.00000   0.00000
  46       14F-3        0.00000   0.00000  -0.00086  -0.00136  -0.00191
  47 2   H  1S         -0.00011   0.00011  -0.00002  -0.00035  -0.00135
  48        2S          0.00083  -0.00086   0.00245   0.00333  -0.00067
  49        3S          0.00612  -0.00619   0.00182   0.00529  -0.00434
  50        4S         -0.00019   0.00019   0.00011   0.00009  -0.00013
  51        5PX         0.00000   0.00000   0.00000   0.00000   0.00000
  52        5PY         0.00002  -0.00002   0.00004  -0.00003  -0.00048
  53        5PZ         0.00001  -0.00001   0.00001   0.00002  -0.00009
  54        6PX         0.00014   0.00014   0.00000   0.00000   0.00000
  55        6PY         0.00046  -0.00047   0.00046   0.00070  -0.00080
  56        6PZ         0.00044  -0.00044  -0.00001  -0.00010   0.00024
  57        7PX         0.00065   0.00064   0.00000   0.00000   0.00000
  58        7PY         0.00148  -0.00149   0.00054   0.00135  -0.00102
  59        7PZ         0.00019  -0.00019   0.00047   0.00092  -0.00006
  60        8D 0        0.00003  -0.00003   0.00001   0.00007   0.00014
  61        8D+1       -0.00001  -0.00001   0.00000   0.00000   0.00000
  62        8D-1        0.00007  -0.00007   0.00002   0.00005  -0.00004
  63        8D+2       -0.00003   0.00003  -0.00004  -0.00005   0.00028
  64        8D-2        0.00001   0.00001   0.00000   0.00000   0.00000
  65        9D 0        0.00027  -0.00028   0.00015   0.00025   0.00063
  66        9D+1        0.00018   0.00018   0.00000   0.00000   0.00000
  67        9D-1        0.00009  -0.00009  -0.00014  -0.00025   0.00001
  68        9D+2       -0.00009   0.00009   0.00001   0.00003  -0.00010
  69        9D-2        0.00008   0.00008   0.00000   0.00000   0.00000
  70 3   H  1S         -0.00004  -0.00015  -0.00002  -0.00035  -0.00135
  71        2S          0.00031   0.00115   0.00245   0.00334  -0.00065
  72        3S          0.00229   0.00840   0.00184   0.00530  -0.00432
  73        4S         -0.00007  -0.00026   0.00011   0.00010  -0.00013
  74        5PX         0.00001   0.00003   0.00004  -0.00002  -0.00042
  75        5PY         0.00000  -0.00002  -0.00002   0.00001   0.00024
  76        5PZ         0.00000   0.00001   0.00001   0.00002  -0.00009
  77        6PX         0.00024   0.00053   0.00040   0.00061  -0.00069
  78        6PY         0.00007  -0.00036  -0.00023  -0.00035   0.00040
  79        6PZ         0.00016   0.00060  -0.00001  -0.00010   0.00024
  80        7PX         0.00092   0.00163   0.00047   0.00117  -0.00088
  81        7PY         0.00049  -0.00122  -0.00027  -0.00068   0.00051
  82        7PZ         0.00007   0.00026   0.00047   0.00092  -0.00006
  83        8D 0        0.00001   0.00004   0.00001   0.00007   0.00014
  84        8D+1        0.00001   0.00008   0.00002   0.00004  -0.00003
  85        8D-1       -0.00003  -0.00004  -0.00001  -0.00002   0.00002
  86        8D+2        0.00001   0.00002   0.00002   0.00003  -0.00014
  87        8D-2       -0.00001  -0.00004  -0.00004  -0.00005   0.00024
  88        9D 0        0.00010   0.00038   0.00015   0.00025   0.00063
  89        9D+1        0.00015   0.00007  -0.00012  -0.00022   0.00001
  90        9D-1        0.00019  -0.00012   0.00007   0.00013   0.00000
  91        9D+2        0.00011   0.00003   0.00000  -0.00001   0.00005
  92        9D-2        0.00003  -0.00012   0.00001   0.00002  -0.00009
  93 4   H  1S          0.00015   0.00004  -0.00002  -0.00035  -0.00135
  94        2S         -0.00116  -0.00031   0.00245   0.00332  -0.00068
  95        3S         -0.00841  -0.00221   0.00181   0.00529  -0.00437
  96        4S          0.00026   0.00007   0.00011   0.00009  -0.00013
  97        5PX         0.00003   0.00001  -0.00004   0.00002   0.00042
  98        5PY         0.00002   0.00000  -0.00002   0.00001   0.00024
  99        5PZ        -0.00001   0.00000   0.00001   0.00002  -0.00009
 100        6PX         0.00053   0.00024  -0.00039  -0.00060   0.00070
 101        6PY         0.00036  -0.00007  -0.00023  -0.00035   0.00040
 102        6PZ        -0.00060  -0.00016  -0.00001  -0.00010   0.00024
 103        7PX         0.00164   0.00090  -0.00046  -0.00117   0.00088
 104        7PY         0.00122  -0.00050  -0.00027  -0.00067   0.00051
 105        7PZ        -0.00027  -0.00007   0.00047   0.00092  -0.00006
 106        8D 0       -0.00004  -0.00001   0.00001   0.00007   0.00014
 107        8D+1        0.00008   0.00001  -0.00002  -0.00004   0.00003
 108        8D-1        0.00004   0.00002  -0.00001  -0.00002   0.00002
 109        8D+2       -0.00002  -0.00001   0.00002   0.00003  -0.00014
 110        8D-2       -0.00004  -0.00001   0.00004   0.00005  -0.00024
 111        9D 0       -0.00038  -0.00010   0.00015   0.00025   0.00063
 112        9D+1        0.00008   0.00015   0.00012   0.00022  -0.00001
 113        9D-1        0.00012  -0.00019   0.00007   0.00013   0.00000
 114        9D+2       -0.00004  -0.00011  -0.00001  -0.00001   0.00005
 115        9D-2       -0.00012   0.00003  -0.00001  -0.00002   0.00008
 116 5   Cl 1S         -0.00005  -0.00005  -0.25059   0.14801  -0.02283
 117        2S          0.00017   0.00017   0.84589  -0.50031   0.07825
 118        3S          0.00000   0.00000  -0.02309   0.00933  -0.00239
 119        4S          0.00001   0.00001   0.06655  -0.04076   0.00643
 120        5S         -0.00001  -0.00001  -0.00211   0.00778   0.00351
 121        6S          0.00000   0.00000  -0.00154  -0.00213   0.00300
 122        7PX         0.69582   0.68848   0.00016   0.00072  -0.00004
 123        7PY         0.68848  -0.69582   0.00022   0.00036  -0.00002
 124        7PZ        -0.00080  -0.00019   0.50090   0.83587  -0.04716
 125        8PX        -0.01361  -0.01347   0.00000  -0.00001   0.00000
 126        8PY        -0.01347   0.01361   0.00000  -0.00001   0.00000
 127        8PZ         0.00001   0.00000  -0.00878  -0.01404   0.00011
 128        9PX         0.03720   0.03681   0.00001   0.00004   0.00000
 129        9PY         0.03681  -0.03720   0.00001   0.00002   0.00000
 130        9PZ        -0.00004  -0.00001   0.02844   0.04954  -0.00267
 131       10PX        -0.00411  -0.00406   0.00000   0.00000   0.00000
 132       10PY        -0.00407   0.00411   0.00000   0.00000   0.00000
 133       10PZ         0.00000   0.00000  -0.00435  -0.00275  -0.00347
 134       11PX        -0.00152  -0.00151   0.00000   0.00000   0.00000
 135       11PY        -0.00151   0.00152   0.00000   0.00000   0.00000
 136       11PZ         0.00000   0.00000  -0.00036  -0.00015  -0.00053
 137       12D 0        0.00000   0.00000   0.00001  -0.00051  -0.00017
 138       12D+1       -0.00023  -0.00022   0.00000   0.00000   0.00000
 139       12D-1       -0.00022   0.00023   0.00000   0.00000   0.00000
 140       12D+2        0.00001  -0.00001   0.00000   0.00000   0.00000
 141       12D-2        0.00001   0.00001   0.00000   0.00000   0.00000
 142       13D 0        0.00000   0.00000   0.00088   0.00244   0.00042
 143       13D+1        0.00057   0.00057   0.00000   0.00000   0.00000
 144       13D-1        0.00057  -0.00058   0.00000   0.00000   0.00000
 145       13D+2       -0.00001   0.00001   0.00000   0.00000   0.00000
 146       13D-2       -0.00001  -0.00001   0.00000   0.00000   0.00000
 147       14D 0        0.00000   0.00000   0.00058  -0.00018   0.00080
 148       14D+1       -0.00051  -0.00050   0.00000   0.00000   0.00000
 149       14D-1       -0.00050   0.00051   0.00000   0.00000   0.00000
 150       14D+2        0.00002  -0.00002   0.00000   0.00000   0.00000
 151       14D-2        0.00002   0.00002   0.00000   0.00000   0.00000
 152       15F 0        0.00000   0.00000   0.00001  -0.00007  -0.00003
 153       15F+1        0.00000   0.00000   0.00000   0.00000   0.00000
 154       15F-1        0.00000   0.00000   0.00000   0.00000   0.00000
 155       15F+2        0.00002  -0.00002   0.00000   0.00000   0.00000
 156       15F-2        0.00002   0.00002   0.00000   0.00000   0.00000
 157       15F+3        0.00000   0.00000   0.00000   0.00000   0.00000
 158       15F-3        0.00000   0.00000   0.00001   0.00003   0.00000
 159       16F 0        0.00000   0.00000  -0.00032  -0.00058  -0.00031
 160       16F+1       -0.00016  -0.00016   0.00000   0.00000   0.00000
 161       16F-1       -0.00016   0.00016   0.00000   0.00000   0.00000
 162       16F+2       -0.00002   0.00002   0.00000   0.00000   0.00000
 163       16F-2       -0.00002  -0.00002   0.00000   0.00000   0.00000
 164       16F+3        0.00000   0.00000   0.00000   0.00000   0.00000
 165       16F-3        0.00000   0.00000  -0.00002  -0.00005   0.00002
 166 6   F  1S          0.00001   0.00001  -0.00144  -0.01041  -0.04976
 167        2S          0.00000   0.00000   0.00020   0.00043   0.00080
 168        3S          0.00000   0.00000  -0.00007  -0.00045  -0.00202
 169        4S         -0.00001  -0.00001  -0.00055  -0.00105   0.00056
 170        5S         -0.00002  -0.00002   0.00010  -0.00168   0.00178
 171        6PX        -0.00003  -0.00003   0.00000  -0.00001   0.00000
 172        6PY        -0.00003   0.00003   0.00000   0.00000   0.00000
 173        6PZ         0.00000   0.00000   0.00058   0.00111   0.00011
 174        7PX        -0.00001   0.00000   0.00000  -0.00001   0.00000
 175        7PY        -0.00001   0.00000   0.00000   0.00000   0.00000
 176        7PZ         0.00000   0.00000   0.00069   0.00132   0.00002
 177        8PX        -0.00017  -0.00017   0.00000   0.00000   0.00000
 178        8PY        -0.00017   0.00018   0.00000   0.00000   0.00000
 179        8PZ        -0.00001  -0.00001   0.00008   0.00017   0.00048
 180        9PX        -0.00025  -0.00025   0.00000   0.00000   0.00000
 181        9PY        -0.00025   0.00025   0.00000   0.00000   0.00000
 182        9PZ        -0.00001  -0.00001   0.00017  -0.00009   0.00071
 183       10D 0        0.00000   0.00000   0.00001   0.00001  -0.00002
 184       10D+1        0.00000   0.00000   0.00000   0.00000   0.00000
 185       10D-1        0.00000   0.00000   0.00000   0.00000   0.00000
 186       10D+2        0.00000   0.00000   0.00000   0.00000   0.00000
 187       10D-2        0.00000   0.00000   0.00000   0.00000   0.00000
 188       11D 0        0.00000   0.00000  -0.00003  -0.00010   0.00001
 189       11D+1        0.00003   0.00003   0.00000   0.00000   0.00000
 190       11D-1        0.00003  -0.00003   0.00000   0.00000   0.00000
 191       11D+2       -0.00002   0.00002   0.00000   0.00000   0.00000
 192       11D-2       -0.00002  -0.00002   0.00000   0.00000   0.00000
 193       12D 0        0.00000   0.00000  -0.00019  -0.00012   0.00011
 194       12D+1       -0.00016  -0.00016   0.00000   0.00001   0.00000
 195       12D-1       -0.00016   0.00016   0.00000   0.00000   0.00000
 196       12D+2        0.00008  -0.00008   0.00000   0.00000   0.00000
 197       12D-2        0.00008   0.00008   0.00000   0.00000   0.00000
 198       13F 0        0.00000   0.00000   0.00001  -0.00001  -0.00004
 199       13F+1        0.00001   0.00001   0.00000   0.00000   0.00000
 200       13F-1        0.00001  -0.00001   0.00000   0.00000   0.00000
 201       13F+2       -0.00001   0.00001   0.00000   0.00000   0.00000
 202       13F-2       -0.00001  -0.00001   0.00000   0.00000   0.00000
 203       13F+3        0.00000   0.00000   0.00000   0.00000   0.00000
 204       13F-3        0.00000   0.00000   0.00000   0.00000   0.00000
 205       14F 0        0.00000   0.00000  -0.00004   0.00002   0.00013
 206       14F+1       -0.00004  -0.00004   0.00000   0.00000   0.00000
 207       14F-1       -0.00004   0.00004   0.00000   0.00000   0.00000
 208       14F+2        0.00003  -0.00003   0.00000   0.00000   0.00000
 209       14F-2        0.00003   0.00003   0.00000   0.00000   0.00000
 210       14F+3        0.00000   0.00000   0.00000   0.00000   0.00000
 211       14F-3        0.00000   0.00000   0.00000   0.00000  -0.00001
                           6         7         8         9        10
     Eigenvalues --     2.00000   2.00000   1.98361   1.97543   1.96949
   1 1   C  1S          0.05039  -0.00046   0.01542  -0.07338  -0.14372
   2        2S         -0.00012  -0.00001  -0.04201   0.19911   0.39727
   3        3S          0.00230  -0.00003  -0.01040   0.04620   0.09614
   4        4S         -0.00699   0.00016   0.00556   0.07906   0.19079
   5        5S         -0.00016   0.00010   0.00785  -0.00690  -0.02889
   6        6PX         0.00000   0.00000  -0.00008   0.00000   0.00007
   7        6PY         0.00000   0.00000   0.00000   0.00000  -0.00001
   8        6PZ         0.00004   0.00000   0.00646   0.01034  -0.02723
   9        7PX         0.00001   0.00000  -0.00013   0.00000   0.00010
  10        7PY         0.00000   0.00000   0.00000   0.00001  -0.00001
  11        7PZ        -0.00075   0.00000   0.00706   0.01790  -0.03246
  12        8PX        -0.00001   0.00000  -0.00020   0.00000   0.00011
  13        8PY         0.00000   0.00000   0.00001   0.00000  -0.00001
  14        8PZ         0.00519   0.00009   0.01660   0.00589  -0.02271
  15        9PX         0.00000   0.00000   0.00000   0.00000  -0.00002
  16        9PY         0.00000   0.00000   0.00000   0.00000   0.00000
  17        9PZ         0.00011   0.00001  -0.00071   0.00033  -0.00407
  18       10D 0        0.00004   0.00000   0.00051  -0.00214  -0.00956
  19       10D+1        0.00000   0.00000   0.00000   0.00000  -0.00001
  20       10D-1        0.00000   0.00000   0.00000   0.00000  -0.00001
  21       10D+2        0.00000   0.00000   0.00000   0.00000   0.00000
  22       10D-2        0.00000   0.00000   0.00000   0.00000   0.00000
  23       11D 0       -0.00023  -0.00002  -0.00529   0.00462  -0.01876
  24       11D+1        0.00001   0.00000   0.00010  -0.00001  -0.00006
  25       11D-1        0.00000   0.00000   0.00000   0.00000  -0.00001
  26       11D+2        0.00000   0.00000   0.00000   0.00000   0.00000
  27       11D-2        0.00001   0.00000  -0.00006   0.00001   0.00006
  28       12D 0        0.00027   0.00008   0.00206  -0.00841  -0.01668
  29       12D+1        0.00001   0.00000   0.00001   0.00005   0.00005
  30       12D-1        0.00000   0.00000   0.00000  -0.00001  -0.00001
  31       12D+2        0.00000   0.00000   0.00000   0.00000   0.00000
  32       12D-2        0.00001   0.00000  -0.00005   0.00003   0.00011
  33       13F 0       -0.00007   0.00000   0.00000   0.00242   0.00064
  34       13F+1        0.00000   0.00000  -0.00001   0.00000   0.00001
  35       13F-1        0.00000   0.00000   0.00000   0.00000   0.00000
  36       13F+2        0.00000   0.00000   0.00000   0.00000   0.00000
  37       13F-2        0.00000   0.00000   0.00001   0.00000  -0.00001
  38       13F+3        0.00000   0.00000   0.00000   0.00000   0.00000
  39       13F-3        0.00001   0.00000  -0.00014   0.00194   0.00397
  40       14F 0        0.00127  -0.00001   0.00471   0.00261  -0.00198
  41       14F+1       -0.00001   0.00000  -0.00005   0.00000   0.00001
  42       14F-1        0.00000   0.00000   0.00001   0.00000   0.00000
  43       14F+2        0.00000   0.00000   0.00000   0.00000   0.00000
  44       14F-2        0.00000   0.00000   0.00005  -0.00001  -0.00003
  45       14F+3        0.00000   0.00000   0.00000   0.00000   0.00000
  46       14F-3       -0.00044   0.00003   0.00187  -0.00100   0.00404
  47 2   H  1S         -0.00008   0.00000  -0.00858   0.03717   0.08052
  48        2S          0.00098  -0.00006  -0.01531   0.04377   0.08371
  49        3S          0.00181   0.00004  -0.00090  -0.00491  -0.01204
  50        4S          0.00003   0.00000  -0.00047   0.00051   0.00039
  51        5PX         0.00000   0.00000   0.00000   0.00000   0.00000
  52        5PY         0.00001   0.00000  -0.00109   0.00399   0.00863
  53        5PZ        -0.00004   0.00000   0.00028   0.00095   0.00034
  54        6PX         0.00000   0.00000  -0.00002   0.00000   0.00001
  55        6PY         0.00008   0.00000  -0.00073   0.00080   0.00121
  56        6PZ         0.00032  -0.00001   0.00008   0.00243  -0.00051
  57        7PX         0.00001   0.00000  -0.00001   0.00002   0.00006
  58        7PY         0.00043   0.00001   0.00135  -0.00496  -0.01033
  59        7PZ        -0.00055   0.00001  -0.00280  -0.00173  -0.00131
  60        8D 0        0.00006   0.00000   0.00014  -0.00035  -0.00091
  61        8D+1        0.00000   0.00000   0.00000   0.00000   0.00000
  62        8D-1       -0.00001   0.00000  -0.00015   0.00049   0.00023
  63        8D+2       -0.00002   0.00000   0.00003  -0.00054  -0.00137
  64        8D-2        0.00000   0.00000   0.00000   0.00000   0.00000
  65        9D 0        0.00009  -0.00001  -0.00006   0.00122   0.00101
  66        9D+1        0.00000   0.00000   0.00000   0.00000   0.00000
  67        9D-1        0.00014   0.00000  -0.00006   0.00004  -0.00038
  68        9D+2        0.00004   0.00000  -0.00098   0.00225   0.00415
  69        9D-2        0.00000   0.00000  -0.00001   0.00000   0.00000
  70 3   H  1S         -0.00008   0.00000  -0.00852   0.03718   0.08049
  71        2S          0.00099  -0.00006  -0.01534   0.04379   0.08375
  72        3S          0.00182   0.00004  -0.00108  -0.00484  -0.01180
  73        4S          0.00003   0.00000  -0.00048   0.00050   0.00037
  74        5PX         0.00001   0.00000  -0.00094   0.00345   0.00747
  75        5PY        -0.00001   0.00000   0.00054  -0.00200  -0.00432
  76        5PZ        -0.00004   0.00000   0.00027   0.00096   0.00035
  77        6PX         0.00007   0.00000  -0.00067   0.00070   0.00107
  78        6PY        -0.00004   0.00000   0.00037  -0.00040  -0.00061
  79        6PZ         0.00032  -0.00001   0.00014   0.00241  -0.00057
  80        7PX         0.00038   0.00001   0.00114  -0.00428  -0.00892
  81        7PY        -0.00021   0.00000  -0.00067   0.00248   0.00518
  82        7PZ        -0.00054   0.00001  -0.00278  -0.00173  -0.00132
  83        8D 0        0.00006   0.00000   0.00014  -0.00035  -0.00091
  84        8D+1       -0.00001   0.00000  -0.00012   0.00043   0.00020
  85        8D-1        0.00000   0.00000   0.00007  -0.00025  -0.00011
  86        8D+2        0.00001   0.00000  -0.00002   0.00027   0.00069
  87        8D-2       -0.00001   0.00000   0.00003  -0.00047  -0.00119
  88        9D 0        0.00009  -0.00001  -0.00006   0.00123   0.00102
  89        9D+1        0.00012   0.00000  -0.00003   0.00003  -0.00034
  90        9D-1       -0.00007   0.00000   0.00002  -0.00002   0.00020
  91        9D+2       -0.00002   0.00000   0.00049  -0.00113  -0.00207
  92        9D-2        0.00003   0.00000  -0.00085   0.00195   0.00360
  93 4   H  1S         -0.00008   0.00000  -0.00863   0.03717   0.08056
  94        2S          0.00096  -0.00006  -0.01528   0.04376   0.08367
  95        3S          0.00179   0.00004  -0.00072  -0.00497  -0.01228
  96        4S          0.00003   0.00000  -0.00046   0.00052   0.00041
  97        5PX        -0.00001   0.00000   0.00094  -0.00345  -0.00748
  98        5PY        -0.00001   0.00000   0.00055  -0.00199  -0.00432
  99        5PZ        -0.00004   0.00000   0.00028   0.00096   0.00035
 100        6PX        -0.00006   0.00000   0.00060  -0.00069  -0.00103
 101        6PY        -0.00003   0.00000   0.00036  -0.00040  -0.00060
 102        6PZ         0.00032  -0.00001   0.00002   0.00244  -0.00046
 103        7PX        -0.00037  -0.00001  -0.00120   0.00431   0.00897
 104        7PY        -0.00022   0.00000  -0.00069   0.00247   0.00514
 105        7PZ        -0.00056   0.00001  -0.00283  -0.00174  -0.00132
 106        8D 0        0.00006   0.00000   0.00014  -0.00035  -0.00091
 107        8D+1        0.00001   0.00000   0.00013  -0.00043  -0.00021
 108        8D-1        0.00000   0.00000   0.00008  -0.00025  -0.00012
 109        8D+2        0.00001   0.00000  -0.00002   0.00027   0.00068
 110        8D-2        0.00001   0.00000  -0.00003   0.00047   0.00119
 111        9D 0        0.00008  -0.00001  -0.00006   0.00122   0.00100
 112        9D+1       -0.00012   0.00000   0.00007  -0.00004   0.00032
 113        9D-1       -0.00007   0.00000   0.00004  -0.00002   0.00018
 114        9D+2       -0.00002   0.00000   0.00050  -0.00113  -0.00208
 115        9D-2       -0.00003   0.00000   0.00085  -0.00195  -0.00360
 116 5   Cl 1S          0.00007   0.99708  -0.00064   0.06648  -0.03479
 117        2S         -0.00007   0.01040   0.00292  -0.25193   0.13076
 118        3S          0.00005   0.00017  -0.00391   0.52471  -0.27822
 119        4S          0.00008   0.00026  -0.00025   0.06428  -0.03748
 120        5S         -0.00181  -0.00020  -0.01230   0.35096  -0.17055
 121        6S         -0.00050  -0.00011  -0.00461   0.02452   0.01130
 122        7PX         0.00000   0.00000   0.00000   0.00000   0.00000
 123        7PY         0.00000   0.00000   0.00000   0.00000   0.00001
 124        7PZ         0.00733   0.00016   0.00152   0.00459   0.02880
 125        8PX         0.00000   0.00000   0.00000   0.00001   0.00001
 126        8PY         0.00000   0.00000   0.00000   0.00000  -0.00003
 127        8PZ         0.00051  -0.00003  -0.00227  -0.00602  -0.07208
 128        9PX         0.00000   0.00000   0.00000   0.00000   0.00000
 129        9PY         0.00000   0.00000   0.00000   0.00000  -0.00001
 130        9PZ         0.00032   0.00003  -0.00264   0.00068  -0.03141
 131       10PX         0.00000   0.00000   0.00003  -0.00002  -0.00002
 132       10PY         0.00000   0.00000   0.00000   0.00000  -0.00002
 133       10PZ         0.00096   0.00015   0.00271   0.00302  -0.05237
 134       11PX         0.00000   0.00000   0.00000  -0.00001   0.00000
 135       11PY         0.00000   0.00000   0.00000   0.00000   0.00000
 136       11PZ         0.00002   0.00002  -0.00040   0.00263  -0.00875
 137       12D 0       -0.00003   0.00001  -0.00035   0.00449   0.00453
 138       12D+1        0.00000   0.00000   0.00000   0.00000   0.00000
 139       12D-1        0.00000   0.00000   0.00000   0.00000   0.00000
 140       12D+2        0.00000   0.00000   0.00000   0.00000   0.00000
 141       12D-2        0.00000   0.00000   0.00000   0.00000   0.00000
 142       13D 0       -0.00022   0.00000  -0.00163   0.00820   0.00969
 143       13D+1        0.00000   0.00000   0.00000   0.00001   0.00000
 144       13D-1        0.00000   0.00000   0.00000   0.00001   0.00001
 145       13D+2        0.00000   0.00000   0.00000   0.00000   0.00000
 146       13D-2        0.00000   0.00000   0.00000   0.00000   0.00000
 147       14D 0       -0.00014  -0.00004  -0.00184  -0.00018   0.00539
 148       14D+1        0.00000   0.00000  -0.00002   0.00001   0.00002
 149       14D-1        0.00000   0.00000   0.00000   0.00000   0.00000
 150       14D+2        0.00000   0.00000   0.00000   0.00000   0.00000
 151       14D-2        0.00000   0.00000   0.00000   0.00000   0.00000
 152       15F 0        0.00005   0.00000   0.00023  -0.00180  -0.00192
 153       15F+1        0.00000   0.00000   0.00000   0.00000   0.00000
 154       15F-1        0.00000   0.00000   0.00000   0.00000   0.00000
 155       15F+2        0.00000   0.00000   0.00000   0.00000   0.00000
 156       15F-2        0.00000   0.00000   0.00000   0.00000   0.00000
 157       15F+3        0.00000   0.00000   0.00000   0.00000   0.00000
 158       15F-3       -0.00001   0.00000  -0.00001   0.00002   0.00009
 159       16F 0       -0.00005   0.00001   0.00005  -0.00093  -0.00171
 160       16F+1        0.00000   0.00000   0.00001   0.00000   0.00000
 161       16F-1        0.00000   0.00000   0.00000   0.00000   0.00000
 162       16F+2        0.00000   0.00000   0.00000   0.00000   0.00000
 163       16F-2        0.00000   0.00000   0.00001   0.00000  -0.00001
 164       16F+3        0.00000   0.00000   0.00000   0.00000   0.00000
 165       16F-3        0.00003   0.00000   0.00002  -0.00001  -0.00021
 166 6   F  1S          0.97743  -0.00002   0.21189   0.01315   0.02162
 167        2S         -0.01503   0.00000  -0.53161  -0.03405  -0.05732
 168        3S          0.04206   0.00000  -0.16471  -0.01081  -0.01853
 169        4S          0.00193  -0.00001  -0.36876  -0.02363  -0.04391
 170        5S         -0.00084  -0.00006  -0.04529   0.00420   0.00781
 171        6PX         0.00000   0.00000  -0.00015   0.00001   0.00016
 172        6PY         0.00000   0.00000   0.00001   0.00001   0.00004
 173        6PZ         0.00048   0.00000   0.01352   0.01270   0.08750
 174        7PX         0.00000   0.00000  -0.00017   0.00001   0.00018
 175        7PY         0.00000   0.00000   0.00001   0.00001   0.00005
 176        7PZ        -0.00012   0.00000   0.01475   0.01551   0.10528
 177        8PX        -0.00001   0.00000  -0.00014  -0.00001   0.00013
 178        8PY         0.00000   0.00000   0.00001   0.00001   0.00004
 179        8PZ         0.00240  -0.00001   0.01247   0.01225   0.08373
 180        9PX         0.00000   0.00000  -0.00004  -0.00001   0.00005
 181        9PY         0.00000   0.00000   0.00000   0.00000   0.00001
 182        9PZ        -0.00008  -0.00002   0.00220   0.00315   0.02424
 183       10D 0       -0.00002   0.00000  -0.00013   0.00017   0.00060
 184       10D+1        0.00000   0.00000   0.00000   0.00000   0.00000
 185       10D-1        0.00000   0.00000   0.00000   0.00000   0.00000
 186       10D+2        0.00000   0.00000   0.00000   0.00000   0.00000
 187       10D-2        0.00000   0.00000   0.00000   0.00000   0.00000
 188       11D 0       -0.00003   0.00000  -0.00104   0.00091   0.00275
 189       11D+1        0.00000   0.00000   0.00001  -0.00001  -0.00002
 190       11D-1        0.00000   0.00000   0.00000   0.00000   0.00000
 191       11D+2        0.00000   0.00000   0.00000   0.00000   0.00000
 192       11D-2        0.00000   0.00000   0.00000   0.00000   0.00000
 193       12D 0        0.00080   0.00000  -0.00055   0.00035   0.00386
 194       12D+1       -0.00001   0.00000   0.00000  -0.00001  -0.00003
 195       12D-1        0.00000   0.00000   0.00000   0.00000   0.00000
 196       12D+2        0.00000   0.00000   0.00000   0.00000   0.00000
 197       12D-2        0.00000   0.00000   0.00000   0.00000   0.00000
 198       13F 0       -0.00006   0.00000  -0.00002   0.00013   0.00027
 199       13F+1        0.00000   0.00000   0.00000   0.00000   0.00000
 200       13F-1        0.00000   0.00000   0.00000   0.00000   0.00000
 201       13F+2        0.00000   0.00000   0.00000   0.00000   0.00000
 202       13F-2        0.00000   0.00000   0.00000   0.00000   0.00000
 203       13F+3        0.00000   0.00000   0.00000   0.00000   0.00000
 204       13F-3        0.00001   0.00000   0.00001   0.00002   0.00003
 205       14F 0        0.00020   0.00000  -0.00040  -0.00006   0.00063
 206       14F+1        0.00000   0.00000   0.00001   0.00000  -0.00001
 207       14F-1        0.00000   0.00000   0.00000   0.00000   0.00000
 208       14F+2        0.00000   0.00000   0.00000   0.00000   0.00000
 209       14F-2        0.00000   0.00000   0.00000   0.00000   0.00000
 210       14F+3        0.00000   0.00000   0.00000   0.00000   0.00000
 211       14F-3       -0.00001   0.00000  -0.00007  -0.00006  -0.00009
                          11        12        13        14        15
     Eigenvalues --     1.96437   1.96436   1.95924   1.95923   1.94911
   1 1   C  1S          0.00027   0.00027  -0.00003  -0.00003  -0.00113
   2        2S         -0.00076  -0.00077   0.00010   0.00010   0.00322
   3        3S         -0.00020  -0.00020   0.00005   0.00005   0.00075
   4        4S          0.00016   0.00016  -0.00075  -0.00075   0.00645
   5        5S          0.00001   0.00001   0.00006   0.00006   0.00128
   6        6PX         0.06913   0.06925   0.16350   0.16325  -0.05383
   7        6PY         0.06944  -0.06894  -0.16328   0.16346   0.04145
   8        6PZ        -0.00002   0.00004   0.00009  -0.00005   0.00097
   9        7PX         0.09260   0.09279   0.21670   0.21638  -0.07481
  10        7PY         0.09302  -0.09238  -0.21642   0.21667   0.05760
  11        7PZ        -0.00001   0.00007   0.00015  -0.00004   0.00138
  12        8PX         0.06789   0.06784   0.16724   0.16709  -0.05752
  13        8PY         0.06819  -0.06754  -0.16701   0.16731   0.04426
  14        8PZ        -0.00008  -0.00002   0.00000  -0.00015   0.00128
  15        9PX        -0.00154  -0.00156   0.01340   0.01341  -0.00970
  16        9PY        -0.00154   0.00155  -0.01338   0.01342   0.00747
  17        9PZ         0.00001   0.00001  -0.00001  -0.00002   0.00001
  18       10D 0        0.00002   0.00002   0.00001   0.00001  -0.00020
  19       10D+1       -0.00191  -0.00192  -0.00091  -0.00090   0.00296
  20       10D-1       -0.00191   0.00191   0.00090  -0.00089  -0.00228
  21       10D+2        0.00443  -0.00439  -0.01049   0.01048   0.00307
  22       10D-2        0.00440   0.00441   0.01051   0.01046  -0.00398
  23       11D 0       -0.00002  -0.00003   0.00013   0.00012  -0.00109
  24       11D+1       -0.00899  -0.00902   0.00539   0.00539   0.01227
  25       11D-1       -0.00902   0.00897  -0.00541   0.00543  -0.00943
  26       11D+2        0.01473  -0.01447  -0.03209   0.03202   0.01042
  27       11D-2        0.01465   0.01454   0.03216   0.03196  -0.01353
  28       12D 0        0.00004   0.00004   0.00008   0.00008  -0.00059
  29       12D+1       -0.00426  -0.00436   0.00404   0.00398  -0.00096
  30       12D-1       -0.00427   0.00433  -0.00406   0.00401   0.00077
  31       12D+2        0.01433  -0.01406  -0.02550   0.02540   0.00618
  32       12D-2        0.01425   0.01413   0.02556   0.02535  -0.00803
  33       13F 0        0.00001   0.00001   0.00000   0.00000   0.00005
  34       13F+1        0.00017   0.00018  -0.00142  -0.00142   0.00177
  35       13F-1        0.00017  -0.00018   0.00142  -0.00142  -0.00136
  36       13F+2       -0.00046   0.00045   0.00009  -0.00008  -0.00020
  37       13F-2       -0.00046  -0.00045  -0.00009  -0.00008   0.00026
  38       13F+3        0.00000   0.00000   0.00000   0.00000   0.00000
  39       13F-3       -0.00001  -0.00001  -0.00001  -0.00001   0.00007
  40       14F 0       -0.00002  -0.00002  -0.00005  -0.00004   0.00012
  41       14F+1        0.00027   0.00027  -0.00413  -0.00412   0.00575
  42       14F-1        0.00027  -0.00027   0.00412  -0.00412  -0.00443
  43       14F+2       -0.00277   0.00270   0.00009  -0.00009  -0.00198
  44       14F-2       -0.00275  -0.00271  -0.00010  -0.00009   0.00258
  45       14F+3        0.00000   0.00000   0.00000   0.00000   0.00000
  46       14F-3        0.00006   0.00006  -0.00007  -0.00007   0.00034
  47 2   H  1S         -0.04793   0.04726   0.10713  -0.10722  -0.02781
  48        2S         -0.04335   0.04252   0.10932  -0.10909  -0.02810
  49        3S          0.04110  -0.04079  -0.08413   0.08463   0.00268
  50        4S         -0.00409   0.00408  -0.01227   0.01231   0.00065
  51        5PX         0.00147   0.00148   0.00309   0.00309  -0.00084
  52        5PY        -0.00376   0.00371   0.00876  -0.00876  -0.00215
  53        5PZ         0.00002  -0.00002   0.00197  -0.00198   0.00017
  54        6PX         0.00570   0.00567   0.00963   0.00964  -0.00296
  55        6PY         0.00509  -0.00510  -0.00791   0.00798   0.00329
  56        6PZ        -0.00200   0.00193  -0.00028   0.00028  -0.00069
  57        7PX         0.00659   0.00651   0.00947   0.00942  -0.00224
  58        7PY         0.00997  -0.00992  -0.03215   0.03235   0.00566
  59        7PZ         0.00050  -0.00042  -0.00537   0.00536   0.00164
  60        8D 0        0.00029  -0.00029  -0.00096   0.00096   0.00024
  61        8D+1        0.00001   0.00001   0.00022   0.00022   0.00002
  62        8D-1       -0.00053   0.00053   0.00017  -0.00017  -0.00017
  63        8D+2        0.00043  -0.00042  -0.00136   0.00136   0.00031
  64        8D-2        0.00075   0.00074   0.00159   0.00158  -0.00048
  65        9D 0       -0.00040   0.00036  -0.00103   0.00104  -0.00011
  66        9D+1       -0.00109  -0.00108   0.00071   0.00070   0.00094
  67        9D-1       -0.00236   0.00235  -0.00241   0.00242  -0.00033
  68        9D+2       -0.00114   0.00114   0.00188  -0.00189  -0.00068
  69        9D-2        0.00118   0.00115   0.00205   0.00202  -0.00089
  70 3   H  1S         -0.01743  -0.06508  -0.14653  -0.03911   0.04709
  71        2S         -0.01587  -0.05892  -0.14917  -0.03969   0.04568
  72        3S          0.01479   0.05558   0.11537   0.03095  -0.00573
  73        4S         -0.00149  -0.00561   0.01677   0.00449  -0.00109
  74        5PX        -0.00018  -0.00470  -0.01093  -0.00065   0.00320
  75        5PY         0.00243   0.00210   0.00501   0.00526  -0.00169
  76        5PZ         0.00000   0.00002  -0.00270  -0.00072  -0.00012
  77        6PX         0.00548   0.00497   0.00769   0.00913  -0.00468
  78        6PY         0.00584  -0.00524  -0.00849   0.00993   0.00327
  79        6PZ        -0.00074  -0.00270   0.00044   0.00011   0.00116
  80        7PX         0.00762   0.01055   0.03644   0.01668  -0.00835
  81        7PY         0.00601  -0.00881  -0.02503   0.00523   0.00525
  82        7PZ         0.00017   0.00055   0.00742   0.00197  -0.00316
  83        8D 0        0.00011   0.00039   0.00131   0.00035  -0.00040
  84        8D+1       -0.00016  -0.00063  -0.00024   0.00010   0.00025
  85        8D-1        0.00011   0.00036   0.00004   0.00030  -0.00015
  86        8D+2        0.00081  -0.00052  -0.00143   0.00163   0.00033
  87        8D-2        0.00065   0.00037   0.00132   0.00151  -0.00042
  88        9D 0       -0.00017  -0.00057   0.00144   0.00039   0.00013
  89        9D+1       -0.00149  -0.00259   0.00271   0.00124   0.00028
  90        9D-1       -0.00086   0.00195  -0.00187   0.00039  -0.00034
  91        9D+2        0.00161   0.00043   0.00064   0.00274  -0.00039
  92        9D-2        0.00045  -0.00157  -0.00259   0.00079   0.00098
  93 4   H  1S          0.06496   0.01741   0.03935   0.14628  -0.01710
  94        2S          0.05839   0.01557   0.04025   0.14918  -0.01754
  95        3S         -0.05628  -0.01518  -0.03083  -0.11517   0.00153
  96        4S          0.00556   0.00150  -0.00451  -0.01681   0.00040
  97        5PX        -0.00467  -0.00017  -0.00068  -0.01093   0.00066
  98        5PY        -0.00207  -0.00243  -0.00526  -0.00500   0.00151
  99        5PZ        -0.00003  -0.00001   0.00073   0.00271   0.00012
 100        6PX         0.00500   0.00551   0.00908   0.00759  -0.00347
 101        6PY         0.00532  -0.00574  -0.00996   0.00847   0.00199
 102        6PZ         0.00266   0.00070  -0.00008  -0.00034  -0.00044
 103        7PX         0.01058   0.00763   0.01667   0.03640  -0.00430
 104        7PY         0.00893  -0.00585  -0.00532   0.02501   0.00055
 105        7PZ        -0.00073  -0.00017  -0.00197  -0.00731   0.00094
 106        8D 0       -0.00040  -0.00011  -0.00035  -0.00132   0.00015
 107        8D+1       -0.00063  -0.00016   0.00010  -0.00025   0.00011
 108        8D-1       -0.00036  -0.00011  -0.00030  -0.00005   0.00003
 109        8D+2        0.00053  -0.00080  -0.00163   0.00143   0.00039
 110        8D-2        0.00037   0.00064   0.00152   0.00132  -0.00044
 111        9D 0        0.00048   0.00011  -0.00037  -0.00140  -0.00008
 112        9D+1       -0.00258  -0.00149   0.00126   0.00275   0.00074
 113        9D-1       -0.00196   0.00085  -0.00040   0.00188  -0.00083
 114        9D+2       -0.00039  -0.00156  -0.00276  -0.00065   0.00112
 115        9D-2       -0.00155   0.00042   0.00080  -0.00261  -0.00015
 116 5   Cl 1S          0.00004   0.00004   0.00000   0.00000  -0.00022
 117        2S         -0.00016  -0.00016   0.00000   0.00000   0.00083
 118        3S          0.00034   0.00035  -0.00001  -0.00001  -0.00170
 119        4S          0.00005   0.00005   0.00000   0.00000  -0.00026
 120        5S          0.00023   0.00023   0.00002   0.00002  -0.00143
 121        6S          0.00004   0.00004  -0.00003  -0.00003  -0.00046
 122        7PX        -0.00622  -0.00623  -0.03084  -0.03083  -0.17711
 123        7PY        -0.00624   0.00620   0.03079  -0.03087   0.13638
 124        7PZ        -0.00002  -0.00002   0.00006   0.00008  -0.00054
 125        8PX         0.01472   0.01475   0.07287   0.07284   0.40518
 126        8PY         0.01479  -0.01468  -0.07277   0.07294  -0.31200
 127        8PZ         0.00004   0.00005  -0.00015  -0.00021   0.00126
 128        9PX         0.00683   0.00684   0.03370   0.03369   0.19573
 129        9PY         0.00686  -0.00681  -0.03366   0.03374  -0.15072
 130        9PZ         0.00002   0.00002  -0.00006  -0.00009   0.00063
 131       10PX         0.00733   0.00737   0.03944   0.03944   0.29125
 132       10PY         0.00736  -0.00734  -0.03939   0.03950  -0.22428
 133       10PZ        -0.00002  -0.00001  -0.00011  -0.00015   0.00148
 134       11PX         0.00150   0.00150   0.00240   0.00240   0.04923
 135       11PY         0.00151  -0.00149  -0.00240   0.00240  -0.03791
 136       11PZ        -0.00003  -0.00002   0.00001   0.00000   0.00050
 137       12D 0       -0.00001  -0.00001   0.00001   0.00001   0.00010
 138       12D+1       -0.00133  -0.00134  -0.00437  -0.00437  -0.00018
 139       12D-1       -0.00134   0.00133   0.00437  -0.00437   0.00014
 140       12D+2        0.00008  -0.00008  -0.00039   0.00039   0.00015
 141       12D-2        0.00008   0.00008   0.00038   0.00038  -0.00019
 142       13D 0       -0.00001  -0.00001   0.00002   0.00003   0.00016
 143       13D+1       -0.00205  -0.00206  -0.00775  -0.00775  -0.00054
 144       13D-1       -0.00206   0.00205   0.00774  -0.00776   0.00042
 145       13D+2        0.00023  -0.00023  -0.00046   0.00046   0.00034
 146       13D-2        0.00023   0.00023   0.00046   0.00045  -0.00044
 147       14D 0       -0.00001  -0.00001   0.00002   0.00002  -0.00003
 148       14D+1        0.00005   0.00004   0.00003   0.00003  -0.00266
 149       14D-1        0.00005  -0.00004  -0.00003   0.00003   0.00205
 150       14D+2       -0.00046   0.00047   0.00005  -0.00005   0.00003
 151       14D-2       -0.00046  -0.00047  -0.00005  -0.00005  -0.00004
 152       15F 0        0.00000   0.00000   0.00000   0.00000  -0.00002
 153       15F+1        0.00063   0.00063   0.00186   0.00186   0.00111
 154       15F-1        0.00063  -0.00062  -0.00185   0.00186  -0.00086
 155       15F+2       -0.00008   0.00008   0.00024  -0.00024  -0.00006
 156       15F-2       -0.00008  -0.00008  -0.00024  -0.00024   0.00008
 157       15F+3        0.00000   0.00000   0.00000   0.00000   0.00000
 158       15F-3        0.00000   0.00000   0.00000   0.00000   0.00000
 159       16F 0        0.00000   0.00000   0.00000  -0.00001  -0.00003
 160       16F+1        0.00042   0.00042   0.00142   0.00142   0.00142
 161       16F-1        0.00042  -0.00042  -0.00142   0.00142  -0.00109
 162       16F+2        0.00001  -0.00001  -0.00013   0.00013  -0.00012
 163       16F-2        0.00001   0.00001   0.00013   0.00013   0.00016
 164       16F+3        0.00000   0.00000   0.00000   0.00000   0.00000
 165       16F-3        0.00000   0.00000   0.00000   0.00000   0.00000
 166 6   F  1S          0.00003   0.00003   0.00007   0.00007   0.00022
 167        2S         -0.00006  -0.00006  -0.00018  -0.00018  -0.00048
 168        3S         -0.00002  -0.00002  -0.00006  -0.00006  -0.00014
 169        4S         -0.00010  -0.00010  -0.00023  -0.00023  -0.00029
 170        5S         -0.00006  -0.00006  -0.00018  -0.00018  -0.00012
 171        6PX         0.23429   0.23551  -0.11443  -0.11463   0.01794
 172        6PY         0.23534  -0.23446   0.11428  -0.11478  -0.01376
 173        6PZ         0.00150   0.00173  -0.00037  -0.00027  -0.00742
 174        7PX         0.27948   0.28093  -0.13569  -0.13592   0.02124
 175        7PY         0.28074  -0.27969   0.13551  -0.13610  -0.01629
 176        7PZ         0.00179   0.00206  -0.00043  -0.00031  -0.00885
 177        8PX         0.22594   0.22713  -0.11413  -0.11434   0.01818
 178        8PY         0.22696  -0.22612   0.11398  -0.11450  -0.01394
 179        8PZ         0.00140   0.00162  -0.00046  -0.00036  -0.00729
 180        9PX         0.07102   0.07140  -0.04024  -0.04032   0.00884
 181        9PY         0.07134  -0.07109   0.04019  -0.04038  -0.00679
 182        9PZ         0.00043   0.00050  -0.00023  -0.00020  -0.00225
 183       10D 0        0.00001   0.00001   0.00000   0.00000  -0.00002
 184       10D+1        0.00043   0.00043   0.00006   0.00007  -0.00009
 185       10D-1        0.00043  -0.00042  -0.00006   0.00007   0.00007
 186       10D+2        0.00001  -0.00002  -0.00003   0.00003   0.00001
 187       10D-2        0.00001   0.00002   0.00003   0.00003  -0.00001
 188       11D 0        0.00001   0.00001   0.00002   0.00001  -0.00005
 189       11D+1        0.00171   0.00172   0.00086   0.00086  -0.00047
 190       11D-1        0.00172  -0.00171  -0.00086   0.00086   0.00036
 191       11D+2        0.00003  -0.00004  -0.00018   0.00017   0.00011
 192       11D-2        0.00003   0.00004   0.00018   0.00017  -0.00014
 193       12D 0        0.00003   0.00003  -0.00002  -0.00002  -0.00022
 194       12D+1        0.00418   0.00421  -0.00250  -0.00252  -0.00025
 195       12D-1        0.00420  -0.00419   0.00250  -0.00253   0.00020
 196       12D+2        0.00001  -0.00003   0.00021  -0.00018  -0.00022
 197       12D-2        0.00001   0.00004  -0.00021  -0.00019   0.00029
 198       13F 0        0.00000   0.00000   0.00000   0.00000  -0.00001
 199       13F+1        0.00016   0.00015   0.00018   0.00018  -0.00005
 200       13F-1        0.00016  -0.00015  -0.00018   0.00018   0.00004
 201       13F+2        0.00004  -0.00004  -0.00008   0.00008   0.00004
 202       13F-2        0.00004   0.00004   0.00008   0.00008  -0.00005
 203       13F+3        0.00000   0.00000   0.00000   0.00000   0.00000
 204       13F-3        0.00000   0.00000   0.00000   0.00000   0.00000
 205       14F 0        0.00001   0.00001  -0.00001  -0.00001  -0.00004
 206       14F+1        0.00102   0.00104  -0.00061  -0.00062  -0.00001
 207       14F-1        0.00103  -0.00103   0.00061  -0.00062   0.00001
 208       14F+2       -0.00010   0.00009   0.00017  -0.00016  -0.00010
 209       14F-2       -0.00010  -0.00008  -0.00017  -0.00017   0.00013
 210       14F+3        0.00000   0.00000   0.00000   0.00000   0.00000
 211       14F-3        0.00000   0.00000   0.00000   0.00000   0.00000
                          16        17        18        19        20
     Eigenvalues --     1.94911   1.94879   1.93535   0.06018   0.02495
   1 1   C  1S          0.00087   0.05332  -0.01580  -0.02406  -0.00054
   2        2S         -0.00247  -0.15180   0.05098   0.06679   0.00204
   3        3S         -0.00058  -0.03583   0.01676   0.02431   0.00120
   4        4S         -0.00495  -0.29219   0.08713  -0.22169  -0.00500
   5        5S         -0.00098  -0.05762   0.03919  -0.02903  -0.00085
   6        6PX         0.04149  -0.00240   0.00008  -0.00001   0.11021
   7        6PY         0.05391  -0.00002  -0.00006   0.00012   0.10997
   8        6PZ        -0.00078  -0.04567  -0.12871   0.27936  -0.00003
   9        7PX         0.05766  -0.00329   0.00011  -0.00037   0.20464
  10        7PY         0.07493  -0.00002  -0.00008   0.00019   0.20420
  11        7PZ        -0.00111  -0.06472  -0.18059   0.44329   0.00000
  12        8PX         0.04442  -0.00226  -0.00005  -0.00038   0.09358
  13        8PY         0.05768  -0.00003  -0.00003   0.00009   0.09338
  14        8PZ        -0.00102  -0.06419  -0.07659   0.20175   0.00028
  15        9PX         0.00748  -0.00040   0.00001   0.00007   0.02095
  16        9PY         0.00972   0.00000   0.00000   0.00000   0.02090
  17        9PZ        -0.00002  -0.00123  -0.00166  -0.00006  -0.00018
  18       10D 0        0.00016   0.00935  -0.01106  -0.00881   0.00006
  19       10D+1       -0.00228   0.00009   0.00001   0.00003   0.01807
  20       10D-1       -0.00296   0.00001  -0.00001  -0.00001   0.01803
  21       10D+2        0.00398   0.00000   0.00000   0.00000   0.00261
  22       10D-2        0.00306  -0.00018   0.00001  -0.00002   0.00263
  23       11D 0        0.00085   0.04982  -0.04570   0.06671   0.00105
  24       11D+1       -0.00945   0.00014   0.00008   0.00019   0.04239
  25       11D-1       -0.01226   0.00004  -0.00003   0.00005   0.04234
  26       11D+2        0.01354   0.00000   0.00000   0.00000   0.04940
  27       11D-2        0.01040  -0.00049   0.00002  -0.00031   0.04951
  28       12D 0        0.00045   0.02815  -0.00380  -0.01696  -0.00008
  29       12D+1        0.00068  -0.00014   0.00004   0.00012   0.01334
  30       12D-1        0.00091   0.00002   0.00000  -0.00001   0.01332
  31       12D+2        0.00800   0.00000   0.00000   0.00000   0.01046
  32       12D-2        0.00615  -0.00020  -0.00002  -0.00018   0.01048
  33       13F 0       -0.00003  -0.00208  -0.00328  -0.00586  -0.00002
  34       13F+1       -0.00136   0.00009   0.00000   0.00003  -0.00681
  35       13F-1       -0.00177   0.00000   0.00000  -0.00001  -0.00679
  36       13F+2       -0.00026   0.00000   0.00000   0.00000   0.00225
  37       13F-2       -0.00020   0.00000   0.00000   0.00002   0.00224
  38       13F+3        0.00000   0.00000   0.00000   0.00000  -0.00001
  39       13F-3       -0.00005  -0.00308   0.00115  -0.00053  -0.00004
  40       14F 0       -0.00008  -0.00547  -0.00087   0.01161   0.00020
  41       14F+1       -0.00442   0.00030  -0.00004  -0.00001  -0.00190
  42       14F-1       -0.00575  -0.00001   0.00000   0.00001  -0.00190
  43       14F+2       -0.00257   0.00001   0.00000   0.00002  -0.00151
  44       14F-2       -0.00198  -0.00001   0.00002   0.00009  -0.00152
  45       14F+3        0.00000  -0.00001   0.00000  -0.00001   0.00002
  46       14F-3       -0.00026  -0.01509   0.00917  -0.03771  -0.00066
  47 2   H  1S         -0.03765  -0.03379   0.02884  -0.00683   0.02853
  48        2S         -0.03652  -0.00312   0.02282   0.08001   0.18424
  49        3S          0.00471   0.02197   0.02032   0.06878   0.11787
  50        4S          0.00088   0.00012   0.00193   0.00722   0.05106
  51        5PX         0.00065  -0.00004   0.00000   0.00000   0.00204
  52        5PY        -0.00289  -0.00214   0.00248  -0.00201  -0.00617
  53        5PZ         0.00010  -0.00267  -0.00321   0.01430  -0.00863
  54        6PX         0.00229  -0.00009   0.00000  -0.00008   0.00540
  55        6PY         0.00455   0.00552  -0.00154   0.00982   0.04217
  56        6PZ        -0.00095  -0.00100  -0.01029   0.02820  -0.00380
  57        7PX         0.00172  -0.00004  -0.00002  -0.00008  -0.00111
  58        7PY         0.00792   0.01110  -0.00164   0.01272   0.03610
  59        7PZ         0.00246   0.00807   0.00317  -0.01401   0.00377
  60        8D 0        0.00032   0.00014  -0.00085   0.00060   0.00182
  61        8D+1       -0.00002   0.00000   0.00000   0.00000   0.00128
  62        8D-1       -0.00024  -0.00020  -0.00171   0.00673  -0.00280
  63        8D+2        0.00042   0.00052  -0.00061   0.00186   0.00181
  64        8D-2        0.00037  -0.00002   0.00000   0.00000   0.00152
  65        9D 0       -0.00010   0.00083  -0.00283   0.00597  -0.00221
  66        9D+1       -0.00072   0.00003   0.00002  -0.00002   0.00316
  67        9D-1       -0.00033   0.00202  -0.00055  -0.00588   0.01096
  68        9D+2       -0.00084   0.00108   0.00035  -0.00113  -0.00678
  69        9D-2        0.00069  -0.00003   0.00000  -0.00003   0.00078
  70 3   H  1S         -0.00672  -0.03238   0.02880  -0.00669   0.01010
  71        2S         -0.00607  -0.00156   0.02277   0.07963   0.06790
  72        3S          0.00114   0.02213   0.02017   0.06798   0.04396
  73        4S          0.00016   0.00013   0.00191   0.00708   0.01881
  74        5PX         0.00009  -0.00177   0.00215  -0.00173  -0.00055
  75        5PY         0.00116   0.00100  -0.00124   0.00101   0.00354
  76        5PZ        -0.00002  -0.00267  -0.00322   0.01428  -0.00317
  77        6PX         0.00259   0.00465  -0.00133   0.00830   0.01719
  78        6PY         0.00280  -0.00273   0.00076  -0.00483  -0.00145
  79        6PZ        -0.00017  -0.00110  -0.01029   0.02831  -0.00134
  80        7PX         0.00268   0.00932  -0.00144   0.01090   0.01091
  81        7PY         0.00167  -0.00540   0.00083  -0.00635  -0.00803
  82        7PZ         0.00052   0.00795   0.00315  -0.01395   0.00139
  83        8D 0        0.00006   0.00014  -0.00085   0.00060   0.00067
  84        8D+1       -0.00005  -0.00018  -0.00148   0.00584  -0.00003
  85        8D-1       -0.00001   0.00011   0.00085  -0.00337   0.00203
  86        8D+2        0.00048  -0.00026   0.00030  -0.00094   0.00147
  87        8D-2        0.00036   0.00044  -0.00052   0.00162   0.00160
  88        9D 0        0.00000   0.00086  -0.00282   0.00594  -0.00066
  89        9D+1       -0.00061   0.00173  -0.00045  -0.00506   0.00562
  90        9D-1       -0.00100  -0.00098   0.00027   0.00292   0.00170
  91        9D+2        0.00103  -0.00057  -0.00018   0.00054   0.00217
  92        9D-2        0.00045   0.00096   0.00031  -0.00096  -0.00163
  93 4   H  1S          0.04270  -0.03519   0.02889  -0.00697  -0.04046
  94        2S          0.04255  -0.00467   0.02287   0.08038  -0.25137
  95        3S         -0.00468   0.02181   0.02046   0.06958  -0.15892
  96        4S         -0.00100   0.00010   0.00194   0.00736  -0.06971
  97        5PX        -0.00306   0.00195  -0.00216   0.00175  -0.00776
  98        5PY        -0.00130   0.00114  -0.00125   0.00102  -0.00362
  99        5PZ        -0.00021  -0.00268  -0.00321   0.01431   0.01182
 100        6PX         0.00369  -0.00492   0.00132  -0.00868   0.04863
 101        6PY         0.00378  -0.00279   0.00076  -0.00495   0.03035
 102        6PZ         0.00108  -0.00089  -0.01030   0.02810   0.00535
 103        7PX         0.00711  -0.00990   0.00140  -0.01114   0.04236
 104        7PY         0.00535  -0.00568   0.00082  -0.00639   0.02397
 105        7PZ        -0.00254   0.00819   0.00318  -0.01405  -0.00519
 106        8D 0       -0.00037   0.00015  -0.00085   0.00061  -0.00248
 107        8D+1       -0.00023   0.00017   0.00148  -0.00581  -0.00355
 108        8D-1       -0.00015   0.00010   0.00085  -0.00336  -0.00151
 109        8D+2        0.00044  -0.00026   0.00030  -0.00092   0.00175
 110        8D-2        0.00030  -0.00047   0.00053  -0.00161   0.00191
 111        9D 0        0.00016   0.00081  -0.00283   0.00599   0.00358
 112        9D+1       -0.00017  -0.00177   0.00049   0.00512   0.01247
 113        9D-1       -0.00062  -0.00104   0.00027   0.00297   0.00853
 114        9D+2       -0.00014  -0.00051  -0.00017   0.00059  -0.00439
 115        9D-2       -0.00109  -0.00091  -0.00030   0.00101  -0.00815
 116 5   Cl 1S          0.00017   0.01021   0.00050  -0.01679  -0.00001
 117        2S         -0.00064  -0.03896  -0.00167   0.05630   0.00003
 118        3S          0.00131   0.08052   0.01125  -0.15674  -0.00009
 119        4S          0.00020   0.01243   0.00452  -0.03986   0.00000
 120        5S          0.00110   0.06904   0.01221  -0.04600  -0.00004
 121        6S          0.00035   0.02043  -0.01254   0.01584   0.00016
 122        7PX         0.13633  -0.00604  -0.00011  -0.00006   0.01490
 123        7PY         0.17717   0.00002  -0.00009  -0.00007   0.01487
 124        7PZ         0.00029   0.02662  -0.21013  -0.16341  -0.00018
 125        8PX        -0.31188   0.01380   0.00025   0.00014  -0.02320
 126        8PY        -0.40532  -0.00005   0.00020   0.00016  -0.02315
 127        8PZ        -0.00068  -0.06216   0.46463   0.36066   0.00045
 128        9PX        -0.15066   0.00667   0.00011   0.00007  -0.02477
 129        9PY        -0.19579  -0.00002   0.00009   0.00009  -0.02471
 130        9PZ        -0.00035  -0.03100   0.21829   0.20647   0.00025
 131       10PX        -0.22417   0.00995   0.00018  -0.00003   0.01183
 132       10PY        -0.29134  -0.00005   0.00014   0.00001   0.01180
 133       10PZ        -0.00094  -0.07218   0.31777   0.02931  -0.00008
 134       11PX        -0.03789   0.00174   0.00001  -0.00008   0.00418
 135       11PY        -0.04925  -0.00001   0.00002   0.00000   0.00417
 136       11PZ        -0.00035  -0.02399   0.04618   0.00728  -0.00003
 137       12D 0       -0.00008  -0.00472  -0.01240   0.06748   0.00063
 138       12D+1        0.00013   0.00001  -0.00002   0.00001  -0.04098
 139       12D-1        0.00017   0.00000  -0.00001   0.00005  -0.04089
 140       12D+2        0.00020   0.00000   0.00000   0.00000   0.00059
 141       12D-2        0.00015  -0.00001   0.00000   0.00000   0.00056
 142       13D 0       -0.00013  -0.00754  -0.01943   0.09789   0.00087
 143       13D+1        0.00042   0.00002  -0.00004   0.00003  -0.06119
 144       13D-1        0.00054  -0.00001  -0.00001   0.00007  -0.06106
 145       13D+2        0.00044   0.00000   0.00000   0.00000   0.00092
 146       13D-2        0.00034  -0.00001   0.00000   0.00000   0.00087
 147       14D 0        0.00002   0.00153  -0.01324   0.03015   0.00010
 148       14D+1        0.00204  -0.00006  -0.00004   0.00002  -0.00662
 149       14D-1        0.00265   0.00000  -0.00001   0.00002  -0.00660
 150       14D+2        0.00006   0.00000   0.00000   0.00000   0.00017
 151       14D-2        0.00006   0.00000   0.00000   0.00000   0.00017
 152       15F 0        0.00002   0.00098   0.00459  -0.00358  -0.00004
 153       15F+1       -0.00086   0.00003   0.00000   0.00000   0.00352
 154       15F-1       -0.00111   0.00000   0.00000   0.00000   0.00352
 155       15F+2       -0.00008   0.00000   0.00000   0.00000  -0.00015
 156       15F-2       -0.00006   0.00001   0.00000   0.00000  -0.00015
 157       15F+3        0.00000   0.00000   0.00000   0.00000   0.00000
 158       15F-3        0.00000  -0.00007   0.00004   0.00004   0.00000
 159       16F 0        0.00003   0.00137   0.00401   0.00164  -0.00001
 160       16F+1       -0.00109   0.00003   0.00002  -0.00001   0.00017
 161       16F-1       -0.00142   0.00000   0.00000   0.00000   0.00017
 162       16F+2       -0.00016   0.00000   0.00000   0.00000   0.00070
[...]
  81        7PY        -0.50188   8.04696   6.56845   0.99544   3.90270
  82        7PZ        -1.01240  -3.20380   1.50702  -0.01117  -0.21064
  83        8D 0       -0.03781   0.00527   0.00061   0.02558   0.00491
  84        8D+1        0.01453  -0.00934   0.02672   0.00830   0.00070
  85        8D-1       -0.00502   0.02566   0.02950  -0.00490  -0.00670
  86        8D+2        0.05471  -0.03888  -0.10190   0.02467  -0.02972
  87        8D-2       -0.11223  -0.03202  -0.04345  -0.04223  -0.00499
  88        9D 0       -0.54407   0.39295  -0.12832  -0.14943   0.06955
  89        9D+1       -0.20599  -0.26324  -0.08253  -0.04015  -0.01660
  90        9D-1        0.08593  -0.03248  -0.36151   0.02389   0.11283
  91        9D+2        0.08613   0.02243   1.74175  -0.36840   0.44309
  92        9D-2        0.12245   1.46806   0.35304   0.62566   0.33892
  93 4   H  1S         -0.03345  -0.00440   0.01621  -0.00953  -0.02574
  94        2S         -0.19346   0.37117  -3.49872  -0.48547   2.14792
  95        3S          3.70485   3.59549 -28.65891  -2.93835  25.05503
  96        4S          1.76380  -0.04838   1.62043  -2.00903  10.77741
  97        5PX        -0.04264   0.05926  -0.08316  -0.08008   0.10480
  98        5PY        -0.01419  -0.08568  -0.06204  -0.04679   0.04497
  99        5PZ         0.05775   0.00672  -0.01828   0.03023  -0.01022
 100        6PX        -0.25147  -0.99516   2.06145   0.58642  -1.17401
 101        6PY        -0.28707   1.09485   1.38391   0.34551  -0.52288
 102        6PZ        -0.33509  -0.02846   0.01606  -0.15875   0.16152
 103        7PX         0.44541  -6.17846   7.72836   1.64606  -6.69632
 104        7PY        -0.79858   8.44495   5.86188   1.00258  -2.81271
 105        7PZ        -1.97748   0.18427  -3.08366   0.05169   0.79044
 106        8D 0       -0.03534  -0.00483   0.01637   0.02447  -0.01788
 107        8D+1       -0.00574  -0.02424   0.02058  -0.00835   0.01350
 108        8D-1       -0.00718   0.03481   0.01724  -0.00463   0.00611
 109        8D+2        0.07194  -0.09538  -0.02402   0.02433   0.01309
 110        8D-2        0.10468   0.07030  -0.01563   0.04262   0.03779
 111        9D 0       -0.43785  -0.10110   0.53738  -0.14805  -0.25834
 112        9D+1        0.22976   0.19821   0.15691   0.03497  -0.24098
 113        9D-1        0.16993  -0.33408   0.04032   0.01869  -0.11142
 114        9D+2       -0.33728   1.62604  -0.47735  -0.34826   0.26193
 115        9D-2       -0.27631  -0.80148  -1.24017  -0.61562   0.15646
 116 5   Cl 1S          0.02004   0.00205  -0.00259   0.01177   0.00000
 117        2S          0.27724   0.02855  -0.03615   0.16377   0.00005
 118        3S          0.77316   0.07912  -0.10014   0.46013   0.00006
 119        4S         -0.04144  -0.00493   0.00632  -0.01474  -0.00009
 120        5S         -4.30619  -0.43666   0.55223  -3.02648   0.00048
 121        6S         -9.71385  -0.93499   1.17734 -13.25264  -0.00360
 122        7PX         0.00001   0.00043  -0.00067   0.00009   0.00211
 123        7PY        -0.00001  -0.00061  -0.00050  -0.00001   0.00212
 124        7PZ        -0.00456  -0.00034   0.00042  -0.02274  -0.00001
 125        8PX        -0.00153   0.01054  -0.01496   0.00077   0.04191
 126        8PY         0.00001  -0.01459  -0.01111  -0.00014   0.04199
 127        8PZ        -0.06437  -0.00470   0.00577  -0.31757  -0.00012
 128        9PX         0.00007  -0.00216   0.00329  -0.00039  -0.00710
 129        9PY         0.00002   0.00302   0.00246   0.00004  -0.00712
 130        9PZ         0.00197  -0.00022   0.00032   0.07963   0.00005
 131       10PX         0.00447  -0.04093   0.05098   0.00582  -0.29887
 132       10PY         0.00185   0.05467   0.03601   0.00216  -0.29938
 133       10PZ         5.84873   0.57750  -0.72873   5.08207  -0.00002
 134       11PX         0.18559  -0.67449   0.91136  -0.00344   0.17662
 135       11PY        -0.00759   0.93015   0.67437   0.00144   0.17693
 136       11PZ         0.78634   0.06689  -0.08423   3.36041   0.00286
 137       12D 0        0.06735   0.00679  -0.00854   0.00182  -0.00005
 138       12D+1       -0.00496   0.01795  -0.02450   0.00022   0.00254
 139       12D-1        0.00024  -0.02482  -0.01819   0.00000   0.00254
 140       12D+2       -0.00003   0.00611   0.00469   0.00000  -0.00854
 141       12D-2        0.00183  -0.00428   0.00614   0.00002  -0.00852
 142       13D 0       -0.38379  -0.03877   0.04884  -0.07056   0.00015
 143       13D+1        0.01809  -0.06578   0.09033  -0.00115  -0.01783
 144       13D-1       -0.00094   0.09110   0.06716  -0.00004  -0.01783
 145       13D+2        0.00008  -0.01393  -0.01061   0.00000   0.03088
 146       13D-2       -0.00456   0.00974  -0.01385  -0.00003   0.03079
 147       14D 0       -1.37873  -0.13481   0.17035  -1.24213  -0.00043
 148       14D+1       -0.04967   0.18035  -0.24176  -0.00283   0.22893
 149       14D-1        0.00120  -0.24825  -0.17839  -0.00091   0.22919
 150       14D+2       -0.00088   0.05409   0.03572   0.00000  -0.14282
 151       14D-2        0.01060  -0.04019   0.04942   0.00020  -0.14227
 152       15F 0       -0.04258  -0.00415   0.00524   0.00123   0.00001
 153       15F+1       -0.00140   0.00253  -0.00363  -0.00032   0.01296
 154       15F-1       -0.00003  -0.00364  -0.00279   0.00000   0.01297
 155       15F+2       -0.00014   0.00815   0.00525  -0.00001  -0.00736
 156       15F-2        0.00124  -0.00615   0.00738  -0.00020  -0.00732
 157       15F+3       -0.00001   0.00040   0.00030   0.00001   0.00002
 158       15F-3       -0.00920  -0.00104   0.00133   0.02294   0.00003
 159       16F 0        0.23081   0.02265  -0.02857   0.08905   0.00006
 160       16F+1        0.00416  -0.00888   0.01157   0.00134  -0.04421
 161       16F-1        0.00010   0.01232   0.00857   0.00009  -0.04424
 162       16F+2        0.00051  -0.03793  -0.02584   0.00002   0.03010
 163       16F-2       -0.00650   0.02813  -0.03566   0.00040   0.02997
 164       16F+3        0.00001  -0.00082  -0.00059  -0.00002  -0.00004
 165       16F-3        0.01911   0.00216  -0.00279  -0.04285  -0.00004
 166 6   F  1S          0.03966   0.00413  -0.00522  -0.02260  -0.00009
 167        2S          0.13950   0.01457  -0.01845  -0.08578  -0.00039
 168        3S         -0.07111  -0.00736   0.00931   0.03662   0.00011
 169        4S         -0.37401  -0.04069   0.05162  -0.02111   0.00131
 170        5S         -0.05893   0.00249  -0.00383  -5.93559  -0.00098
 171        6PX         0.00126  -0.00423   0.00581   0.00000  -0.00121
 172        6PY        -0.00004   0.00587   0.00432   0.00000  -0.00121
 173        6PZ         0.00533   0.00050  -0.00064   0.00222   0.00001
 174        7PX        -0.00619   0.02200  -0.02994  -0.00023   0.00437
 175        7PY         0.00022  -0.03042  -0.02221   0.00001   0.00438
 176        7PZ        -0.06293  -0.00630   0.00797   0.00265  -0.00004
 177        8PX         0.04049  -0.15530   0.20856   0.00320  -0.00092
 178        8PY        -0.00166   0.21349   0.15382  -0.00014  -0.00092
 179        8PZ         0.62122   0.06339  -0.08040  -0.24702   0.00085
 180        9PX         0.12799  -0.49402   0.66659   0.01138   0.16312
 181        9PY        -0.00612   0.67995   0.49244  -0.00118   0.16339
 182        9PZ        -0.85726  -0.08023   0.10023  -2.49217  -0.00032
 183       10D 0        0.01123   0.00109  -0.00139  -0.00797  -0.00001
 184       10D+1        0.00221  -0.00864   0.01179   0.00007  -0.00151
 185       10D-1       -0.00008   0.01192   0.00873  -0.00001  -0.00152
 186       10D+2       -0.00001  -0.00382  -0.00314   0.00000  -0.00204
 187       10D-2       -0.00099   0.00263  -0.00406   0.00001  -0.00203
 188       11D 0       -0.04154  -0.00405   0.00516   0.01569  -0.00002
 189       11D+1       -0.00709   0.02775  -0.03789  -0.00021   0.00259
 190       11D-1        0.00025  -0.03831  -0.02806   0.00002   0.00260
 191       11D+2        0.00004   0.01292   0.01067   0.00000   0.00722
 192       11D-2        0.00342  -0.00888   0.01377  -0.00003   0.00721
 193       12D 0        0.41119   0.04199  -0.05332  -0.01118   0.00035
 194       12D+1        0.01929  -0.08213   0.10924   0.00146   0.02278
 195       12D-1       -0.00077   0.11228   0.08010  -0.00003   0.02281
 196       12D+2       -0.00008  -0.04858  -0.03945   0.00000  -0.01389
 197       12D-2       -0.01198   0.03369  -0.05126   0.00030  -0.01383
 198       13F 0       -0.02702  -0.00282   0.00354  -0.00760  -0.00007
 199       13F+1        0.00321  -0.01080   0.01490   0.00028  -0.00570
 200       13F-1       -0.00012   0.01503   0.01113  -0.00001  -0.00572
 201       13F+2       -0.00005   0.00728   0.00544   0.00000  -0.00181
 202       13F-2        0.00146  -0.00526   0.00731   0.00007  -0.00181
 203       13F+3        0.00001  -0.00036  -0.00027   0.00000  -0.00004
 204       13F-3        0.01260   0.00108  -0.00135  -0.00138  -0.00003
 205       14F 0        0.06726   0.00707  -0.00890   0.01182   0.00010
 206       14F+1       -0.00703   0.02309  -0.03236  -0.00026   0.01270
 207       14F-1        0.00024  -0.03231  -0.02428   0.00001   0.01273
 208       14F+2        0.00014  -0.02025  -0.01505   0.00000   0.00442
 209       14F-2       -0.00393   0.01464  -0.02024  -0.00005   0.00442
 210       14F+3       -0.00001   0.00066   0.00051   0.00000   0.00004
 211       14F-3       -0.01698  -0.00144   0.00179   0.00261   0.00002
                         211
     Eigenvalues --     0.00000
   1 1   C  1S         -0.00050
   2        2S         -0.00301
   3        3S         -0.00031
   4        4S         -0.03915
   5        5S         -0.04069
   6        6PX        -0.00522
   7        6PY         0.00522
   8        6PZ         0.00003
   9        7PX         1.08385
  10        7PY        -1.08207
  11        7PZ         0.00078
  12        8PX        12.27848
  13        8PY       -12.25810
  14        8PZ         0.00779
  15        9PX         5.58087
  16        9PY        -5.57156
  17        9PZ         0.00368
  18       10D 0        0.00006
  19       10D+1       -0.00118
  20       10D-1        0.00116
  21       10D+2       -0.01541
  22       10D-2        0.01544
  23       11D 0        0.00055
  24       11D+1       -0.14729
  25       11D-1        0.14679
  26       11D+2       -0.29185
  27       11D-2        0.29243
  28       12D 0       -0.00022
  29       12D+1       -0.90581
  30       12D-1        0.90464
  31       12D+2        0.39044
  32       12D-2       -0.39215
  33       13F 0       -0.00002
  34       13F+1        0.02725
  35       13F-1       -0.02722
  36       13F+2       -0.00651
  37       13F-2        0.00657
  38       13F+3        0.00003
  39       13F-3       -0.00009
  40       14F 0       -0.00036
  41       14F+1       -0.28641
  42       14F-1        0.28602
  43       14F+2        0.05506
  44       14F-2       -0.05559
  45       14F+3       -0.00031
  46       14F-3        0.00066
  47 2   H  1S          0.01890
  48        2S         -1.56677
  49        3S        -18.33017
  50        4S         -7.89141
  51        5PX         0.03676
  52        5PY         0.08250
  53        5PZ         0.00734
  54        6PX        -0.36592
  55        6PY        -0.93016
  56        6PZ        -0.11734
  57        7PX        -2.46524
  58        7PY        -5.26132
  59        7PZ        -0.57975
  60        8D 0        0.01327
  61        8D+1        0.00406
  62        8D-1        0.01105
  63        8D+2        0.02857
  64        8D-2        0.02066
  65        9D 0        0.18636
  66        9D+1       -0.06553
  67        9D-1       -0.19334
  68        9D+2        0.19332
  69        9D-2       -0.40442
  70 3   H  1S         -0.02582
  71        2S          2.14421
  72        3S         25.11735
  73        4S         10.80720
  74        5PX        -0.10469
  75        5PY         0.04496
  76        5PZ        -0.01018
  77        6PX         1.17208
  78        6PY        -0.52268
  79        6PZ         0.16146
  80        7PX         6.69264
  81        7PY        -2.82742
  82        7PZ         0.79382
  83        8D 0       -0.01842
  84        8D+1       -0.01381
  85        8D-1        0.00626
  86        8D+2        0.01304
  87        8D-2       -0.03770
  88        9D 0       -0.25580
  89        9D+1        0.24123
  90        9D-1       -0.11172
  91        9D+2        0.26078
  92        9D-2       -0.15672
  93 4   H  1S          0.00695
  94        2S         -0.57570
  95        3S         -6.72707
  96        4S         -2.89785
  97        5PX        -0.00118
  98        5PY        -0.05847
  99        5PZ         0.00272
 100        6PX         0.04609
 101        6PY         0.60198
 102        6PZ        -0.04350
 103        7PX        -0.00811
 104        7PY         3.87641
 105        7PZ        -0.21659
 106        8D 0        0.00482
 107        8D+1       -0.00074
 108        8D-1       -0.00683
 109        8D+2       -0.02961
 110        8D-2        0.00500
 111        9D 0        0.06806
 112        9D+1        0.01701
 113        9D-1        0.11343
 114        9D+2        0.44190
 115        9D-2       -0.33686
 116 5   Cl 1S          0.00000
 117        2S         -0.00006
 118        3S         -0.00007
 119        4S          0.00009
 120        5S         -0.00043
 121        6S          0.00422
 122        7PX        -0.00210
 123        7PY         0.00209
 124        7PZ         0.00001
 125        8PX        -0.04185
 126        8PY         0.04179
 127        8PZ         0.00010
 128        9PX         0.00703
 129        9PY        -0.00702
 130        9PZ        -0.00005
 131       10PX         0.29829
 132       10PY        -0.29780
 133       10PZ         0.00008
 134       11PX        -0.17541
 135       11PY         0.17512
 136       11PZ        -0.00321
 137       12D 0        0.00005
 138       12D+1       -0.00257
 139       12D-1        0.00256
 140       12D+2       -0.00864
 141       12D-2        0.00866
 142       13D 0       -0.00012
 143       13D+1        0.01805
 144       13D-1       -0.01799
 145       13D+2        0.03116
 146       13D-2       -0.03122
 147       14D 0        0.00016
 148       14D+1       -0.22978
 149       14D-1        0.22928
 150       14D+2       -0.14262
 151       14D-2        0.14277
 152       15F 0       -0.00004
 153       15F+1       -0.01314
 154       15F-1        0.01311
 155       15F+2       -0.00731
 156       15F-2        0.00731
 157       15F+3        0.00001
 158       15F-3       -0.00004
 159       16F 0        0.00003
 160       16F+1        0.04469
 161       16F-1       -0.04458
 162       16F+2        0.02996
 163       16F-2       -0.02998
 164       16F+3        0.00000
 165       16F-3        0.00007
 166 6   F  1S          0.00010
 167        2S          0.00040
 168        3S         -0.00011
 169        4S         -0.00134
 170        5S          0.00121
 171        6PX         0.00119
 172        6PY        -0.00119
 173        6PZ        -0.00001
 174        7PX        -0.00429
 175        7PY         0.00428
 176        7PZ         0.00003
 177        8PX         0.00076
 178        8PY        -0.00075
 179        8PZ        -0.00085
 180        9PX        -0.16274
 181        9PY         0.16246
 182        9PZ         0.00028
 183       10D 0        0.00001
 184       10D+1        0.00158
 185       10D-1       -0.00158
 186       10D+2       -0.00199
 187       10D-2        0.00199
 188       11D 0        0.00002
 189       11D+1       -0.00276
 190       11D-1        0.00276
 191       11D+2        0.00703
 192       11D-2       -0.00705
 193       12D 0       -0.00038
 194       12D+1       -0.02209
 195       12D-1        0.02205
 196       12D+2       -0.01313
 197       12D-2        0.01314
 198       13F 0        0.00008
 199       13F+1        0.00569
 200       13F-1       -0.00569
 201       13F+2       -0.00195
 202       13F-2        0.00197
 203       13F+3       -0.00004
 204       13F-3        0.00003
 205       14F 0       -0.00013
 206       14F+1       -0.01256
 207       14F-1        0.01255
 208       14F+2        0.00467
 209       14F-2       -0.00470
 210       14F+3        0.00005
 211       14F-3       -0.00002
          Condensed to atoms (all electrons):
              1          2          3          4          5          6
     1  C    7.012168  -0.009260  -0.009631  -0.008890  -0.050898  -0.099829
     2  H   -0.009260   0.547070   0.020086   0.020059  -0.018741   0.004332
     3  H   -0.009631   0.020086   0.547326   0.020073  -0.018552   0.004837
     4  H   -0.008890   0.020059   0.020073   0.546817  -0.018927   0.003833
     5  Cl  -0.050898  -0.018741  -0.018552  -0.018927  17.709236   0.026399
     6  F   -0.099829   0.004332   0.004837   0.003833   0.026399   9.907603
 Mulliken atomic charges:
              1
     1  C   -0.833660
     2  H    0.436454
     3  H    0.435861
     4  H    0.437036
     5  Cl  -0.628517
     6  F   -0.847174
 Sum of Mulliken atomic charges =  -1.00000
 Mulliken charges with hydrogens summed into heavy atoms:
              1
     1  C    0.475691
     5  Cl  -0.628517
     6  F   -0.847174
 Sum of Mulliken charges with hydrogens summed into heavy atoms =  -1.00000
 Electronic spatial extent (au):  <R**2>=            490.3179
 Charge=             -1.0000 electrons
 Dipole moment (field-independent basis, Debye):
    X=             -0.0354    Y=              0.0007    Z=              4.0663  Tot=              4.0665
 Quadrupole moment (field-independent basis, Debye-Ang):
   XX=            -28.1817   YY=            -28.1814   ZZ=            -62.8204
   XY=              0.0003   XZ=              0.0968   YZ=             -0.0145
 Traceless Quadrupole moment (field-independent basis, Debye-Ang):
   XX=             11.5461   YY=             11.5465   ZZ=            -23.0926
   XY=              0.0003   XZ=              0.0968   YZ=             -0.0145
 Octapole moment (field-independent basis, Debye-Ang**2):
  XXX=             -0.2223  YYY=             -0.9747  ZZZ=             49.6893  XYY=             -0.0746
  XXY=              0.9406  XXZ=             -4.2352  XZZ=             -0.3299  YZZ=              0.0111
  YYZ=             -4.2354  XYZ=             -0.0012
 Hexadecapole moment (field-independent basis, Debye-Ang**3):
 XXXX=            -41.2723 YYYY=            -41.2682 ZZZZ=           -761.6434 XXXY=              0.0024
 XXXZ=              0.4908 YYYX=             -0.0004 YYYZ=              0.5143 ZZZX=              1.1524
 ZZZY=             -0.1889 XXYY=            -13.7569 XXZZ=           -103.3885 YYZZ=           -103.3865
 XXYZ=             -0.6773 YYXZ=              0.1639 ZZXY=              0.0013
 N-N= 8.498405247110D+01 E-N=-1.604180092294D+03  KE= 5.991954507683D+02
 1\1\GINC-TRAPISTA\SP\RQCISD-FC\Aug-CC-pVTZ\C1H3Cl1F1(1-)\BRUNS\24-Aug-
 2020\0\\# QCISD aug-cc-pvtz nosymm density=current output=wfn\\clch3f_
 ts-wavefunction\\-1,1\C,0,0.000175,0.000029,-0.497709\H,0,0.000019,-1.
 05257,-0.620726\H,0,-0.911312,0.526365,-0.621245\H,0,0.91175,0.526132,
 -0.62157\Cl,0,0.000555,0.000962,1.644718\F,0,0.009814,-0.000921,-2.593
 468\\Version=EM64L-G09RevB.01\HF=-598.617123\MP2=-599.2912657\MP3=-599
 .3099667\MP4D=-599.3248571\MP4DQ=-599.3104182\MP4SDQ=-599.3197844\QCIS
 D=-599.3191665\RMSD=9.413e-09\Dipole=-0.0085678,0.0007245,1.5873488\Qu
 adrupole=8.5842463,8.5845167,-17.168763,0.0002385,0.0719645,-0.0107463
 \PG=C01 [X(C1H3Cl1F1)]\\@

 Writing a WFN file to GAUSSIAN.wfn.


 THE MOST SERIOUS THREAT TO THE SURVIVAL OF MANKIND IS NOT NOW
 IGNORANCE IN THE TRADITIONAL SENSE,
 BUT A MORALLY NEUTRAL, AN INSENSITIVE OR INHIBITED HUMAN INTELLIGENCE.

                     -- MARGO JEFFERSON IN NEWSWEEK, SEPTEMBER 2, 1974
 Job cpu time:  0 days  3 hours 22 minutes  7.8 seconds.
 File lengths (MBytes):  RWF=  29002 Int=      0 D2E=      0 Chk=      4 Scr=      1
 Normal termination of Gaussian 09 at Mon Aug 24 11:28:56 2020.
