 clch3f_ts-wavefunction
GAUSSIAN            211 MOL ORBITALS    339 PRIMITIVES        6 NUCLEI
  C    1    (CENTRE  1)   0.00033070  0.01895206 -0.94053370  CHARGE =  6.0
  H    2    (CENTRE  2)   0.00003590 -1.98906904 -1.17300214  CHARGE =  1.0
  H    3    (CENTRE  3)  -1.72213010  0.99468570 -1.17398291  CHARGE =  1.0
  H    4    (CENTRE  4)   1.72295780  0.99424539 -1.17459707  CHARGE =  1.0
  Cl   5    (CENTRE  5)   0.00104880  0.00181792  3.10806659  CHARGE = 17.0
  F    6    (CENTRE  6)  -0.00035149 -0.00174044 -4.90094425  CHARGE =  9.0
CENTRE ASSIGNMENTS    1  1  1  1  1  1  1  1  1  1  1  1  1  1  1  1  1  1  1  1
CENTRE ASSIGNMENTS    1  1  1  1  1  1  1  1  1  1  1  1  1  1  1  1  1  1  1  1
CENTRE ASSIGNMENTS    1  1  1  1  1  1  1  1  1  1  1  1  1  1  1  1  1  1  1  1
CENTRE ASSIGNMENTS    1  1  1  1  1  1  1  1  1  1  1  1  2  2  2  2  2  2  2  2
CENTRE ASSIGNMENTS    2  2  2  2  2  2  2  2  2  2  2  2  2  2  2  2  2  2  2  3
CENTRE ASSIGNMENTS    3  3  3  3  3  3  3  3  3  3  3  3  3  3  3  3  3  3  3  3
CENTRE ASSIGNMENTS    3  3  3  3  3  3  4  4  4  4  4  4  4  4  4  4  4  4  4  4
CENTRE ASSIGNMENTS    4  4  4  4  4  4  4  4  4  4  4  4  4  5  5  5  5  5  5  5
CENTRE ASSIGNMENTS    5  5  5  5  5  5  5  5  5  5  5  5  5  5  5  5  5  5  5  5
CENTRE ASSIGNMENTS    5  5  5  5  5  5  5  5  5  5  5  5  5  5  5  5  5  5  5  5
CENTRE ASSIGNMENTS    5  5  5  5  5  5  5  5  5  5  5  5  5  5  5  5  5  5  5  5
CENTRE ASSIGNMENTS    5  5  5  5  5  5  5  5  5  5  5  5  5  5  5  5  5  5  5  5
CENTRE ASSIGNMENTS    5  5  5  5  5  5  5  5  5  5  5  5  5  5  5  5  5  5  5  5
CENTRE ASSIGNMENTS    5  5  5  5  5  5  5  6  6  6  6  6  6  6  6  6  6  6  6  6
CENTRE ASSIGNMENTS    6  6  6  6  6  6  6  6  6  6  6  6  6  6  6  6  6  6  6  6
CENTRE ASSIGNMENTS    6  6  6  6  6  6  6  6  6  6  6  6  6  6  6  6  6  6  6  6
CENTRE ASSIGNMENTS    6  6  6  6  6  6  6  6  6  6  6  6  6  6  6  6  6  6  6
TYPE ASSIGNMENTS      1  1  1  1  1  1  1  1  1  1  1  1  1  1  1  1  2  2  2  3
TYPE ASSIGNMENTS      3  3  4  4  4  2  3  4  2  3  4  2  3  4  5  6  7  8  9 10
TYPE ASSIGNMENTS      5  6  7  8  9 10  5  6  7  8  9 10 11 12 13 17 14 15 18 19
TYPE ASSIGNMENTS     16 20 11 12 13 17 14 15 18 19 16 20  1  1  1  1  1  1  2  3
TYPE ASSIGNMENTS      4  2  3  4  2  3  4  5  6  7  8  9 10  5  6  7  8  9 10  1
TYPE ASSIGNMENTS      1  1  1  1  1  2  3  4  2  3  4  2  3  4  5  6  7  8  9 10
TYPE ASSIGNMENTS      5  6  7  8  9 10  1  1  1  1  1  1  2  3  4  2  3  4  2  3
TYPE ASSIGNMENTS      4  5  6  7  8  9 10  5  6  7  8  9 10  1  1  1  1  1  1  1
TYPE ASSIGNMENTS      1  1  1  1  1  1  1  1  1  1  1  1  1  1  1  1  1  1  1  1
TYPE ASSIGNMENTS      1  1  1  1  2  2  2  2  2  2  3  3  3  3  3  3  4  4  4  4
TYPE ASSIGNMENTS      4  4  2  2  2  2  2  2  3  3  3  3  3  3  4  4  4  4  4  4
TYPE ASSIGNMENTS      2  3  4  2  3  4  2  3  4  5  6  7  8  9 10  5  6  7  8  9
TYPE ASSIGNMENTS     10  5  6  7  8  9 10 11 12 13 17 14 15 18 19 16 20 11 12 13
TYPE ASSIGNMENTS     17 14 15 18 19 16 20  1  1  1  1  1  1  1  1  1  1  1  1  1
TYPE ASSIGNMENTS      1  1  1  2  2  2  3  3  3  4  4  4  2  3  4  2  3  4  2  3
TYPE ASSIGNMENTS      4  5  6  7  8  9 10  5  6  7  8  9 10  5  6  7  8  9 10 11
TYPE ASSIGNMENTS     12 13 17 14 15 18 19 16 20 11 12 13 17 14 15 18 19 16 20
EXPONENTS  0.8236000D+04 0.1235000D+04 0.2808000D+03 0.7927000D+02 0.2559000D+02
EXPONENTS  0.8997000D+01 0.3319000D+01 0.2808000D+03 0.7927000D+02 0.2559000D+02
EXPONENTS  0.8997000D+01 0.3319000D+01 0.3643000D+00 0.9059000D+00 0.1285000D+00
EXPONENTS  0.4402000D-01 0.1871000D+02 0.4133000D+01 0.1200000D+01 0.1871000D+02
EXPONENTS  0.4133000D+01 0.1200000D+01 0.1871000D+02 0.4133000D+01 0.1200000D+01
EXPONENTS  0.3827000D+00 0.3827000D+00 0.3827000D+00 0.1209000D+00 0.1209000D+00
EXPONENTS  0.1209000D+00 0.3569000D-01 0.3569000D-01 0.3569000D-01 0.1097000D+01
EXPONENTS  0.1097000D+01 0.1097000D+01 0.1097000D+01 0.1097000D+01 0.1097000D+01
EXPONENTS  0.3180000D+00 0.3180000D+00 0.3180000D+00 0.3180000D+00 0.3180000D+00
EXPONENTS  0.3180000D+00 0.1000000D+00 0.1000000D+00 0.1000000D+00 0.1000000D+00
EXPONENTS  0.1000000D+00 0.1000000D+00 0.7610000D+00 0.7610000D+00 0.7610000D+00
EXPONENTS  0.7610000D+00 0.7610000D+00 0.7610000D+00 0.7610000D+00 0.7610000D+00
EXPONENTS  0.7610000D+00 0.7610000D+00 0.2680000D+00 0.2680000D+00 0.2680000D+00
EXPONENTS  0.2680000D+00 0.2680000D+00 0.2680000D+00 0.2680000D+00 0.2680000D+00
EXPONENTS  0.2680000D+00 0.2680000D+00 0.3387000D+02 0.5095000D+01 0.1159000D+01
EXPONENTS  0.3258000D+00 0.1027000D+00 0.2526000D-01 0.1407000D+01 0.1407000D+01
EXPONENTS  0.1407000D+01 0.3880000D+00 0.3880000D+00 0.3880000D+00 0.1020000D+00
EXPONENTS  0.1020000D+00 0.1020000D+00 0.1057000D+01 0.1057000D+01 0.1057000D+01
EXPONENTS  0.1057000D+01 0.1057000D+01 0.1057000D+01 0.2470000D+00 0.2470000D+00
EXPONENTS  0.2470000D+00 0.2470000D+00 0.2470000D+00 0.2470000D+00 0.3387000D+02
EXPONENTS  0.5095000D+01 0.1159000D+01 0.3258000D+00 0.1027000D+00 0.2526000D-01
EXPONENTS  0.1407000D+01 0.1407000D+01 0.1407000D+01 0.3880000D+00 0.3880000D+00
EXPONENTS  0.3880000D+00 0.1020000D+00 0.1020000D+00 0.1020000D+00 0.1057000D+01
EXPONENTS  0.1057000D+01 0.1057000D+01 0.1057000D+01 0.1057000D+01 0.1057000D+01
EXPONENTS  0.2470000D+00 0.2470000D+00 0.2470000D+00 0.2470000D+00 0.2470000D+00
EXPONENTS  0.2470000D+00 0.3387000D+02 0.5095000D+01 0.1159000D+01 0.3258000D+00
EXPONENTS  0.1027000D+00 0.2526000D-01 0.1407000D+01 0.1407000D+01 0.1407000D+01
EXPONENTS  0.3880000D+00 0.3880000D+00 0.3880000D+00 0.1020000D+00 0.1020000D+00
EXPONENTS  0.1020000D+00 0.1057000D+01 0.1057000D+01 0.1057000D+01 0.1057000D+01
EXPONENTS  0.1057000D+01 0.1057000D+01 0.2470000D+00 0.2470000D+00 0.2470000D+00
EXPONENTS  0.2470000D+00 0.2470000D+00 0.2470000D+00 0.4561000D+06 0.6833000D+05
EXPONENTS  0.1555000D+05 0.4405000D+04 0.1439000D+04 0.5204000D+03 0.2031000D+03
EXPONENTS  0.8396000D+02 0.3620000D+02 0.1583000D+02 0.6334000D+01 0.4405000D+04
EXPONENTS  0.1439000D+04 0.5204000D+03 0.2031000D+03 0.8396000D+02 0.3620000D+02
EXPONENTS  0.1583000D+02 0.6334000D+01 0.2694000D+01 0.1439000D+04 0.2031000D+03
EXPONENTS  0.8396000D+02 0.3620000D+02 0.1583000D+02 0.6334000D+01 0.2694000D+01
EXPONENTS  0.4313000D+00 0.9768000D+00 0.1625000D+00 0.5910000D-01 0.6633000D+03
EXPONENTS  0.1568000D+03 0.4998000D+02 0.1842000D+02 0.7240000D+01 0.2922000D+01
EXPONENTS  0.6633000D+03 0.1568000D+03 0.4998000D+02 0.1842000D+02 0.7240000D+01
EXPONENTS  0.2922000D+01 0.6633000D+03 0.1568000D+03 0.4998000D+02 0.1842000D+02
EXPONENTS  0.7240000D+01 0.2922000D+01 0.1568000D+03 0.4998000D+02 0.1842000D+02
EXPONENTS  0.7240000D+01 0.2922000D+01 0.3818000D+00 0.1568000D+03 0.4998000D+02
EXPONENTS  0.1842000D+02 0.7240000D+01 0.2922000D+01 0.3818000D+00 0.1568000D+03
EXPONENTS  0.4998000D+02 0.1842000D+02 0.7240000D+01 0.2922000D+01 0.3818000D+00
EXPONENTS  0.1022000D+01 0.1022000D+01 0.1022000D+01 0.1301000D+00 0.1301000D+00
EXPONENTS  0.1301000D+00 0.4190000D-01 0.4190000D-01 0.4190000D-01 0.1046000D+01
EXPONENTS  0.1046000D+01 0.1046000D+01 0.1046000D+01 0.1046000D+01 0.1046000D+01
EXPONENTS  0.3440000D+00 0.3440000D+00 0.3440000D+00 0.3440000D+00 0.3440000D+00
EXPONENTS  0.3440000D+00 0.1350000D+00 0.1350000D+00 0.1350000D+00 0.1350000D+00
EXPONENTS  0.1350000D+00 0.1350000D+00 0.7060000D+00 0.7060000D+00 0.7060000D+00
EXPONENTS  0.7060000D+00 0.7060000D+00 0.7060000D+00 0.7060000D+00 0.7060000D+00
EXPONENTS  0.7060000D+00 0.7060000D+00 0.3120000D+00 0.3120000D+00 0.3120000D+00
EXPONENTS  0.3120000D+00 0.3120000D+00 0.3120000D+00 0.3120000D+00 0.3120000D+00
EXPONENTS  0.3120000D+00 0.3120000D+00 0.1950000D+05 0.2923000D+04 0.6645000D+03
EXPONENTS  0.1875000D+03 0.6062000D+02 0.2142000D+02 0.7950000D+01 0.6645000D+03
EXPONENTS  0.1875000D+03 0.6062000D+02 0.2142000D+02 0.7950000D+01 0.8815000D+00
EXPONENTS  0.2257000D+01 0.3041000D+00 0.9158000D-01 0.4388000D+02 0.9926000D+01
EXPONENTS  0.2930000D+01 0.4388000D+02 0.9926000D+01 0.2930000D+01 0.4388000D+02
EXPONENTS  0.9926000D+01 0.2930000D+01 0.9132000D+00 0.9132000D+00 0.9132000D+00
EXPONENTS  0.2672000D+00 0.2672000D+00 0.2672000D+00 0.7361000D-01 0.7361000D-01
EXPONENTS  0.7361000D-01 0.3107000D+01 0.3107000D+01 0.3107000D+01 0.3107000D+01
EXPONENTS  0.3107000D+01 0.3107000D+01 0.8550000D+00 0.8550000D+00 0.8550000D+00
EXPONENTS  0.8550000D+00 0.8550000D+00 0.8550000D+00 0.2920000D+00 0.2920000D+00
EXPONENTS  0.2920000D+00 0.2920000D+00 0.2920000D+00 0.2920000D+00 0.1917000D+01
EXPONENTS  0.1917000D+01 0.1917000D+01 0.1917000D+01 0.1917000D+01 0.1917000D+01
EXPONENTS  0.1917000D+01 0.1917000D+01 0.1917000D+01 0.1917000D+01 0.7240000D+00
EXPONENTS  0.7240000D+00 0.7240000D+00 0.7240000D+00 0.7240000D+00 0.7240000D+00
EXPONENTS  0.7240000D+00 0.7240000D+00 0.7240000D+00 0.7240000D+00
MO    1     MO 0.0        OCC NO =    2.0000300  ORB. ENERGY =    0.000000
  0.51195959D-04  0.95439582D-04  0.16130590D-03  0.24247285D-03  0.29783446D-03
  0.25136178D-03  0.94518593D-04 -0.70618356D-07 -0.52782846D-06 -0.19726155D-05
 -0.55032900D-05 -0.73728913D-05  0.87060099D-05  0.16788372D-04 -0.41292679D-04
 -0.55779123D-05  0.19942447D-07  0.18697312D-07  0.13313600D-07  0.10970018D-03
  0.10285089D-03  0.73235961D-04  0.97759765D-05  0.91655994D-05  0.65264528D-05
  0.58063468D-07  0.34430587D-03  0.64725266D-05  0.74840086D-07  0.45352464D-03
 -0.23718909D-07  0.15322759D-08  0.95051997D-05  0.48489821D-07  0.62264630D-04
 -0.59181780D-04 -0.30828503D-05 -0.11767982D-06 -0.10876568D-06 -0.51145608D-03
  0.18749596D-03 -0.19575996D-03  0.82639913D-05 -0.65403209D-07 -0.46229104D-07
  0.98892391D-04  0.42122237D-04 -0.39328931D-04 -0.27933065D-05 -0.28987807D-07
 -0.26328083D-07 -0.64723633D-04  0.20084437D-07  0.91804332D-04 -0.32206336D-05
  0.11188351D-07  0.90196540D-04  0.28678777D-04 -0.71441663D-07 -0.36560954D-03
 -0.19016876D-04 -0.17063182D-06  0.37209789D-08 -0.22725223D-04  0.31754425D-06
 -0.95775546D-08 -0.36778905D-04  0.51936048D-04 -0.15853822D-08  0.10495457D-03
 -0.52888680D-04  0.27661529D-07 -0.40072475D-04 -0.72272359D-04 -0.10656555D-03
  0.37861492D-03  0.11002173D-02 -0.11766616D-04  0.12814060D-07  0.69105207D-04
  0.21292479D-04  0.87915794D-07  0.28632988D-03  0.27499484D-03  0.28899636D-07
  0.17127048D-03  0.23944524D-04 -0.11067525D-03  0.42235090D-04  0.68440160D-04
  0.92707997D-07  0.98749349D-07  0.29623627D-03 -0.44325847D-04 -0.12567673D-04
  0.56893520D-04  0.14687686D-07  0.41955790D-07  0.31305072D-04  0.19765749D-04
  0.35648342D-04  0.52563460D-04 -0.14816579D-03 -0.55208954D-03  0.62126632D-05
 -0.26559645D-04  0.20252992D-04 -0.11168541D-04 -0.80961973D-04  0.12788085D-03
 -0.13533173D-03 -0.39900403D-04  0.96780559D-04 -0.11250662D-04  0.95546266D-05
  0.24153210D-04 -0.33707837D-04  0.73804221D-04 -0.15021153D-03  0.38936045D-04
  0.19539133D-04  0.55801949D-05 -0.25119328D-04  0.24603534D-04  0.13400327D-04
  0.54430750D-04  0.19768272D-04  0.35652893D-04  0.52570171D-04 -0.14818783D-03
 -0.55216467D-03  0.62137273D-05  0.26564103D-04  0.20248194D-04 -0.11178791D-04
  0.80963312D-04  0.12786568D-03 -0.13538115D-03  0.39932784D-04  0.96773530D-04
 -0.11267218D-04  0.95888892D-05  0.24176745D-04 -0.33765634D-04 -0.73789142D-04
  0.15020879D-03  0.38937442D-04  0.19528920D-04  0.55892464D-05 -0.25118166D-04
 -0.24592679D-04 -0.13415042D-04  0.54441776D-04  0.13452687D-03  0.25168541D-03
  0.43485657D-03  0.70495359D-03  0.10705397D-02  0.14879494D-02  0.17690578D-02
  0.15759382D-02  0.78264424D-03  0.12599910D-03  0.13293649D-05  0.63661954D-06
  0.21236562D-04  0.74005167D-04  0.26650459D-03  0.58747620D-03  0.82697689D-03
 -0.39449493D-04 -0.10822429D-02 -0.63992343D-03  0.49357475D-08  0.59783956D-07
  0.12467314D-06  0.35754085D-06  0.18566599D-07 -0.15418896D-05 -0.39839465D-05
  0.32459321D-05 -0.39064510D-04  0.17188129D-04  0.21118908D-05  0.19522792D-02
  0.25716085D-02  0.28368867D-02  0.23562565D-02  0.12512376D-02  0.32282584D-03
  0.11610448D+02  0.15293677D+02  0.16871319D+02  0.14012952D+02  0.74412662D+01
  0.19198856D+01  0.85951651D-01  0.11321843D+00  0.12489765D+00  0.10373728D+00
  0.55087374D-01  0.14212830D-01 -0.77272917D-07  0.74702484D-06  0.10533830D-05
  0.15066164D-05 -0.76292932D-08 -0.13817093D-05 -0.45949941D-03  0.44421446D-02
  0.62638876D-02  0.89590163D-02 -0.45367197D-04 -0.82162629D-02 -0.36456903D-05
  0.35244189D-04  0.49697985D-04  0.71081265D-04 -0.35994552D-06 -0.65188224D-04
  0.12887997D-04  0.76644097D-01  0.57416446D-03 -0.10932927D-06 -0.64488182D-03
 -0.84261706D-05 -0.97856212D-08 -0.58055742D-04 -0.52430386D-06  0.13679339D-04
 -0.53079807D-05 -0.83713586D-05 -0.17834507D-06 -0.17053392D-06 -0.98041469D-03
 -0.52666303D-05  0.21989942D-05  0.30676361D-05  0.64618691D-07  0.61514669D-07
  0.35469729D-03  0.13802101D-05 -0.11267759D-05 -0.25343426D-06 -0.11246256D-07
 -0.10580018D-07 -0.60689802D-04  0.69169184D-08  0.17329202D-05  0.27675428D-07
 -0.66840141D-08  0.39244404D-05  0.35795822D-04 -0.14066741D-07 -0.91232010D-05
 -0.35878848D-04 -0.19789578D-07  0.10297195D-08  0.14804695D-04 -0.20681145D-06
  0.40452140D-08  0.14050957D-04 -0.73235967D-05 -0.71343726D-08 -0.58465041D-04
  0.79440311D-05 -0.22584633D-07 -0.18207862D-04 -0.33939486D-04 -0.57534990D-04
 -0.87115756D-04 -0.10891388D-03 -0.93685470D-04 -0.35930394D-04  0.25516114D-07
  0.33778557D-06  0.12268987D-05  0.36395718D-05  0.41938713D-05 -0.50940814D-05
 -0.80020204D-06  0.10273214D-04  0.11386642D-04 -0.43382953D-07 -0.42427581D-07
 -0.28033696D-07 -0.29332264D-03 -0.28686314D-03 -0.18954260D-03  0.32897392D-04
  0.32172931D-04  0.21258016D-04 -0.24363768D-08 -0.10234797D-04  0.35938168D-05
 -0.82683068D-08 -0.65509338D-04  0.90352738D-05 -0.29979449D-08 -0.19703184D-04
  0.15426254D-05  0.72162659D-04 -0.68991731D-04 -0.31709287D-05 -0.53348304D-07
 -0.48563566D-07 -0.13416526D-03 -0.36244664D-04  0.34840570D-04  0.14040940D-05
  0.32761385D-07  0.29897377D-07  0.10230861D-03  0.18014443D-04 -0.18403380D-04
  0.38893725D-06 -0.20133302D-07 -0.17319301D-07 -0.72823088D-04 -0.43132361D-07
 -0.69841436D-04  0.17222816D-05  0.19306968D-07 -0.66717092D-04 -0.19521251D-03
  0.11009011D-06  0.27624140D-03  0.19004566D-03  0.19778213D-06  0.14053609D-07
  0.24730182D-04 -0.34907966D-06 -0.58932262D-08  0.23809333D-04  0.61823579D-04
 -0.36267602D-07 -0.97999878D-04 -0.60776340D-04 -0.67189632D-07
MO    2     MO 0.0        OCC NO =    2.0000300  ORB. ENERGY =    0.000000
  0.62310742D-08  0.11615978D-07  0.19632585D-07  0.29511436D-07  0.36249514D-07
  0.30593311D-07  0.11503884D-07 -0.11588775D-10 -0.86618913D-10 -0.32371465D-09
 -0.90311348D-09 -0.12099231D-08  0.14286935D-08  0.24859853D-08 -0.11116352D-07
 -0.30069201D-08 -0.11259927D-03 -0.10556897D-03 -0.75171399D-04  0.18922502D-07
  0.17741048D-07  0.12632683D-07  0.23740173D-07  0.22257921D-07  0.15848966D-07
 -0.38185335D-03  0.63891356D-07  0.66123003D-07 -0.47369097D-03  0.79797301D-07
  0.87439603D-07 -0.91559171D-05  0.15886830D-08  0.16675594D-08  0.75529396D-07
  0.13925980D-07 -0.89455377D-07 -0.13594822D-03  0.50791839D-03 -0.60321185D-07
 -0.60040266D-07  0.41086858D-07  0.18953408D-07 -0.39248762D-03 -0.96498788D-04
  0.84956905D-07  0.35198835D-08  0.93375408D-08 -0.12857424D-07 -0.82885900D-04
  0.67659126D-04  0.30506874D-08 -0.95509328D-04  0.15758153D-07 -0.67922543D-07
 -0.89801920D-04  0.77128457D-08  0.17985034D-06  0.37632990D-03 -0.54987306D-07
  0.23917294D-07 -0.51997523D-04  0.26629275D-04 -0.43724096D-08  0.20061682D-07
  0.29645724D-04 -0.23128498D-07 -0.64313028D-07 -0.10953355D-03  0.36245727D-07
  0.41279832D-08 -0.96681066D-04 -0.18564451D-08 -0.33481752D-08 -0.49368824D-08
  0.23033986D-07  0.45764547D-07 -0.22718976D-09 -0.43841551D-05  0.45303468D-08
  0.19863568D-08 -0.85930937D-04  0.25171592D-07  0.26008159D-07 -0.75737108D-04
  0.16621599D-07  0.14071360D-07 -0.16651106D-08  0.69794973D-08 -0.53143867D-08
 -0.33931665D-04  0.47504593D-04  0.10503594D-07 -0.16392391D-07  0.29224133D-08
  0.13469978D-07 -0.29533447D-04 -0.59485517D-04  0.14450014D-07  0.34895395D-04
  0.62935283D-04  0.92798038D-04 -0.33215115D-03 -0.99461911D-03  0.10637603D-04
 -0.57394910D-04  0.31165470D-04 -0.23203982D-04 -0.24430374D-03  0.91059636D-04
 -0.23198681D-03 -0.15168400D-03  0.41231601D-04 -0.18188264D-04 -0.11558608D-04
  0.69964384D-04 -0.58405775D-04  0.10938323D-03 -0.21281825D-03  0.14762200D-03
  0.10839500D-04  0.37941674D-04 -0.48781174D-04  0.16576346D-04 -0.38828130D-04
 -0.13412321D-04 -0.34893946D-04 -0.62932668D-04 -0.92794182D-04  0.33214925D-03
  0.99457413D-03 -0.10636995D-04 -0.57392843D-04 -0.31149409D-04  0.23222435D-04
 -0.24423934D-03 -0.90987232D-04  0.23206655D-03 -0.15168496D-03 -0.41185167D-04
  0.18242094D-04  0.11511421D-04 -0.69990687D-04  0.58479266D-04  0.10928344D-03
 -0.21281217D-03 -0.14760291D-03 -0.10847860D-04 -0.37945960D-04  0.48793820D-04
  0.16565235D-04 -0.38784334D-04  0.13420469D-04  0.59404778D-07  0.11114000D-06
  0.19202527D-06  0.31129553D-06  0.47273213D-06  0.65705318D-06  0.78118589D-06
  0.69590753D-06  0.34560240D-06  0.55639062D-07  0.58702497D-09  0.27923229D-09
  0.93147218D-08  0.32459941D-07  0.11689350D-06  0.25767718D-06  0.36272630D-06
 -0.17303227D-07 -0.47469036D-06 -0.28068144D-06  0.47173842D-11  0.57139042D-10
  0.11915745D-09  0.34172282D-09  0.17745190D-10 -0.14736745D-08 -0.38076919D-08
  0.31023282D-08 -0.16841867D-07  0.26314523D-08  0.66039164D-09 -0.11610710D+02
 -0.15294022D+02 -0.16871700D+02 -0.14013268D+02 -0.74414340D+01 -0.19199289D+01
  0.19369513D-02  0.25514180D-02  0.28146134D-02  0.23377568D-02  0.12414137D-02
  0.32029123D-03  0.20756774D-02  0.27341527D-02  0.30161984D-02  0.25051890D-02
  0.13303249D-02  0.34323077D-03  0.45954399D-03 -0.44425756D-02 -0.62644954D-02
 -0.89598856D-02  0.45371599D-04  0.82170601D-02 -0.76698097D-07  0.74146785D-06
  0.10455471D-05  0.14954089D-05 -0.75725401D-08 -0.13714310D-05 -0.82115159D-07
  0.79383652D-06  0.11193924D-05  0.16010272D-05 -0.81073763D-08 -0.14682929D-05
 -0.76659375D-01  0.12789466D-04  0.13704495D-04  0.64207646D-03 -0.10688630D-06
 -0.11489571D-06  0.57855867D-04 -0.96453701D-08 -0.10405501D-07  0.17174490D-06
  0.38692134D-08 -0.17561411D-06 -0.30641483D-04  0.98157666D-03 -0.15918136D-06
 -0.62516360D-07 -0.10665740D-08  0.63582934D-07  0.99491286D-05 -0.35794557D-03
  0.58581123D-07  0.10683802D-07  0.37437548D-09 -0.11058177D-07 -0.25386001D-05
  0.61515554D-04 -0.99296647D-08 -0.24082730D-05  0.39799517D-09 -0.16434423D-08
 -0.26047820D-05 -0.11506073D-07 -0.28285927D-08  0.98296009D-05  0.10312088D-07
  0.77589195D-08 -0.68186360D-04 -0.14743256D-04  0.25084382D-08 -0.10422311D-07
 -0.14666982D-04  0.47905125D-08  0.30194284D-07  0.58896752D-04 -0.12315827D-07
  0.10726480D-08  0.13261876D-04 -0.80447835D-08 -0.14995490D-07 -0.25420697D-07
 -0.38490373D-07 -0.48121443D-07 -0.41393071D-07 -0.15875133D-07  0.15877073D-10
  0.21018272D-09  0.76342188D-09  0.22646766D-08  0.26095824D-08 -0.31697265D-08
 -0.28092077D-09  0.55859568D-08  0.56923830D-08  0.28860998D-03  0.28225426D-03
  0.18649732D-03 -0.48153888D-07 -0.47093451D-07 -0.31116634D-07 -0.41757624D-07
 -0.40838044D-07 -0.26983422D-07  0.69650827D-05  0.23943190D-09 -0.23362383D-08
  0.67967661D-04 -0.12464855D-07 -0.59337610D-08  0.19389560D-04 -0.32638988D-08
 -0.26681154D-08  0.82432674D-08  0.16576097D-07 -0.24819365D-07 -0.14216943D-03
  0.13010399D-03  0.28020941D-08 -0.10186229D-07 -0.82133216D-08  0.18399551D-07
  0.71017875D-04 -0.10116110D-03  0.48925285D-08  0.86128372D-08  0.35365282D-08
 -0.12149365D-07 -0.35483810D-04  0.75276142D-04 -0.73732024D-08  0.73790840D-04
 -0.13916351D-07  0.50404325D-07  0.74250147D-04  0.51560697D-07 -0.98006142D-07
 -0.29562267D-03 -0.98116435D-08 -0.53206834D-07  0.36719653D-03 -0.26236704D-04
  0.49513067D-08 -0.17654016D-07 -0.26390025D-04 -0.15802933D-07  0.35992696D-07
  0.10510014D-03  0.94901256D-09  0.16969352D-07 -0.11624323D-03
MO    3     MO 0.0        OCC NO =    2.0000210  ORB. ENERGY =    0.000000
 -0.14457267D-01 -0.26951259D-01 -0.45551300D-01 -0.68472099D-01 -0.84105710D-01
 -0.70982252D-01 -0.26691180D-01 -0.38132343D-05 -0.28501564D-04 -0.10651685D-03
 -0.29716543D-03 -0.39811975D-03  0.47010519D-03 -0.87260308D-03 -0.19331561D-02
 -0.81885235D-04  0.20833789D-06  0.19533001D-06  0.13908661D-06  0.43921703D-05
  0.41179389D-05  0.29322178D-05  0.11669793D-02  0.10941172D-02  0.77907666D-03
  0.10493369D-06 -0.20655648D-04  0.60712793D-03 -0.66680031D-07  0.75965338D-06
 -0.37910198D-03  0.82386238D-09 -0.12037550D-06  0.46731197D-05 -0.11011363D-03
 -0.10101876D-03  0.21113239D-03  0.20935036D-08  0.11485675D-06 -0.84531344D-06
 -0.29216018D-04 -0.18662845D-04  0.47878863D-04  0.46910198D-08  0.26954025D-07
  0.71175630D-05  0.11763142D-04  0.11055036D-04 -0.22818177D-04  0.63817629D-10
 -0.12217951D-07  0.99337975D-06 -0.15445740D-07  0.35889538D-04  0.77223965D-05
  0.39084074D-07 -0.10900169D-03 -0.92872436D-05  0.72531466D-08  0.13330717D-05
 -0.13879946D-04  0.37471243D-07  0.30849024D-08  0.51639183D-04 -0.85651717D-04
  0.81788163D-07 -0.15535690D-03  0.12941299D-03 -0.91042870D-07  0.43934758D-06
  0.12754216D-03  0.54506241D-07 -0.61856308D-05 -0.11156040D-04 -0.16449574D-04
  0.73313520D-03  0.22888921D-03  0.46404810D-05  0.16501803D-07  0.92284274D-04
  0.26441892D-04  0.23802560D-07  0.19297562D-03 -0.12030797D-05  0.12383096D-07
  0.42258080D-04  0.39347969D-04 -0.73394730D-04  0.52900804D-04  0.20493927D-04
  0.45124632D-07  0.43074065D-07  0.75522048D-04 -0.88990721D-05 -0.12928949D-04
  0.21828021D-04 -0.69817434D-08  0.65243538D-08 -0.33885817D-04 -0.41368530D-05
 -0.74609848D-05 -0.11001218D-04  0.76146034D-03  0.23926528D-03  0.52665278D-05
  0.84625030D-04 -0.48306612D-04  0.29454133D-04  0.17792519D-03 -0.96258661D-04
 -0.58424711D-05  0.39451356D-04 -0.21432759D-04  0.38446459D-04  0.24418765D-04
 -0.43771209D-04  0.19352444D-04 -0.10933239D-03  0.66749055D-04 -0.36655461D-04
 -0.11165151D-04 -0.10370584D-04  0.21535735D-04  0.13581701D-05 -0.30237628D-04
  0.17430006D-04 -0.41369826D-05 -0.74612184D-05 -0.11001562D-04  0.76145969D-03
  0.23926258D-03  0.52664315D-05 -0.84626434D-04 -0.48284895D-04  0.29484228D-04
 -0.17795145D-03 -0.96212532D-04 -0.57771065D-05 -0.39442687D-04 -0.21422473D-04
  0.38460734D-04  0.24423077D-04 -0.43798896D-04  0.19375819D-04  0.10928390D-03
 -0.66763066D-04 -0.36678024D-04 -0.11154845D-04 -0.10370187D-04  0.21525032D-04
 -0.13517003D-05  0.30264883D-04  0.17422656D-04 -0.15460762D+00 -0.28925435D+00
 -0.49976736D+00 -0.81018161D+00 -0.12303385D+01 -0.17100548D+01 -0.20331241D+01
 -0.18111776D+01 -0.89946910D+00 -0.14480692D+00 -0.15277985D-02 -0.72286559D-03
 -0.24113586D-01 -0.84031020D-01 -0.30260931D+00 -0.66706456D+00 -0.93901161D+00
  0.44793914D-01  0.12288598D+01  0.72661708D+00 -0.15531883D-04 -0.18812903D-03
 -0.39232326D-03 -0.11251148D-02 -0.58425645D-04  0.48520407D-02  0.12536741D-01
 -0.10214347D-01  0.46601557D-01 -0.38465245D-03 -0.13208177D-03  0.10526726D-02
  0.13866161D-02  0.15296546D-02  0.12704979D-02  0.67466967D-03  0.17406830D-03
 -0.36471362D-01 -0.48041316D-01 -0.52997092D-01 -0.44018234D-01 -0.23374904D-01
 -0.60308474D-02  0.59407313D+01  0.78253328D+01  0.86325670D+01  0.71700228D+01
  0.38074811D+01  0.98235002D+00 -0.37350931D-07  0.36108477D-06  0.50916721D-06
  0.72824381D-06 -0.36877241D-08 -0.66786826D-06  0.11807063D-05 -0.11414309D-04
 -0.16095367D-04 -0.23020632D-04  0.11657324D-06  0.21112091D-04 -0.21076808D-03
  0.20375701D-02  0.28731866D-02  0.41094169D-02 -0.20809509D-04 -0.37687229D-02
  0.73806983D-05 -0.25450658D-03  0.41649336D-01 -0.85869251D-07  0.26713272D-05
 -0.48379204D-03 -0.17297844D-08  0.13979707D-06 -0.98333549D-05 -0.62447584D-05
 -0.80644493D-05  0.14309208D-04 -0.13374624D-08  0.69901113D-08 -0.39143740D-05
 -0.11169636D-03 -0.11110186D-03  0.22279821D-03 -0.20161898D-09  0.11896610D-06
 -0.22723056D-05 -0.14348392D-04 -0.14292307D-04  0.28640700D-04 -0.11895933D-09
  0.15324814D-07 -0.85214067D-06  0.11262657D-08 -0.68364206D-05  0.54476806D-05
 -0.96272741D-08  0.21992983D-04 -0.88873128D-05  0.62484771D-08 -0.14837211D-05
 -0.74557289D-05 -0.76270323D-08  0.83199104D-08  0.17005923D-05 -0.33741869D-04
  0.11300866D-07 -0.65044583D-05  0.51040663D-04 -0.36260597D-07  0.14026815D-05
  0.50184943D-04  0.24251959D-08 -0.87904551D-03 -0.16385423D-02 -0.27776943D-02
 -0.42058048D-02 -0.52581824D-02 -0.45229798D-02 -0.17346601D-02 -0.68400364D-06
 -0.90549275D-05 -0.32889144D-04 -0.97565027D-04 -0.11242399D-03  0.13655568D-03
 -0.95925199D-04 -0.15941630D-03  0.12338913D-04  0.66787064D-06  0.65316290D-06
  0.43157234D-06  0.23857376D-04  0.23331992D-04  0.15416434D-04  0.39016028D-02
  0.38156823D-02  0.25211826D-02  0.14972371D-06  0.62590856D-05  0.87909812D-03
  0.41183257D-08 -0.72986106D-06  0.21426992D-04  0.15445988D-08  0.21291030D-06
  0.93273045D-05 -0.36497836D-04 -0.34752164D-04  0.71250000D-04  0.19993911D-08
  0.36924974D-07  0.31574000D-05  0.21523985D-04  0.20656416D-04 -0.42180401D-04
 -0.84181616D-09 -0.22045269D-07 -0.10119905D-05  0.17929799D-04  0.18264612D-04
 -0.36194411D-04 -0.94185076D-10 -0.17992433D-07 -0.16074690D-05 -0.95849852D-08
 -0.56569142D-05  0.46276614D-04 -0.14577312D-07  0.61133998D-05 -0.67935127D-04
  0.43332268D-07  0.10857343D-04 -0.70894715D-04  0.23954091D-08  0.57476792D-08
  0.19521837D-05 -0.25336340D-04  0.72958593D-08 -0.17587059D-05  0.37616944D-04
 -0.24538897D-07 -0.40978451D-05  0.38392075D-04 -0.11083090D-08
MO    4     MO 0.0        OCC NO =    2.0000123  ORB. ENERGY =    0.000000
  0.26837225D-01  0.50029994D-01  0.84557505D-01  0.12710570D+00  0.15612659D+00
  0.13176533D+00  0.49547206D-01 -0.14525084D-05 -0.10856600D-04 -0.40573594D-04
 -0.11319401D-03 -0.15164876D-03  0.17906891D-03  0.26465069D-02 -0.36095511D-02
 -0.42154453D-04  0.64788174D-06  0.60743031D-06  0.43252657D-06 -0.85672739D-05
 -0.80323638D-05 -0.57195216D-05  0.36697013D-02  0.34405782D-02  0.24498967D-02
  0.22855452D-06 -0.44073910D-04  0.13054978D-02 -0.74150200D-07 -0.60997794D-05
 -0.41699322D-03  0.68531507D-09 -0.16046672D-06  0.37070511D-05 -0.32371234D-03
 -0.31478406D-03  0.63849640D-03  0.81778150D-09  0.34111012D-06 -0.65674398D-05
 -0.38988225D-05  0.23542994D-04 -0.19644172D-04  0.12751470D-07 -0.46280714D-08
  0.16811020D-04 -0.18801486D-04 -0.16963762D-04  0.35765248D-04  0.89420296D-09
  0.18932144D-07  0.11882778D-05  0.11058892D-07 -0.42915524D-04  0.22567122D-04
 -0.55015546D-07  0.12631790D-03 -0.29760794D-04  0.21838869D-07  0.24286715D-05
 -0.37940573D-04 -0.46134252D-07  0.12902756D-07  0.81381883D-04 -0.16375026D-03
  0.13663299D-06 -0.24607527D-03  0.24930134D-03 -0.17534126D-06  0.19296253D-05
  0.24194945D-03  0.85474861D-07 -0.89828280D-04 -0.16200900D-03 -0.23888218D-03
  0.97668235D-03  0.65132259D-03  0.37457706D-05 -0.28464733D-08 -0.65760911D-04
  0.29168213D-04  0.30321948D-07  0.28743495D-03 -0.32673309D-04  0.27005876D-07
  0.10648598D-03  0.75582180D-04 -0.13816621D-03  0.14368914D-04  0.12379729D-03
  0.64157387D-07  0.11072670D-06  0.14259691D-03 -0.13769098D-04 -0.22544880D-04
  0.36313979D-04 -0.12945910D-07  0.99867386D-08 -0.61333989D-04 -0.90571989D-04
 -0.16335031D-03 -0.24085994D-03  0.10450200D-02  0.70062597D-03  0.45229368D-05
 -0.47356369D-04  0.25727121D-04  0.35727475D-04  0.27343871D-03 -0.15221041D-03
 -0.48764191D-04  0.97808134D-04 -0.57023220D-04  0.76001125D-04 -0.13639628D-04
 -0.10177105D-03  0.11541068D-03 -0.14928787D-03  0.12434947D-03 -0.69393485D-04
 -0.19534289D-04 -0.15919700D-04  0.35453989D-04  0.36811696D-05 -0.54675923D-04
  0.32414261D-04 -0.90572141D-04 -0.16335059D-03 -0.24086034D-03  0.10450132D-02
  0.70062340D-03  0.45225910D-05  0.47376973D-04  0.25715479D-04  0.35709600D-04
 -0.27349235D-03 -0.15213888D-03 -0.48665047D-04 -0.97795324D-04 -0.56998177D-04
  0.76035991D-04 -0.13645418D-04 -0.10180794D-03  0.11545335D-03  0.14921700D-03
 -0.12427606D-03 -0.69414671D-04 -0.19516138D-04 -0.15918836D-04  0.35434974D-04
 -0.36679045D-05  0.54723616D-04  0.32401870D-04  0.91304491D-01  0.17082096D+00
  0.29514073D+00  0.47845780D+00  0.72658408D+00  0.10098835D+01  0.12006741D+01
  0.10696022D+01  0.53118708D+00  0.85516626D-01  0.90225092D-03  0.42748608D-03
  0.14260220D-01  0.49694011D-01  0.17895618D+00  0.39448663D+00  0.55530985D+00
 -0.26490090D-01 -0.72671938D+00 -0.42970462D+00  0.62771876D-05  0.76032071D-04
  0.15855687D-03  0.45471349D-03  0.23612639D-04 -0.19609451D-02 -0.50667056D-02
  0.41281132D-02 -0.28542343D-01  0.14179624D-02 -0.18184258D-03  0.17614193D-02
  0.23202013D-02  0.25595452D-02  0.21259027D-02  0.11289133D-02  0.29126554D-03
 -0.77987807D-01 -0.10272819D+00 -0.11332527D+00 -0.94125509D-01 -0.49983257D-01
 -0.12895942D-01  0.99146565D+01  0.13059922D+02  0.14407138D+02  0.11966256D+02
  0.63544142D+01  0.16394721D+01 -0.59860194D-07  0.57868984D-06  0.81601308D-06
  0.11671146D-05 -0.59101039D-08 -0.10703541D-05  0.23830249D-05 -0.23037551D-04
 -0.32485352D-04 -0.46462647D-04  0.23528030D-06  0.42610629D-04 -0.33686239D-03
  0.32565689D-02  0.45921021D-02  0.65679207D-02 -0.33259026D-04 -0.60234028D-02
  0.12890736D-04 -0.56337576D-03  0.72557793D-01 -0.54002428D-07  0.19907420D-05
 -0.30631299D-03 -0.66992096D-09  0.17799586D-06 -0.39505388D-05  0.45542155D-03
  0.45350339D-03 -0.90892494D-03  0.18872281D-08 -0.48534970D-06  0.14076405D-04
 -0.31017593D-03 -0.30918556D-03  0.61936149D-03 -0.12517273D-08  0.33049378D-06
 -0.86880161D-05  0.43428598D-05  0.43223440D-05 -0.86652038D-05 -0.47084121D-10
 -0.48126127D-08 -0.25762734D-06  0.17882422D-07 -0.14236714D-04 -0.46952385D-04
 -0.39494409D-08  0.43850891D-04  0.69445178D-04 -0.49697826D-07 -0.11407506D-05
  0.71411978D-04 -0.15348482D-07  0.15227492D-07  0.35924593D-05 -0.62598278D-04
  0.21333152D-07 -0.13100997D-04  0.94654399D-04 -0.67015627D-07  0.23236185D-05
  0.93140437D-04  0.50015136D-08 -0.63574647D-02 -0.11850325D-01 -0.20088941D-01