 Entering Gaussian System, Link 0=/home/bruns/programas/chemistry/gaussian/g09/g09
 Input=GAUSSIAN.com
 Output=GAUSSIAN.log
 Initial command:
 /home/bruns/programas/chemistry/gaussian/g09/l1.exe /home/bruns/programas/chemistry/gaussian/work/Gau-6373.inp -scrdir=/home/bruns/programas/chemistry/gaussian/work/
 Entering Link 1 = /home/bruns/programas/chemistry/gaussian/g09/l1.exe PID=      6375.
  
 Copyright (c) 1988,1990,1992,1993,1995,1998,2003,2009,2010,
            Gaussian, Inc.  All Rights Reserved.
  
 This is part of the Gaussian(R) 09 program.  It is based on
 the Gaussian(R) 03 system (copyright 2003, Gaussian, Inc.),
 the Gaussian(R) 98 system (copyright 1998, Gaussian, Inc.),
 the Gaussian(R) 94 system (copyright 1995, Gaussian, Inc.),
 the Gaussian 92(TM) system (copyright 1992, Gaussian, Inc.),
 the Gaussian 90(TM) system (copyright 1990, Gaussian, Inc.),
 the Gaussian 88(TM) system (copyright 1988, Gaussian, Inc.),
 the Gaussian 86(TM) system (copyright 1986, Carnegie Mellon
 University), and the Gaussian 82(TM) system (copyright 1983,
 Carnegie Mellon University). Gaussian is a federally registered
 trademark of Gaussian, Inc.
  
 This software contains proprietary and confidential information,
 including trade secrets, belonging to Gaussian, Inc.
  
 This software is provided under written license and may be
 used, copied, transmitted, or stored only in accord with that
 written license.
  
 The following legend is applicable only to US Government
 contracts under FAR:
  
                    RESTRICTED RIGHTS LEGEND
  
 Use, reproduction and disclosure by the US Government is
 subject to restrictions as set forth in subparagraphs (a)
 and (c) of the Commercial Computer Software - Restricted
 Rights clause in FAR 52.227-19.
  
 Gaussian, Inc.
 340 Quinnipiac St., Bldg. 40, Wallingford CT 06492
  
  
 ---------------------------------------------------------------
 Warning -- This program may not be used in any manner that
 competes with the business of Gaussian, Inc. or will provide
 assistance to any competitor of Gaussian, Inc.  The licensee
 of this program is prohibited from giving any competitor of
 Gaussian, Inc. access to this program.  By using this program,
 the user acknowledges that Gaussian, Inc. is engaged in the
 business of creating and licensing software in the field of
 computational chemistry and represents and warrants to the
 licensee that it is not a competitor of Gaussian, Inc. and that
 it will not use this program in any manner prohibited above.
 ---------------------------------------------------------------
  

 Cite this work as:
 Gaussian 09, Revision B.01,
 M. J. Frisch, G. W. Trucks, H. B. Schlegel, G. E. Scuseria, 
 M. A. Robb, J. R. Cheeseman, G. Scalmani, V. Barone, B. Mennucci, 
 G. A. Petersson, H. Nakatsuji, M. Caricato, X. Li, H. P. Hratchian, 
 A. F. Izmaylov, J. Bloino, G. Zheng, J. L. Sonnenberg, M. Hada, 
 M. Ehara, K. Toyota, R. Fukuda, J. Hasegawa, M. Ishida, T. Nakajima, 
 Y. Honda, O. Kitao, H. Nakai, T. Vreven, J. A. Montgomery, Jr., 
 J. E. Peralta, F. Ogliaro, M. Bearpark, J. J. Heyd, E. Brothers, 
 K. N. Kudin, V. N. Staroverov, T. Keith, R. Kobayashi, J. Normand, 
 K. Raghavachari, A. Rendell, J. C. Burant, S. S. Iyengar, J. Tomasi, 
 M. Cossi, N. Rega, J. M. Millam, M. Klene, J. E. Knox, J. B. Cross, 
 V. Bakken, C. Adamo, J. Jaramillo, R. Gomperts, R. E. Stratmann, 
 O. Yazyev, A. J. Austin, R. Cammi, C. Pomelli, J. W. Ochterski, 
 R. L. Martin, K. Morokuma, V. G. Zakrzewski, G. A. Voth, 
 P. Salvador, J. J. Dannenberg, S. Dapprich, A. D. Daniels, 
 O. Farkas, J. B. Foresman, J. V. Ortiz, J. Cioslowski, 
 and D. J. Fox, Gaussian, Inc., Wallingford CT, 2010.
 
 ******************************************
 Gaussian 09:  EM64L-G09RevB.01 12-Aug-2010
                24-Aug-2020 
 ******************************************
 %nproc=8
 Will use up to    8 processors via shared memory.
 %mem=8GB
 -----------------------------------------------------
 # QCISD aug-cc-pvtz nosymm density=current output=wfn
 -----------------------------------------------------
 1/30=1,38=1/1;
 2/12=2,15=1,17=6,18=5,40=1/2;
 3/5=16,6=1,7=10,11=9,16=1,25=1,30=1,71=1/1,2,3;
 4//1;
 5/5=2,38=5/2;
 8/6=4,9=120000,10=1/1,4;
 9/5=8,15=1/13;
 11/28=-7,31=1,32=3,42=3/11;
 10/5=6,13=10,31=1/2;
 6/7=2,8=2,9=2,10=2,22=-1,31=1/1;
 99/5=1,6=1100,9=1/99;
 ----------------------
 clch3f_ts-wavefunction
 ----------------------
 Symbolic Z-matrix:
 Charge = -1 Multiplicity = 1
 C                     0.00018   0.00003  -0.49771 
 H                     0.00002  -1.05257  -0.62073 
 H                    -0.91131   0.52637  -0.62125 
 H                     0.91175   0.52613  -0.62157 
 Cl                    0.00056   0.00096   1.64472 
 F                    -0.00019  -0.01092  -2.59347 
 
                          Input orientation:                          
 ---------------------------------------------------------------------
 Center     Atomic      Atomic             Coordinates (Angstroms)
 Number     Number       Type             X           Y           Z
 ---------------------------------------------------------------------
      1          6           0        0.000175    0.000029   -0.497709
      2          1           0        0.000019   -1.052570   -0.620726
      3          1           0       -0.911312    0.526365   -0.621245
      4          1           0        0.911750    0.526132   -0.621570
      5         17           0        0.000555    0.000962    1.644718
      6          9           0       -0.000186   -0.010921   -2.593468
 ---------------------------------------------------------------------
                    Distance matrix (angstroms):
                    1          2          3          4          5
     1  C    0.000000
     2  H    1.059763   0.000000
     3  H    1.059764   1.823063   0.000000
     4  H    1.059762   1.823062   1.823062   0.000000
     5  Cl   2.142427   2.498433   2.498427   2.498428   0.000000
     6  F    2.095788   2.230862   2.237966   2.237953   4.238203
                    6
     6  F    0.000000
 Symmetry turned off by external request.
 This structure is nearly, but not quite of a higher symmetry.
 Consider Symm=Loose if the higher symmetry is desired.
 Stoichiometry    CH3ClF(1-)
 Framework group  C1[X(CH3ClF)]
 Deg. of freedom    12
 Full point group                 C1      NOp   1
 Rotational constants (GHZ):    150.8658071      2.2147075      2.2147046
 Standard basis: Aug-CC-pVTZ (5D, 7F)
 Integral buffers will be    131072 words long.
 Raffenetti 1 integral format.
 Two-electron integral symmetry is turned off.
   211 basis functions,   339 primitive gaussians,   244 cartesian basis functions
    18 alpha electrons       18 beta electrons
       nuclear repulsion energy        84.9839682459 Hartrees.
 NAtoms=    6 NActive=    6 NUniq=    6 SFac= 1.00D+00 NAtFMM=   50 NAOKFM=F Big=F
 One-electron integrals computed using PRISM.
 NBasis=   211 RedAO= T  NBF=   211
 NBsUse=   211 1.00D-06 NBFU=   211
 Harris functional with IExCor=  205 diagonalized for initial guess.
 ExpMin= 2.53D-02 ExpMax= 4.56D+05 ExpMxC= 1.44D+03 IAcc=3 IRadAn=         0 AccDes= 0.00D+00
 HarFok:  IExCor=  205 AccDes= 0.00D+00 IRadAn=         0 IDoV= 1
 ScaDFX=  1.000000  1.000000  1.000000  1.000000
 FoFCou: FMM=F IPFlag=           0 FMFlag=      100000 FMFlg1=           0
         NFxFlg=           0 DoJE=T BraDBF=F KetDBF=T FulRan=T
         Omega=  0.000000  0.000000  1.000000  0.000000  0.000000 ICntrl=     500 IOpCl=  0
         NMat0=    1 NMatS0=    1 NMatT0=    0 NMatD0=    1 NMtDS0=    0 NMtDT0=    0
         I1Cent=           4 NGrid=           0.
 Symmetry not used in FoFCou.
 Requested convergence on RMS density matrix=1.00D-08 within 128 cycles.
 Requested convergence on MAX density matrix=1.00D-06.
 Requested convergence on             energy=1.00D-06.
 No special actions if energy rises.
 Keep R1 ints in memory in canonical form, NReq=454274131.
 SCF Done:  E(RHF) =  -598.617122995     A.U. after   12 cycles
             Convg  =    0.9411D-08             -V/T =  2.0001
 ExpMin= 2.53D-02 ExpMax= 4.56D+05 ExpMxC= 1.44D+03 IAcc=3 IRadAn=         5 AccDes= 0.00D+00
 HarFok:  IExCor=  205 AccDes= 0.00D+00 IRadAn=         5 IDoV=-2
 ScaDFX=  1.000000  1.000000  1.000000  1.000000
 Range of M.O.s used for correlation:     8   211
 NBasis=   211 NAE=    18 NBE=    18 NFC=     7 NFV=     0
 NROrb=    204 NOA=    11 NOB=    11 NVA=   193 NVB=   193

 **** Warning!!: The largest alpha MO coefficient is  0.35242202D+02

 Semi-Direct transformation.
 ModeAB=           2 MOrb=            11 LenV=    1072528250
 LASXX=     44979418 LTotXX=    44979418 LenRXX=    44979418
 LTotAB=    45631872 MaxLAS=    67073160 LenRXY=    67073160
 NonZer=    89958836 LenScr=   135708672 LnRSAI=           0
 LnScr1=           0 LExtra=           0 Total=    247761250
 MaxDsk=          -1 SrtSym=           F ITran=            4
 JobTyp=0 Pass  1:  I=   1 to  11.
 (rs|ai) integrals will be sorted in core.
 Spin components of T(2) and E(2):
     alpha-alpha T2 =       0.2567354509D-01 E2=     -0.8208207790D-01
     alpha-beta  T2 =       0.1452558570D+00 E2=     -0.5099784303D+00
     beta-beta   T2 =       0.2567354509D-01 E2=     -0.8208207790D-01
 ANorm=    0.1093893481D+01
 E2 =    -0.6741425861D+00 EUMP2 =    -0.59929126558073D+03
 R2 and R3 integrals will be kept in memory, NReq=   900794930.
 Iterations=  50 Convergence= 0.100D-07
 Iteration Nr.   1
 **********************
 DD1Dir will call FoFMem   1 times, MxPair=       132
 NAB=    66 NAA=     0 NBB=     0.
 MP4(R+Q)=  0.14438850D-01
 E3=       -0.18701029D-01        EUMP3=      -0.59930996661D+03
 E4(DQ)=   -0.45156597D-03        UMP4(DQ)=   -0.59931041818D+03
 E4(SDQ)=  -0.98177452D-02        UMP4(SDQ)=  -0.59931978436D+03
 DE(Corr)= -0.67840476     E(Corr)=     -599.29552776    
 NORM(A)=   0.10996849D+01
 Iteration Nr.   2
 **********************
 DD1Dir will call FoFMem   1 times, MxPair=       132
 NAB=    66 NAA=     0 NBB=     0.
 DE(Corr)= -0.70060455     E(CORR)=     -599.31772755     Delta=-2.22D-02
 NORM(A)=   0.11070392D+01
 Iteration Nr.   3
 **********************
 DD1Dir will call FoFMem   1 times, MxPair=       132
 NAB=    66 NAA=     0 NBB=     0.
 DE(Corr)= -0.69820762     E(CORR)=     -599.31533062     Delta= 2.40D-03
 NORM(A)=   0.11110243D+01
 Iteration Nr.   4
 **********************
 DD1Dir will call FoFMem   1 times, MxPair=       132
 NAB=    66 NAA=     0 NBB=     0.
 DE(Corr)= -0.70126671     E(CORR)=     -599.31838970     Delta=-3.06D-03
 NORM(A)=   0.11131281D+01
 Iteration Nr.   5
 **********************
 DD1Dir will call FoFMem   1 times, MxPair=       132
 NAB=    66 NAA=     0 NBB=     0.
 DE(Corr)= -0.70186169     E(CORR)=     -599.31898468     Delta=-5.95D-04
 NORM(A)=   0.11141592D+01
 Iteration Nr.   6
 **********************
 DD1Dir will call FoFMem   1 times, MxPair=       132
 NAB=    66 NAA=     0 NBB=     0.
 DE(Corr)= -0.70200848     E(CORR)=     -599.31913147     Delta=-1.47D-04
 NORM(A)=   0.11144851D+01
 Iteration Nr.   7
 **********************
 DD1Dir will call FoFMem   1 times, MxPair=       132
 NAB=    66 NAA=     0 NBB=     0.
 DE(Corr)= -0.70203820     E(CORR)=     -599.31916120     Delta=-2.97D-05
 NORM(A)=   0.11145161D+01
 Iteration Nr.   8
 **********************
 DD1Dir will call FoFMem   1 times, MxPair=       132
 NAB=    66 NAA=     0 NBB=     0.
 DE(Corr)= -0.70205208     E(CORR)=     -599.31917508     Delta=-1.39D-05
 NORM(A)=   0.11145340D+01
 Iteration Nr.   9
 **********************
 DD1Dir will call FoFMem   1 times, MxPair=       132
 NAB=    66 NAA=     0 NBB=     0.
 DE(Corr)= -0.70202886     E(CORR)=     -599.31915186     Delta= 2.32D-05
 NORM(A)=   0.11145371D+01
 Iteration Nr.  10
 **********************
 DD1Dir will call FoFMem   1 times, MxPair=       132
 NAB=    66 NAA=     0 NBB=     0.
 DE(Corr)= -0.70204816     E(CORR)=     -599.31917116     Delta=-1.93D-05
 NORM(A)=   0.11145374D+01
 Iteration Nr.  11
 **********************
 DD1Dir will call FoFMem   1 times, MxPair=       132
 NAB=    66 NAA=     0 NBB=     0.
 DE(Corr)= -0.70203897     E(CORR)=     -599.31916197     Delta= 9.19D-06
 NORM(A)=   0.11145402D+01
 Iteration Nr.  12
 **********************
 DD1Dir will call FoFMem   1 times, MxPair=       132
 NAB=    66 NAA=     0 NBB=     0.
 DE(Corr)= -0.70204272     E(CORR)=     -599.31916572     Delta=-3.75D-06
 NORM(A)=   0.11145407D+01
 Iteration Nr.  13
 **********************
 DD1Dir will call FoFMem   1 times, MxPair=       132
 NAB=    66 NAA=     0 NBB=     0.
 DE(Corr)= -0.70204329     E(CORR)=     -599.31916629     Delta=-5.66D-07
 NORM(A)=   0.11145414D+01
 Iteration Nr.  14
 **********************
 DD1Dir will call FoFMem   1 times, MxPair=       132
 NAB=    66 NAA=     0 NBB=     0.
 DE(Corr)= -0.70204352     E(CORR)=     -599.31916651     Delta=-2.24D-07
 NORM(A)=   0.11145415D+01
 Iteration Nr.  15
 **********************
 DD1Dir will call FoFMem   1 times, MxPair=       132
 NAB=    66 NAA=     0 NBB=     0.
 DE(Corr)= -0.70204342     E(CORR)=     -599.31916642     Delta= 9.06D-08
 NORM(A)=   0.11145414D+01
 Iteration Nr.  16
 **********************
 DD1Dir will call FoFMem   1 times, MxPair=       132
 NAB=    66 NAA=     0 NBB=     0.
 DE(Corr)= -0.70204363     E(CORR)=     -599.31916662     Delta=-2.03D-07
 NORM(A)=   0.11145413D+01
 Iteration Nr.  17
 **********************
 DD1Dir will call FoFMem   1 times, MxPair=       132
 NAB=    66 NAA=     0 NBB=     0.
 DE(Corr)= -0.70204350     E(CORR)=     -599.31916649     Delta= 1.31D-07
 NORM(A)=   0.11145412D+01
 Iteration Nr.  18
 **********************
 DD1Dir will call FoFMem   1 times, MxPair=       132
 NAB=    66 NAA=     0 NBB=     0.
 DE(Corr)= -0.70204353     E(CORR)=     -599.31916653     Delta=-3.67D-08
 NORM(A)=   0.11145410D+01
 Iteration Nr.  19
 **********************
 DD1Dir will call FoFMem   1 times, MxPair=       132
 NAB=    66 NAA=     0 NBB=     0.
 DE(Corr)= -0.70204348     E(CORR)=     -599.31916647     Delta= 5.29D-08
 NORM(A)=   0.11145409D+01
 Iteration Nr.  20
 **********************
 DD1Dir will call FoFMem   1 times, MxPair=       132
 NAB=    66 NAA=     0 NBB=     0.
 DE(Corr)= -0.70204348     E(CORR)=     -599.31916648     Delta=-2.77D-09
 NORM(A)=   0.11145409D+01
 Iteration Nr.  21
 **********************
 DD1Dir will call FoFMem   1 times, MxPair=       132
 NAB=    66 NAA=     0 NBB=     0.
 DE(Corr)= -0.70204346     E(CORR)=     -599.31916646     Delta= 1.95D-08
 NORM(A)=   0.11145408D+01
 Iteration Nr.  22
 **********************
 DD1Dir will call FoFMem   1 times, MxPair=       132
 NAB=    66 NAA=     0 NBB=     0.
 DE(Corr)= -0.70204346     E(CORR)=     -599.31916646     Delta= 2.51D-09
 NORM(A)=   0.11145408D+01
 Iteration Nr.  23
 **********************
 DD1Dir will call FoFMem   1 times, MxPair=       132
 NAB=    66 NAA=     0 NBB=     0.
 DE(Corr)= -0.70204346     E(CORR)=     -599.31916645     Delta= 4.87D-09
 NORM(A)=   0.11145408D+01
 Iteration Nr.  24
 **********************
 DD1Dir will call FoFMem   1 times, MxPair=       132
 NAB=    66 NAA=     0 NBB=     0.
 DE(Corr)= -0.70204346     E(CORR)=     -599.31916645     Delta=-5.94D-10
 NORM(A)=   0.11145408D+01
 Iteration Nr.  25
 **********************
 DD1Dir will call FoFMem   1 times, MxPair=       132
 NAB=    66 NAA=     0 NBB=     0.
 DE(Corr)= -0.70204345     E(CORR)=     -599.31916645     Delta= 5.03D-09
 NORM(A)=   0.11145408D+01
 Iteration Nr.  26
 **********************
 DD1Dir will call FoFMem   1 times, MxPair=       132
 NAB=    66 NAA=     0 NBB=     0.
 DE(Corr)= -0.70204346     E(CORR)=     -599.31916645     Delta=-4.49D-09
 NORM(A)=   0.11145408D+01
 Iteration Nr.  27
 **********************
 DD1Dir will call FoFMem   1 times, MxPair=       132
 NAB=    66 NAA=     0 NBB=     0.
 DE(Corr)= -0.70204344     E(CORR)=     -599.31916644     Delta= 1.20D-08
 NORM(A)=   0.11145408D+01
 Iteration Nr.  28
 **********************
 DD1Dir will call FoFMem   1 times, MxPair=       132
 NAB=    66 NAA=     0 NBB=     0.
 DE(Corr)= -0.70204346     E(CORR)=     -599.31916645     Delta=-1.22D-08
 NORM(A)=   0.11145408D+01
 Iteration Nr.  29
 **********************
 DD1Dir will call FoFMem   1 times, MxPair=       132
 NAB=    66 NAA=     0 NBB=     0.
 DE(Corr)= -0.70204346     E(CORR)=     -599.31916645     Delta= 1.03D-09
 NORM(A)=   0.11145408D+01
 Largest amplitude= 6.61D-02

 Z-AMPLITUDE ITERATIONS

 Iteration Nr.   1
 **********************
 DD1Dir will call FoFMem   1 times, MxPair=       132
 NAB=    66 NAA=     0 NBB=     0.
 DE(Z)  -0.68265139D+00          E(Z)=    -0.59929977438D+03
 NORM(A)=   0.11147605D+01
 Iteration Nr.   2
 **********************
 DD1Dir will call FoFMem   1 times, MxPair=       132
 NAB=    66 NAA=     0 NBB=     0.
 DE(Z)  -0.68267549D+00          E(Z)=    -0.59929979849D+03
 NORM(A)=   0.11147948D+01
 Iteration Nr.   3
 **********************
 DD1Dir will call FoFMem   1 times, MxPair=       132
 NAB=    66 NAA=     0 NBB=     0.
 DE(Z)  -0.68267552D+00          E(Z)=    -0.59929979852D+03
 NORM(A)=   0.11149220D+01
 Iteration Nr.   4
 **********************
 DD1Dir will call FoFMem   1 times, MxPair=       132
 NAB=    66 NAA=     0 NBB=     0.
 DE(Z)  -0.68268942D+00          E(Z)=    -0.59929981241D+03
 NORM(A)=   0.11173423D+01
 Iteration Nr.   5
 **********************
 DD1Dir will call FoFMem   1 times, MxPair=       132
 NAB=    66 NAA=     0 NBB=     0.
 DE(Z)  -0.68292246D+00          E(Z)=    -0.59930004546D+03
 NORM(A)=   0.11078853D+01
 Iteration Nr.   6
 **********************
 DD1Dir will call FoFMem   1 times, MxPair=       132
 NAB=    66 NAA=     0 NBB=     0.
 DE(Z)  -0.68198231D+00          E(Z)=    -0.59929910531D+03
 NORM(A)=   0.11078822D+01
 Iteration Nr.   7
 **********************
 DD1Dir will call FoFMem   1 times, MxPair=       132
 NAB=    66 NAA=     0 NBB=     0.
 DE(Z)  -0.68198502D+00          E(Z)=    -0.59929910801D+03
 NORM(A)=   0.11078737D+01
 Iteration Nr.   8
 **********************
 DD1Dir will call FoFMem   1 times, MxPair=       132
 NAB=    66 NAA=     0 NBB=     0.
 DE(Z)  -0.68198309D+00          E(Z)=    -0.59929910608D+03
 NORM(A)=   0.11078711D+01
 Iteration Nr.   9
 **********************
 DD1Dir will call FoFMem   1 times, MxPair=       132
 NAB=    66 NAA=     0 NBB=     0.
 DE(Z)  -0.68198245D+00          E(Z)=    -0.59929910545D+03
 NORM(A)=   0.11078703D+01
 Iteration Nr.  10
 **********************
 DD1Dir will call FoFMem   1 times, MxPair=       132
 NAB=    66 NAA=     0 NBB=     0.
 DE(Z)  -0.68198261D+00          E(Z)=    -0.59929910561D+03
 NORM(A)=   0.11078698D+01
 Iteration Nr.  11
 **********************
 DD1Dir will call FoFMem   1 times, MxPair=       132
 NAB=    66 NAA=     0 NBB=     0.
 DE(Z)  -0.68198266D+00          E(Z)=    -0.59929910565D+03
 NORM(A)=   0.11078697D+01
 Iteration Nr.  12
 **********************
 DD1Dir will call FoFMem   1 times, MxPair=       132
 NAB=    66 NAA=     0 NBB=     0.
 DE(Z)  -0.68198251D+00          E(Z)=    -0.59929910550D+03
 NORM(A)=   0.11078698D+01
 Iteration Nr.  13
 **********************
 DD1Dir will call FoFMem   1 times, MxPair=       132
 NAB=    66 NAA=     0 NBB=     0.
 DE(Z)  -0.68198266D+00          E(Z)=    -0.59929910565D+03
 NORM(A)=   0.11078698D+01
 Iteration Nr.  14
 **********************
 DD1Dir will call FoFMem   1 times, MxPair=       132
 NAB=    66 NAA=     0 NBB=     0.
 DE(Z)  -0.68198262D+00          E(Z)=    -0.59929910561D+03
 NORM(A)=   0.11078698D+01
 Iteration Nr.  15
 **********************
 DD1Dir will call FoFMem   1 times, MxPair=       132
 NAB=    66 NAA=     0 NBB=     0.
 DE(Z)  -0.68198263D+00          E(Z)=    -0.59929910562D+03
 NORM(A)=   0.11078698D+01
 Iteration Nr.  16
 **********************
 DD1Dir will call FoFMem   1 times, MxPair=       132
 NAB=    66 NAA=     0 NBB=     0.
 DE(Z)  -0.68198263D+00          E(Z)=    -0.59929910563D+03
 NORM(A)=   0.11078698D+01
 Iteration Nr.  17
 **********************
 DD1Dir will call FoFMem   1 times, MxPair=       132
 NAB=    66 NAA=     0 NBB=     0.
 DE(Z)  -0.68198263D+00          E(Z)=    -0.59929910563D+03
 NORM(A)=   0.11078698D+01
 Iteration Nr.  18
 **********************
 DD1Dir will call FoFMem   1 times, MxPair=       132
 NAB=    66 NAA=     0 NBB=     0.
 DE(Z)  -0.68198263D+00          E(Z)=    -0.59929910563D+03
 NORM(A)=   0.11078698D+01
 Discarding MO integrals.
          Differentiating once with respect to electric field.
                with respect to dipole field.
          Electric field/nuclear overlap derivatives assumed to be zero.
          Keep R1 ints in memory in canonical form, NReq=448662239.
          There are     1 degrees of freedom in the 1st order CPHF.  IDoFFX=0.
 LinEq1:  Iter=  0 NonCon=     1 RMS=3.11D-03 Max=1.20D-01
 AX will form     1 AO Fock derivatives at one time.
 LinEq1:  Iter=  1 NonCon=     1 RMS=6.94D-04 Max=9.46D-03
 LinEq1:  Iter=  2 NonCon=     1 RMS=2.29D-04 Max=5.72D-03
 LinEq1:  Iter=  3 NonCon=     1 RMS=9.49D-05 Max=1.45D-03
 LinEq1:  Iter=  4 NonCon=     1 RMS=3.84D-05 Max=4.10D-04
 LinEq1:  Iter=  5 NonCon=     1 RMS=1.06D-05 Max=2.26D-04
 LinEq1:  Iter=  6 NonCon=     1 RMS=2.42D-06 Max=4.25D-05
 LinEq1:  Iter=  7 NonCon=     1 RMS=6.06D-07 Max=9.14D-06
 LinEq1:  Iter=  8 NonCon=     1 RMS=1.49D-07 Max=1.80D-06
 LinEq1:  Iter=  9 NonCon=     1 RMS=3.03D-08 Max=7.47D-07
 LinEq1:  Iter= 10 NonCon=     1 RMS=6.54D-09 Max=8.91D-08
 LinEq1:  Iter= 11 NonCon=     1 RMS=1.05D-09 Max=1.16D-08
 LinEq1:  Iter= 12 NonCon=     1 RMS=1.68D-10 Max=2.85D-09
 LinEq1:  Iter= 13 NonCon=     0 RMS=2.40D-11 Max=3.21D-10
 Linear equations converged to 1.000D-10 1.000D-09 after    13 iterations.
 End of Minotr Frequency-dependent properties file   721 does not exist.
 End of Minotr Frequency-dependent properties file   722 does not exist.

 **********************************************************************

            Population analysis using the QCI/CC density.

 **********************************************************************

     Natural Orbital Coefficients:
                           1         2         3         4         5
     Eigenvalues --     2.00003   2.00003   2.00002   2.00001   2.00001
   1 1   C  1S          0.00001   0.00000  -0.04328   0.08033   0.97619
   2        2S          0.00000   0.00000   0.00131   0.00050  -0.01332
   3        3S          0.00000   0.00000  -0.00132   0.00400   0.03985
   4        4S         -0.00003   0.00000  -0.01265  -0.02361   0.00311
   5        5S         -0.00003   0.00000  -0.00120  -0.00062  -0.00061
   6        6PX         0.00000   0.00005   0.00000   0.00000   0.00000
   7        6PY         0.00005   0.00000   0.00000   0.00000   0.00001
   8        6PZ         0.00000   0.00000   0.00053   0.00168   0.00087
   9        7PX         0.00000   0.00085   0.00000   0.00000   0.00000
  10        7PY         0.00084   0.00000   0.00000   0.00000  -0.00001
  11        7PZ         0.00000   0.00000   0.00142   0.00304  -0.00091
  12        8PX         0.00000   0.00457   0.00000   0.00000   0.00000
  13        8PY         0.00455   0.00000  -0.00001  -0.00001  -0.00002
  14        8PZ         0.00002   0.00000  -0.00373  -0.00410  -0.00309
  15        9PX         0.00000   0.00042   0.00000   0.00000   0.00000
  16        9PY         0.00042   0.00000   0.00000   0.00000   0.00000
  17        9PZ         0.00000   0.00000   0.00021   0.00017  -0.00049
  18       10D 0        0.00000   0.00000   0.00011   0.00033  -0.00057
  19       10D+1        0.00000  -0.00015   0.00000   0.00000   0.00000
  20       10D-1       -0.00015   0.00000   0.00000   0.00000   0.00000
  21       10D+2        0.00004   0.00000   0.00000   0.00000   0.00000
  22       10D-2        0.00000   0.00004   0.00000   0.00000   0.00000
  23       11D 0        0.00000   0.00000   0.00022  -0.00009  -0.00029
  24       11D+1        0.00000   0.00025   0.00000   0.00000   0.00000
  25       11D-1        0.00026   0.00000   0.00000   0.00000   0.00000
  26       11D+2        0.00101   0.00000   0.00000   0.00000  -0.00001
  27       11D-2        0.00000   0.00101   0.00000   0.00000   0.00000
  28       12D 0       -0.00001   0.00000  -0.00078   0.00122  -0.00236
  29       12D+1        0.00000  -0.00131   0.00000   0.00000   0.00000
  30       12D-1       -0.00130   0.00000   0.00000   0.00001  -0.00001
  31       12D+2        0.00162   0.00000   0.00000   0.00000  -0.00001
  32       12D-2        0.00000   0.00162   0.00000   0.00000   0.00000
  33       13F 0        0.00000   0.00000   0.00001   0.00003   0.00019
  34       13F+1        0.00000  -0.00019   0.00000   0.00000   0.00000
  35       13F-1       -0.00019   0.00000   0.00000   0.00000   0.00000
  36       13F+2        0.00002   0.00000   0.00000   0.00000   0.00000
  37       13F-2        0.00000   0.00002   0.00000   0.00000   0.00000
  38       13F+3        0.00000   0.00000   0.00000   0.00000   0.00000
  39       13F-3        0.00000   0.00000  -0.00006   0.00007   0.00090
  40       14F 0        0.00000   0.00000  -0.00113  -0.00215  -0.00019
  41       14F+1        0.00000   0.00058   0.00000   0.00000   0.00000
  42       14F-1        0.00057   0.00000   0.00000  -0.00001   0.00000
  43       14F+2        0.00034   0.00000   0.00000   0.00000   0.00000
  44       14F-2        0.00000   0.00034   0.00000   0.00000   0.00000
  45       14F+3        0.00000   0.00000   0.00000   0.00000   0.00000
  46       14F-3        0.00000   0.00000  -0.00086  -0.00136  -0.00191
  47 2   H  1S         -0.00016   0.00000  -0.00002  -0.00035  -0.00135
  48        2S          0.00120   0.00000   0.00245   0.00332  -0.00068
  49        3S          0.00870   0.00000   0.00181   0.00528  -0.00437
  50        4S         -0.00027   0.00000   0.00011   0.00009  -0.00013
  51        5PX         0.00000   0.00000   0.00000   0.00000   0.00000
  52        5PY         0.00003   0.00000   0.00004  -0.00003  -0.00048
  53        5PZ         0.00001   0.00000   0.00001   0.00002  -0.00009
  54        6PX         0.00000   0.00019   0.00000   0.00000   0.00000
  55        6PY         0.00066   0.00000   0.00046   0.00069  -0.00081
  56        6PZ         0.00062   0.00000  -0.00001  -0.00010   0.00024
  57        7PX         0.00000   0.00092   0.00000   0.00000   0.00000
  58        7PY         0.00210   0.00000   0.00053   0.00135  -0.00102
  59        7PZ         0.00028   0.00000   0.00047   0.00092  -0.00006
  60        8D 0        0.00004   0.00000   0.00001   0.00006   0.00014
  61        8D+1        0.00000  -0.00001   0.00000   0.00000   0.00000
  62        8D-1        0.00010   0.00000   0.00002   0.00005  -0.00004
  63        8D+2       -0.00005   0.00000  -0.00004  -0.00005   0.00028
  64        8D-2        0.00000   0.00001   0.00000   0.00000   0.00000
  65        9D 0        0.00039   0.00000   0.00015   0.00025   0.00063
  66        9D+1        0.00000   0.00025   0.00000   0.00000   0.00000
  67        9D-1        0.00013   0.00000  -0.00014  -0.00026   0.00001
  68        9D+2       -0.00013   0.00000   0.00001   0.00003  -0.00010
  69        9D-2        0.00000   0.00012   0.00000   0.00000   0.00000
  70 3   H  1S          0.00008  -0.00014  -0.00002  -0.00035  -0.00135
  71        2S         -0.00059   0.00104   0.00245   0.00333  -0.00066
  72        3S         -0.00435   0.00754   0.00183   0.00530  -0.00433
  73        4S          0.00014  -0.00023   0.00011   0.00010  -0.00013
  74        5PX        -0.00001   0.00003   0.00004  -0.00002  -0.00042
  75        5PY         0.00001  -0.00001  -0.00002   0.00001   0.00024
  76        5PZ        -0.00001   0.00001   0.00001   0.00002  -0.00009
  77        6PX        -0.00020   0.00055   0.00040   0.00061  -0.00069
  78        6PY         0.00031  -0.00020  -0.00023  -0.00035   0.00040
  79        6PZ        -0.00031   0.00054  -0.00001  -0.00010   0.00024
  80        7PX        -0.00051   0.00180   0.00046   0.00117  -0.00088
  81        7PY         0.00122  -0.00051  -0.00027  -0.00068   0.00051
  82        7PZ        -0.00014   0.00023   0.00047   0.00092  -0.00006
  83        8D 0       -0.00002   0.00003   0.00001   0.00007   0.00014
  84        8D+1       -0.00005   0.00007   0.00002   0.00004  -0.00003
  85        8D-1        0.00001  -0.00005  -0.00001  -0.00002   0.00002
  86        8D+2        0.00000   0.00003   0.00002   0.00003  -0.00014
  87        8D-2        0.00002  -0.00003  -0.00004  -0.00005   0.00024
  88        9D 0       -0.00019   0.00034   0.00015   0.00025   0.00063
  89        9D+1        0.00005   0.00016  -0.00012  -0.00022   0.00001
  90        9D-1        0.00022   0.00005   0.00007   0.00013   0.00000
  91        9D+2        0.00006   0.00011  -0.00001  -0.00001   0.00005
  92        9D-2        0.00011  -0.00007   0.00001   0.00002  -0.00009
  93 4   H  1S          0.00008   0.00014  -0.00002  -0.00035  -0.00135
  94        2S         -0.00058  -0.00104   0.00245   0.00333  -0.00066
  95        3S         -0.00434  -0.00754   0.00183   0.00530  -0.00433
  96        4S          0.00014   0.00023   0.00011   0.00010  -0.00013
  97        5PX         0.00001   0.00003  -0.00004   0.00002   0.00042
  98        5PY         0.00001   0.00001  -0.00002   0.00001   0.00024
  99        5PZ        -0.00001  -0.00001   0.00001   0.00002  -0.00009
 100        6PX         0.00020   0.00055  -0.00040  -0.00061   0.00069
 101        6PY         0.00031   0.00020  -0.00023  -0.00035   0.00040
 102        6PZ        -0.00031  -0.00054  -0.00001  -0.00010   0.00024
 103        7PX         0.00051   0.00180  -0.00046  -0.00117   0.00088
 104        7PY         0.00122   0.00051  -0.00027  -0.00068   0.00051
 105        7PZ        -0.00014  -0.00023   0.00047   0.00092  -0.00006
 106        8D 0       -0.00002  -0.00003   0.00001   0.00007   0.00014
 107        8D+1        0.00005   0.00007  -0.00002  -0.00004   0.00003
 108        8D-1        0.00001   0.00005  -0.00001  -0.00002   0.00002
 109        8D+2        0.00000  -0.00003   0.00002   0.00003  -0.00014
 110        8D-2       -0.00002  -0.00003   0.00004   0.00005  -0.00024
 111        9D 0       -0.00019  -0.00034   0.00015   0.00025   0.00063
 112        9D+1       -0.00005   0.00016   0.00012   0.00022  -0.00001
 113        9D-1        0.00022  -0.00005   0.00007   0.00013   0.00000
 114        9D+2        0.00006  -0.00011  -0.00001  -0.00001   0.00005
 115        9D-2       -0.00011  -0.00007  -0.00001  -0.00002   0.00009
 116 5   Cl 1S          0.00007   0.00000  -0.25059   0.14801  -0.02283
 117        2S         -0.00024   0.00000   0.84589  -0.50031   0.07825
 118        3S          0.00001   0.00000  -0.02309   0.00933  -0.00239
 119        4S         -0.00002   0.00000   0.06655  -0.04076   0.00643
 120        5S          0.00001   0.00000  -0.00211   0.00778   0.00351
 121        6S          0.00000   0.00000  -0.00154  -0.00213   0.00300
 122        7PX        -0.00034   0.97886   0.00009   0.00015  -0.00001
 123        7PY         0.97886   0.00034   0.00015  -0.00021   0.00001
 124        7PZ         0.00011  -0.00017   0.50090   0.83587  -0.04716
 125        8PX         0.00001  -0.01915   0.00000   0.00000   0.00000
 126        8PY        -0.01915  -0.00001   0.00000   0.00000   0.00000
 127        8PZ         0.00000   0.00000  -0.00878  -0.01404   0.00011
 128        9PX        -0.00002   0.05233   0.00001   0.00001   0.00000
 129        9PY         0.05233   0.00002   0.00001  -0.00001   0.00000
 130        9PZ         0.00001  -0.00001   0.02844   0.04954  -0.00267
 131       10PX         0.00000  -0.00578   0.00000   0.00000   0.00000
 132       10PY        -0.00578   0.00000   0.00000   0.00000   0.00000
 133       10PZ         0.00000   0.00000  -0.00435  -0.00275  -0.00347
 134       11PX         0.00000  -0.00214   0.00000   0.00000   0.00000
 135       11PY        -0.00215   0.00000   0.00000   0.00000   0.00000
 136       11PZ         0.00000   0.00000  -0.00036  -0.00015  -0.00053
 137       12D 0        0.00000   0.00000   0.00001  -0.00051  -0.00017
 138       12D+1        0.00000  -0.00032   0.00000   0.00000   0.00000
 139       12D-1       -0.00032   0.00000   0.00000   0.00000   0.00000
 140       12D+2        0.00001   0.00000   0.00000   0.00000   0.00000
 141       12D-2        0.00000   0.00001   0.00000   0.00000   0.00000
 142       13D 0        0.00000   0.00000   0.00088   0.00244   0.00042
 143       13D+1        0.00000   0.00081   0.00000   0.00000   0.00000
 144       13D-1        0.00081   0.00000   0.00000   0.00000   0.00000
 145       13D+2       -0.00002   0.00000   0.00000   0.00000   0.00000
 146       13D-2        0.00000  -0.00002   0.00000   0.00000   0.00000
 147       14D 0        0.00000   0.00000   0.00058  -0.00018   0.00080
 148       14D+1        0.00000  -0.00071   0.00000   0.00000   0.00000
 149       14D-1       -0.00071   0.00000   0.00000   0.00000   0.00000
 150       14D+2        0.00003   0.00000   0.00000   0.00000   0.00000
 151       14D-2        0.00000   0.00003   0.00000   0.00000   0.00000
 152       15F 0        0.00000   0.00000   0.00001  -0.00007  -0.00003
 153       15F+1        0.00000  -0.00001   0.00000   0.00000   0.00000
 154       15F-1       -0.00001   0.00000   0.00000   0.00000   0.00000
 155       15F+2        0.00003   0.00000   0.00000   0.00000   0.00000
 156       15F-2        0.00000   0.00003   0.00000   0.00000   0.00000
 157       15F+3        0.00000   0.00000   0.00000   0.00000   0.00000
 158       15F-3        0.00000   0.00000   0.00001   0.00003   0.00000
 159       16F 0        0.00000   0.00000  -0.00032  -0.00058  -0.00031
 160       16F+1        0.00000  -0.00022   0.00000   0.00000   0.00000
 161       16F-1       -0.00022   0.00000   0.00000   0.00000   0.00000
 162       16F+2       -0.00003   0.00000   0.00000   0.00000   0.00000
 163       16F-2        0.00000  -0.00003   0.00000   0.00000   0.00000
 164       16F+3        0.00000   0.00000   0.00000   0.00000   0.00000
 165       16F-3        0.00000   0.00000  -0.00002  -0.00005   0.00002
 166 6   F  1S         -0.00001   0.00000  -0.00144  -0.01041  -0.04976
 167        2S          0.00000   0.00000   0.00020   0.00043   0.00080
 168        3S          0.00000   0.00000  -0.00007  -0.00045  -0.00202
 169        4S          0.00001   0.00000  -0.00055  -0.00105   0.00056
 170        5S          0.00003   0.00000   0.00010  -0.00168   0.00178
 171        6PX         0.00000  -0.00004   0.00000   0.00000   0.00000
 172        6PY        -0.00004   0.00000   0.00000   0.00001   0.00000
 173        6PZ         0.00000   0.00000   0.00058   0.00111   0.00011
 174        7PX         0.00000  -0.00001   0.00000   0.00000   0.00000
 175        7PY        -0.00001   0.00000   0.00000   0.00001   0.00000
 176        7PZ         0.00000   0.00000   0.00069   0.00132   0.00002
 177        8PX         0.00000  -0.00025   0.00000   0.00000   0.00000
 178        8PY        -0.00024   0.00000   0.00000   0.00000   0.00000
 179        8PZ         0.00002   0.00000   0.00008   0.00017   0.00048
 180        9PX         0.00000  -0.00036   0.00000   0.00000   0.00000
 181        9PY        -0.00036   0.00000   0.00000   0.00000   0.00000
 182        9PZ         0.00001   0.00000   0.00017  -0.00009   0.00071
 183       10D 0        0.00000   0.00000   0.00001   0.00001  -0.00002
 184       10D+1        0.00000  -0.00001   0.00000   0.00000   0.00000
 185       10D-1       -0.00001   0.00000   0.00000   0.00000   0.00000
 186       10D+2        0.00001   0.00000   0.00000   0.00000   0.00000
 187       10D-2        0.00000   0.00001   0.00000   0.00000   0.00000
 188       11D 0        0.00000   0.00000  -0.00003  -0.00010   0.00001
 189       11D+1        0.00000   0.00005   0.00000   0.00000   0.00000
 190       11D-1        0.00005   0.00000   0.00000   0.00000   0.00000
 191       11D+2       -0.00003   0.00000   0.00000   0.00000   0.00000
 192       11D-2        0.00000  -0.00003   0.00000   0.00000   0.00000
 193       12D 0        0.00001   0.00000  -0.00019  -0.00012   0.00011
 194       12D+1        0.00000  -0.00023   0.00000   0.00000   0.00000
 195       12D-1       -0.00022   0.00000   0.00000  -0.00001   0.00000
 196       12D+2        0.00011   0.00000   0.00000   0.00000   0.00000
 197       12D-2        0.00000   0.00011   0.00000   0.00000   0.00000
 198       13F 0        0.00000   0.00000   0.00001  -0.00001  -0.00004
 199       13F+1        0.00000   0.00002   0.00000   0.00000   0.00000
 200       13F-1        0.00002   0.00000   0.00000   0.00000   0.00000
 201       13F+2       -0.00002   0.00000   0.00000   0.00000   0.00000
 202       13F-2        0.00000  -0.00002   0.00000   0.00000   0.00000
 203       13F+3        0.00000   0.00000   0.00000   0.00000   0.00000
 204       13F-3        0.00000   0.00000   0.00000   0.00000   0.00000
 205       14F 0        0.00000   0.00000  -0.00004   0.00002   0.00013
 206       14F+1        0.00000  -0.00006   0.00000   0.00000   0.00000
 207       14F-1       -0.00006   0.00000   0.00000   0.00000   0.00000
 208       14F+2        0.00004   0.00000   0.00000   0.00000   0.00000
 209       14F-2        0.00000   0.00004   0.00000   0.00000   0.00000
 210       14F+3        0.00000   0.00000   0.00000   0.00000   0.00000
 211       14F-3        0.00000   0.00000   0.00000   0.00000  -0.00001
                           6         7         8         9        10
     Eigenvalues --     2.00000   2.00000   1.98361   1.97543   1.96949
   1 1   C  1S          0.05039  -0.00046   0.01542  -0.07338  -0.14372
   2        2S         -0.00012  -0.00001  -0.04201   0.19911   0.39727
   3        3S          0.00230  -0.00003  -0.01040   0.04620   0.09614
   4        4S         -0.00699   0.00016   0.00556   0.07906   0.19079
   5        5S         -0.00016   0.00010   0.00785  -0.00690  -0.02889
   6        6PX         0.00000   0.00000   0.00000   0.00000   0.00000
   7        6PY         0.00000   0.00000   0.00008   0.00000  -0.00009
   8        6PZ         0.00004   0.00000   0.00646   0.01034  -0.02723
   9        7PX         0.00000   0.00000   0.00000   0.00000   0.00000
  10        7PY        -0.00002   0.00000   0.00014   0.00001  -0.00012
  11        7PZ        -0.00075   0.00000   0.00706   0.01790  -0.03246
  12        8PX         0.00000   0.00000   0.00000   0.00000   0.00000
  13        8PY         0.00001   0.00000   0.00021   0.00000  -0.00012
  14        8PZ         0.00519   0.00009   0.01660   0.00589  -0.02271
  15        9PX         0.00000   0.00000   0.00000   0.00000   0.00000
  16        9PY         0.00000   0.00000   0.00000   0.00000   0.00002
  17        9PZ         0.00011   0.00001  -0.00071   0.00033  -0.00407
  18       10D 0        0.00004   0.00000   0.00051  -0.00214  -0.00956
  19       10D+1        0.00000   0.00000   0.00000   0.00000   0.00000
  20       10D-1        0.00000   0.00000   0.00000   0.00000   0.00000
  21       10D+2        0.00000   0.00000   0.00000   0.00000   0.00000
  22       10D-2        0.00000   0.00000   0.00000   0.00000   0.00000
  23       11D 0       -0.00023  -0.00002  -0.00529   0.00462  -0.01876
  24       11D+1        0.00000   0.00000   0.00000   0.00000  -0.00001
  25       11D-1       -0.00001   0.00000  -0.00011   0.00001   0.00004
  26       11D+2       -0.00001   0.00000   0.00006  -0.00001  -0.00006
  27       11D-2        0.00000   0.00000   0.00000   0.00000   0.00000
  28       12D 0        0.00027   0.00008   0.00206  -0.00841  -0.01668
  29       12D+1        0.00000   0.00000   0.00000   0.00000  -0.00001
  30       12D-1       -0.00001   0.00000  -0.00001  -0.00005  -0.00007
  31       12D+2       -0.00001   0.00000   0.00005  -0.00003  -0.00011
  32       12D-2        0.00000   0.00000   0.00000   0.00000   0.00000
  33       13F 0       -0.00007   0.00000   0.00000   0.00242   0.00064
  34       13F+1        0.00000   0.00000   0.00000   0.00000   0.00000
  35       13F-1        0.00000   0.00000   0.00001   0.00000  -0.00001
  36       13F+2        0.00000   0.00000  -0.00001   0.00000   0.00000
  37       13F-2        0.00000   0.00000   0.00000   0.00000   0.00000
  38       13F+3        0.00000   0.00000   0.00000   0.00000   0.00000
  39       13F-3        0.00001   0.00000  -0.00014   0.00194   0.00397
  40       14F 0        0.00127  -0.00001   0.00471   0.00261  -0.00198
  41       14F+1        0.00000   0.00000   0.00000   0.00000   0.00000
  42       14F-1        0.00001   0.00000   0.00005   0.00000  -0.00002
  43       14F+2        0.00000   0.00000  -0.00005   0.00001   0.00003
  44       14F-2        0.00000   0.00000   0.00000   0.00000   0.00000
  45       14F+3        0.00000   0.00000   0.00000   0.00000   0.00000
  46       14F-3       -0.00044   0.00003   0.00187  -0.00100   0.00404
  47 2   H  1S         -0.00008   0.00000  -0.00864   0.03717   0.08057
  48        2S          0.00096  -0.00006  -0.01528   0.04376   0.08367
  49        3S          0.00179   0.00004  -0.00069  -0.00498  -0.01232
  50        4S          0.00003   0.00000  -0.00046   0.00052   0.00042
  51        5PX         0.00000   0.00000   0.00000   0.00000   0.00000
  52        5PY         0.00001   0.00000  -0.00109   0.00399   0.00863
  53        5PZ        -0.00004   0.00000   0.00028   0.00096   0.00034
  54        6PX         0.00000   0.00000   0.00000   0.00000   0.00000
  55        6PY         0.00007   0.00000  -0.00070   0.00080   0.00119
  56        6PZ         0.00032  -0.00001   0.00001   0.00244  -0.00045
  57        7PX         0.00000   0.00000   0.00000   0.00000   0.00000
  58        7PY         0.00043   0.00001   0.00139  -0.00497  -0.01034
  59        7PZ        -0.00056   0.00001  -0.00283  -0.00173  -0.00131
  60        8D 0        0.00006   0.00000   0.00014  -0.00035  -0.00091
  61        8D+1        0.00000   0.00000   0.00000   0.00000   0.00000
  62        8D-1       -0.00001   0.00000  -0.00016   0.00050   0.00024
  63        8D+2       -0.00002   0.00000   0.00003  -0.00054  -0.00137
  64        8D-2        0.00000   0.00000   0.00000   0.00000   0.00000
  65        9D 0        0.00008  -0.00001  -0.00006   0.00122   0.00099
  66        9D+1        0.00000   0.00000   0.00000   0.00000   0.00000
  67        9D-1        0.00014   0.00000  -0.00008   0.00004  -0.00036
  68        9D+2        0.00004   0.00000  -0.00099   0.00225   0.00415
  69        9D-2        0.00000   0.00000   0.00000   0.00000   0.00000
  70 3   H  1S         -0.00008   0.00000  -0.00855   0.03718   0.08050
  71        2S          0.00099  -0.00006  -0.01533   0.04378   0.08374
  72        3S          0.00181   0.00004  -0.00101  -0.00487  -0.01190
  73        4S          0.00003   0.00000  -0.00047   0.00050   0.00038
  74        5PX         0.00001   0.00000  -0.00094   0.00346   0.00747
  75        5PY        -0.00001   0.00000   0.00055  -0.00199  -0.00432
  76        5PZ        -0.00004   0.00000   0.00027   0.00096   0.00035
  77        6PX         0.00007   0.00000  -0.00064   0.00070   0.00105
  78        6PY        -0.00004   0.00000   0.00039  -0.00040  -0.00062
  79        6PZ         0.00032  -0.00001   0.00011   0.00242  -0.00054
  80        7PX         0.00037   0.00001   0.00116  -0.00430  -0.00896
  81        7PY        -0.00022   0.00000  -0.00066   0.00246   0.00512
  82        7PZ        -0.00055   0.00001  -0.00279  -0.00173  -0.00132
  83        8D 0        0.00006   0.00000   0.00014  -0.00035  -0.00091
  84        8D+1       -0.00001   0.00000  -0.00012   0.00043   0.00020
  85        8D-1        0.00000   0.00000   0.00007  -0.00025  -0.00012
  86        8D+2        0.00001   0.00000  -0.00002   0.00027   0.00068
  87        8D-2       -0.00001   0.00000   0.00003  -0.00047  -0.00119
  88        9D 0        0.00009  -0.00001  -0.00006   0.00123   0.00101
  89        9D+1        0.00012   0.00000  -0.00004   0.00003  -0.00034
  90        9D-1       -0.00007   0.00000   0.00002  -0.00002   0.00019
  91        9D+2       -0.00002   0.00000   0.00050  -0.00113  -0.00208
  92        9D-2        0.00003   0.00000  -0.00085   0.00195   0.00359
  93 4   H  1S         -0.00008   0.00000  -0.00855   0.03718   0.08050
  94        2S          0.00099  -0.00006  -0.01533   0.04378   0.08374
  95        3S          0.00181   0.00004  -0.00101  -0.00487  -0.01190
  96        4S          0.00003   0.00000  -0.00047   0.00050   0.00038
  97        5PX        -0.00001   0.00000   0.00094  -0.00346  -0.00747
  98        5PY        -0.00001   0.00000   0.00055  -0.00199  -0.00432
  99        5PZ        -0.00004   0.00000   0.00027   0.00096   0.00035
 100        6PX        -0.00007   0.00000   0.00064  -0.00070  -0.00105
 101        6PY        -0.00004   0.00000   0.00039  -0.00040  -0.00062
 102        6PZ         0.00032  -0.00001   0.00011   0.00242  -0.00054
 103        7PX        -0.00037  -0.00001  -0.00116   0.00430   0.00896
 104        7PY        -0.00022   0.00000  -0.00066   0.00246   0.00511
 105        7PZ        -0.00055   0.00001  -0.00279  -0.00173  -0.00132
 106        8D 0        0.00006   0.00000   0.00014  -0.00035  -0.00091
 107        8D+1        0.00001   0.00000   0.00012  -0.00043  -0.00020
 108        8D-1        0.00000   0.00000   0.00007  -0.00025  -0.00012
 109        8D+2        0.00001   0.00000  -0.00002   0.00027   0.00068
 110        8D-2        0.00001   0.00000  -0.00003   0.00047   0.00119
 111        9D 0        0.00009  -0.00001  -0.00006   0.00123   0.00101
 112        9D+1       -0.00012   0.00000   0.00004  -0.00003   0.00034
 113        9D-1       -0.00007   0.00000   0.00002  -0.00002   0.00019
 114        9D+2       -0.00002   0.00000   0.00050  -0.00113  -0.00208
 115        9D-2       -0.00003   0.00000   0.00085  -0.00195  -0.00359
 116 5   Cl 1S          0.00007   0.99708  -0.00064   0.06648  -0.03479
 117        2S         -0.00007   0.01040   0.00292  -0.25193   0.13076
 118        3S          0.00005   0.00017  -0.00391   0.52471  -0.27822
 119        4S          0.00008   0.00026  -0.00025   0.06428  -0.03748
 120        5S         -0.00181  -0.00020  -0.01230   0.35096  -0.17055
 121        6S         -0.00050  -0.00011  -0.00461   0.02452   0.01130
 122        7PX         0.00000   0.00000   0.00000   0.00000   0.00001
 123        7PY         0.00001   0.00000   0.00000   0.00000   0.00002
 124        7PZ         0.00733   0.00016   0.00152   0.00459   0.02880
 125        8PX         0.00000   0.00000   0.00000   0.00000  -0.00001
 126        8PY         0.00000   0.00000   0.00000  -0.00001  -0.00005
 127        8PZ         0.00051  -0.00003  -0.00227  -0.00602  -0.07208
 128        9PX         0.00000   0.00000   0.00000   0.00000  -0.00001
 129        9PY         0.00000   0.00000   0.00000   0.00000  -0.00002
 130        9PZ         0.00032   0.00003  -0.00264   0.00068  -0.03141
 131       10PX         0.00000   0.00000   0.00000   0.00000  -0.00001
 132       10PY         0.00000   0.00000  -0.00003   0.00003  -0.00001
 133       10PZ         0.00096   0.00015   0.00271   0.00302  -0.05237
 134       11PX         0.00000   0.00000   0.00000   0.00000   0.00000
 135       11PY         0.00000   0.00000   0.00000   0.00001  -0.00001
 136       11PZ         0.00002   0.00002  -0.00040   0.00263  -0.00875
 137       12D 0       -0.00003   0.00001  -0.00035   0.00449   0.00453
 138       12D+1        0.00000   0.00000   0.00000   0.00000   0.00000
 139       12D-1        0.00000   0.00000   0.00000   0.00000   0.00000
 140       12D+2        0.00000   0.00000   0.00000   0.00000   0.00000
 141       12D-2        0.00000   0.00000   0.00000   0.00000   0.00000
 142       13D 0       -0.00022   0.00000  -0.00163   0.00820   0.00969
 143       13D+1        0.00000   0.00000   0.00000   0.00000   0.00000
 144       13D-1        0.00000   0.00000   0.00000   0.00000   0.00001
 145       13D+2        0.00000   0.00000   0.00000   0.00000   0.00000
 146       13D-2        0.00000   0.00000   0.00000   0.00000   0.00000
 147       14D 0       -0.00014  -0.00004  -0.00184  -0.00018   0.00539
 148       14D+1        0.00000   0.00000   0.00000   0.00000   0.00000
 149       14D-1        0.00000   0.00000   0.00001  -0.00001  -0.00002
 150       14D+2        0.00000   0.00000   0.00000   0.00000   0.00000
 151       14D-2        0.00000   0.00000   0.00000   0.00000   0.00000
 152       15F 0        0.00005   0.00000   0.00023  -0.00180  -0.00192
 153       15F+1        0.00000   0.00000   0.00000   0.00000   0.00000
 154       15F-1        0.00000   0.00000   0.00000   0.00000   0.00000
 155       15F+2        0.00000   0.00000   0.00000   0.00000   0.00000
 156       15F-2        0.00000   0.00000   0.00000   0.00000   0.00000
 157       15F+3        0.00000   0.00000   0.00000   0.00000   0.00000
 158       15F-3       -0.00001   0.00000  -0.00001   0.00002   0.00009
 159       16F 0       -0.00005   0.00001   0.00005  -0.00093  -0.00171
 160       16F+1        0.00000   0.00000   0.00000   0.00000   0.00000
 161       16F-1        0.00000   0.00000  -0.00001   0.00000   0.00000
 162       16F+2        0.00000   0.00000  -0.00001   0.00000   0.00001
 163       16F-2        0.00000   0.00000   0.00000   0.00000   0.00000
 164       16F+3        0.00000   0.00000   0.00000   0.00000   0.00000
 165       16F-3        0.00003   0.00000   0.00002  -0.00001  -0.00021
 166 6   F  1S          0.97743  -0.00002   0.21189   0.01315   0.02162
 167        2S         -0.01503   0.00000  -0.53161  -0.03405  -0.05732
 168        3S          0.04206   0.00000  -0.16471  -0.01081  -0.01853
 169        4S          0.00193  -0.00001  -0.36876  -0.02363  -0.04391
 170        5S         -0.00084  -0.00006  -0.04529   0.00420   0.00781
 171        6PX         0.00000   0.00000   0.00000   0.00000   0.00002
 172        6PY         0.00000   0.00000   0.00016   0.00000  -0.00010
 173        6PZ         0.00048   0.00000   0.01352   0.01270   0.08750
 174        7PX         0.00000   0.00000   0.00000   0.00000   0.00002
 175        7PY         0.00000   0.00000   0.00018   0.00000  -0.00012
 176        7PZ        -0.00012   0.00000   0.01475   0.01551   0.10528
 177        8PX         0.00000   0.00000   0.00000   0.00000   0.00002
 178        8PY         0.00001   0.00000   0.00015   0.00001  -0.00008
 179        8PZ         0.00240  -0.00001   0.01247   0.01225   0.08373
 180        9PX         0.00000   0.00000   0.00000   0.00000   0.00000
 181        9PY         0.00000   0.00000   0.00004   0.00001  -0.00003
 182        9PZ        -0.00008  -0.00002   0.00220   0.00315   0.02424
 183       10D 0       -0.00002   0.00000  -0.00013   0.00017   0.00060
 184       10D+1        0.00000   0.00000   0.00000   0.00000   0.00000
 185       10D-1        0.00000   0.00000   0.00000   0.00000   0.00000
 186       10D+2        0.00000   0.00000   0.00000   0.00000   0.00000
 187       10D-2        0.00000   0.00000   0.00000   0.00000   0.00000
 188       11D 0       -0.00003   0.00000  -0.00104   0.00091   0.00275
 189       11D+1        0.00000   0.00000   0.00000   0.00000   0.00000
 190       11D-1        0.00000   0.00000  -0.00001   0.00001   0.00002
 191       11D+2        0.00000   0.00000   0.00000   0.00000   0.00000
 192       11D-2        0.00000   0.00000   0.00000   0.00000   0.00000
 193       12D 0        0.00080   0.00000  -0.00055   0.00035   0.00386
 194       12D+1        0.00000   0.00000   0.00000   0.00000   0.00000
 195       12D-1        0.00001   0.00000   0.00000   0.00001   0.00004
 196       12D+2        0.00000   0.00000   0.00000   0.00000   0.00000
 197       12D-2        0.00000   0.00000   0.00000   0.00000   0.00000
 198       13F 0       -0.00006   0.00000  -0.00002   0.00013   0.00027
 199       13F+1        0.00000   0.00000   0.00000   0.00000   0.00000
 200       13F-1        0.00000   0.00000   0.00000   0.00000   0.00000
 201       13F+2        0.00000   0.00000   0.00000   0.00000   0.00000
 202       13F-2        0.00000   0.00000   0.00000   0.00000   0.00000
 203       13F+3        0.00000   0.00000   0.00000   0.00000   0.00000
 204       13F-3        0.00001   0.00000   0.00001   0.00002   0.00003
 205       14F 0        0.00020   0.00000  -0.00040  -0.00006   0.00063
 206       14F+1        0.00000   0.00000   0.00000   0.00000   0.00000
 207       14F-1        0.00000   0.00000  -0.00001   0.00000   0.00001
 208       14F+2        0.00000   0.00000   0.00000   0.00000   0.00000
 209       14F-2        0.00000   0.00000   0.00000   0.00000   0.00000
 210       14F+3        0.00000   0.00000   0.00000   0.00000   0.00000
 211       14F-3       -0.00001   0.00000  -0.00007  -0.00006  -0.00009
                          11        12        13        14        15
     Eigenvalues --     1.96437   1.96436   1.95924   1.95923   1.94911
   1 1   C  1S         -0.00038   0.00000   0.00000   0.00004   0.00000
   2        2S          0.00109   0.00000   0.00000  -0.00015   0.00001
   3        3S          0.00028   0.00000   0.00000  -0.00007   0.00000
   4        4S         -0.00023   0.00000   0.00000   0.00106   0.00001
   5        5S         -0.00002   0.00000   0.00000  -0.00008   0.00000
   6        6PX         0.00012   0.09771   0.23107  -0.00055   0.06797
   7        6PY         0.09798  -0.00012   0.00055   0.23102   0.00017
   8        6PZ        -0.00008  -0.00002  -0.00004  -0.00017  -0.00001
   9        7PX         0.00016   0.13093   0.30626  -0.00073   0.09445
  10        7PY         0.13125  -0.00016   0.00073   0.30621   0.00023
  11        7PZ        -0.00013  -0.00002  -0.00006  -0.00027  -0.00001
  12        8PX         0.00012   0.09572   0.23635  -0.00056   0.07259
  13        8PY         0.09622  -0.00011   0.00056   0.23646   0.00018
  14        8PZ         0.00002  -0.00002  -0.00004  -0.00004  -0.00001
  15        9PX         0.00000  -0.00220   0.01893  -0.00005   0.01225
  16        9PY        -0.00218   0.00000   0.00005   0.01897   0.00003
  17        9PZ        -0.00002   0.00000   0.00000   0.00001   0.00000
  18       10D 0       -0.00002   0.00000   0.00000  -0.00001   0.00000
  19       10D+1        0.00000  -0.00271  -0.00128   0.00000  -0.00374
  20       10D-1       -0.00270   0.00000  -0.00001  -0.00126  -0.00001
  21       10D+2        0.00625  -0.00001   0.00004   0.01480   0.00001
  22       10D-2        0.00000   0.00622   0.01485  -0.00004   0.00503
  23       11D 0        0.00005   0.00000   0.00000  -0.00018   0.00000
  24       11D+1       -0.00002  -0.01273   0.00762  -0.00003  -0.01548
  25       11D-1       -0.01272   0.00001   0.00001   0.00768  -0.00004
  26       11D+2        0.02078  -0.00002   0.00013   0.04524   0.00005
  27       11D-2        0.00001   0.02050   0.04543  -0.00012   0.01708
  28       12D 0       -0.00005   0.00000   0.00000  -0.00012   0.00000
  29       12D+1       -0.00001  -0.00616   0.00571  -0.00002   0.00123
  30       12D-1       -0.00602   0.00000   0.00001   0.00567   0.00000
  31       12D+2        0.02022  -0.00002   0.00010   0.03588   0.00003
  32       12D-2        0.00002   0.01994   0.03610  -0.00010   0.01013
  33       13F 0       -0.00001   0.00000   0.00000   0.00000   0.00000
  34       13F+1        0.00000   0.00025  -0.00201   0.00000  -0.00223
  35       13F-1        0.00025   0.00000   0.00000  -0.00201  -0.00001
  36       13F+2       -0.00065   0.00000   0.00000  -0.00012   0.00000
  37       13F-2        0.00000  -0.00063  -0.00013   0.00000  -0.00033
  38       13F+3        0.00000   0.00000   0.00000   0.00000   0.00000
  39       13F-3        0.00001   0.00000   0.00000   0.00001   0.00000
  40       14F 0        0.00003   0.00000   0.00000   0.00007   0.00000
  41       14F+1        0.00000   0.00038  -0.00584   0.00001  -0.00726
  42       14F-1        0.00038   0.00000  -0.00001  -0.00583  -0.00002
  43       14F+2       -0.00390   0.00000   0.00000  -0.00012  -0.00001
  44       14F-2        0.00000  -0.00382  -0.00014   0.00000  -0.00326
  45       14F+3        0.00000   0.00000   0.00000   0.00000   0.00000
  46       14F-3       -0.00009   0.00000   0.00000   0.00010   0.00000
  47 2   H  1S         -0.06724   0.00007  -0.00038  -0.15146  -0.00012
  48        2S         -0.06038   0.00006  -0.00039  -0.15453  -0.00012
  49        3S          0.05835  -0.00006   0.00030   0.11921   0.00001
  50        4S         -0.00575   0.00001   0.00004   0.01741   0.00000
  51        5PX         0.00000   0.00209   0.00437  -0.00001   0.00106
  52        5PY        -0.00526   0.00001  -0.00003  -0.01240  -0.00001
  53        5PZ         0.00003   0.00000  -0.00001  -0.00280   0.00000
  54        6PX         0.00001   0.00800   0.01363  -0.00003   0.00374
  55        6PY         0.00725  -0.00001   0.00003   0.01117   0.00001
  56        6PZ        -0.00275   0.00000   0.00000   0.00033   0.00000
  57        7PX         0.00001   0.00920   0.01341  -0.00003   0.00284
  58        7PY         0.01413  -0.00002   0.00011   0.04557   0.00002
  59        7PZ         0.00076   0.00000   0.00002   0.00752   0.00001
  60        8D 0        0.00041   0.00000   0.00000   0.00136   0.00000
  61        8D+1        0.00000   0.00002   0.00032   0.00000  -0.00003
  62        8D-1       -0.00075   0.00000   0.00000  -0.00024   0.00000
  63        8D+2        0.00060   0.00000   0.00001   0.00192   0.00000
  64        8D-2        0.00000   0.00105   0.00224  -0.00001   0.00060
  65        9D 0       -0.00048   0.00000   0.00000   0.00144   0.00000
  66        9D+1        0.00000  -0.00153   0.00100   0.00000  -0.00118
  67        9D-1       -0.00333   0.00000   0.00001   0.00344   0.00000
  68        9D+2       -0.00159   0.00000  -0.00001  -0.00268   0.00000
  69        9D-2        0.00000   0.00162   0.00289  -0.00001   0.00113
  70 3   H  1S          0.03384  -0.05823  -0.13114   0.07610  -0.04046
  71        2S          0.03072  -0.05258  -0.13364   0.07731  -0.03986
  72        3S         -0.02884   0.04995   0.10314  -0.06015   0.00454
  73        4S          0.00289  -0.00502   0.01501  -0.00873   0.00094
  74        5PX         0.00321  -0.00344  -0.00818   0.00727  -0.00243
  75        5PY         0.00023   0.00319   0.00726   0.00017   0.00202
  76        5PZ        -0.00001   0.00002  -0.00242   0.00140   0.00015
  77        6PX         0.00041   0.00739   0.01184   0.00097   0.00514
  78        6PY         0.00784   0.00034   0.00105   0.01306  -0.00080
  79        6PZ         0.00142  -0.00240   0.00036  -0.00022  -0.00100
  80        7PX        -0.00202   0.01282   0.03748  -0.01415   0.00797
  81        7PY         0.01050  -0.00211  -0.01389   0.02147  -0.00296
  82        7PZ        -0.00035   0.00050   0.00662  -0.00384   0.00259
  83        8D 0       -0.00021   0.00035   0.00117  -0.00068   0.00035
  84        8D+1        0.00033  -0.00056  -0.00010   0.00024  -0.00023
  85        8D-1       -0.00017   0.00033   0.00024   0.00018   0.00011
  86        8D+2        0.00095   0.00019   0.00014   0.00216   0.00004
  87        8D-2        0.00019   0.00071   0.00200   0.00013   0.00054
  88        9D 0        0.00031  -0.00048   0.00128  -0.00075  -0.00013
  89        9D+1        0.00077  -0.00288   0.00280  -0.00106  -0.00065
  90        9D-1       -0.00199   0.00078  -0.00103   0.00160  -0.00031
  91        9D+2        0.00086   0.00140   0.00241   0.00148   0.00096
  92        9D-2        0.00142  -0.00082  -0.00126   0.00240  -0.00052
  93 4   H  1S          0.03397   0.05815   0.13152   0.07544   0.04058
  94        2S          0.03084   0.05251   0.13402   0.07664   0.03998
  95        3S         -0.02895  -0.04989  -0.10344  -0.05963  -0.00456
  96        4S          0.00290   0.00502  -0.01506  -0.00866  -0.00094
  97        5PX        -0.00322  -0.00343  -0.00822  -0.00723  -0.00244
  98        5PY         0.00023  -0.00319  -0.00725   0.00021  -0.00202
  99        5PZ        -0.00001  -0.00002   0.00243   0.00139  -0.00015
 100        6PX        -0.00039   0.00739   0.01183  -0.00102   0.00514
 101        6PY         0.00784  -0.00035  -0.00099   0.01306   0.00082
 102        6PZ         0.00142   0.00240  -0.00037  -0.00022   0.00100
 103        7PX         0.00205   0.01282   0.03756   0.01396   0.00798
 104        7PY         0.01051   0.00209   0.01398   0.02140   0.00298
 105        7PZ        -0.00035  -0.00050  -0.00665  -0.00381  -0.00260
 106        8D 0       -0.00021  -0.00035  -0.00118  -0.00068  -0.00035
 107        8D+1       -0.00033  -0.00055  -0.00010  -0.00024  -0.00023
 108        8D-1       -0.00017  -0.00033  -0.00024   0.00018  -0.00011
 109        8D+2        0.00095  -0.00019  -0.00013   0.00216  -0.00003
 110        8D-2       -0.00019   0.00071   0.00200  -0.00015   0.00054
 111        9D 0        0.00031   0.00048  -0.00128  -0.00074   0.00013
 112        9D+1       -0.00078  -0.00288   0.00281   0.00105  -0.00064
 113        9D-1       -0.00199  -0.00078   0.00104   0.00159   0.00031
 114        9D+2        0.00085  -0.00141  -0.00240   0.00149  -0.00095
 115        9D-2       -0.00143  -0.00081  -0.00127  -0.00239  -0.00053
 116 5   Cl 1S         -0.00006   0.00000   0.00000   0.00000   0.00000
 117        2S          0.00023   0.00000   0.00000   0.00000   0.00000
 118        3S         -0.00049   0.00000   0.00000   0.00001   0.00000
 119        4S         -0.00007   0.00000   0.00000   0.00001   0.00000
 120        5S         -0.00033   0.00000   0.00000  -0.00003   0.00000
 121        6S         -0.00006   0.00000   0.00000   0.00005   0.00000
 122        7PX        -0.00001  -0.00879  -0.04358   0.00010   0.22359
 123        7PY        -0.00881   0.00001  -0.00010  -0.04362   0.00054
 124        7PZ         0.00004   0.00000   0.00001  -0.00007  -0.00004
 125        8PX         0.00003   0.02081   0.10298  -0.00025  -0.51150
 126        8PY         0.02087  -0.00002   0.00025   0.10309  -0.00124
 127        8PZ        -0.00008   0.00000  -0.00002   0.00019   0.00009
 128        9PX         0.00001   0.00966   0.04763  -0.00011  -0.24709
 129        9PY         0.00968  -0.00001   0.00011   0.04768  -0.00060
 130        9PZ        -0.00003   0.00000  -0.00001   0.00007   0.00005
 131       10PX         0.00001   0.01040   0.05574  -0.00013  -0.36768
 132       10PY         0.01039  -0.00001   0.00013   0.05582  -0.00089
 133       10PZ         0.00001   0.00000  -0.00001   0.00015   0.00007
 134       11PX         0.00000   0.00212   0.00339  -0.00001  -0.06215
 135       11PY         0.00213   0.00000   0.00001   0.00339  -0.00015
 136       11PZ         0.00003   0.00000   0.00000  -0.00001   0.00001
 137       12D 0        0.00002   0.00000   0.00000  -0.00001   0.00000
 138       12D+1        0.00000  -0.00188  -0.00618   0.00001   0.00022
 139       12D-1       -0.00189   0.00000  -0.00001  -0.00618   0.00000
 140       12D+2        0.00011   0.00000   0.00000   0.00055   0.00000
 141       12D-2        0.00000   0.00011   0.00054   0.00000   0.00024
 142       13D 0        0.00002   0.00000   0.00000  -0.00002   0.00000
 143       13D+1        0.00000  -0.00291  -0.01095   0.00003   0.00069
 144       13D-1       -0.00291   0.00000  -0.00003  -0.01096   0.00000
 145       13D+2        0.00032   0.00000   0.00000   0.00065   0.00000
 146       13D-2        0.00000   0.00032   0.00064   0.00000   0.00056
 147       14D 0        0.00001   0.00000   0.00000  -0.00003   0.00000
 148       14D+1        0.00000   0.00006   0.00005   0.00000   0.00336
 149       14D-1        0.00007   0.00000   0.00000   0.00004   0.00001
 150       14D+2       -0.00065   0.00000   0.00000  -0.00007   0.00000
 151       14D-2        0.00000  -0.00066  -0.00007   0.00000   0.00005
 152       15F 0        0.00000   0.00000   0.00000   0.00000   0.00000
 153       15F+1        0.00000   0.00088   0.00263  -0.00001  -0.00141
 154       15F-1        0.00089   0.00000   0.00001   0.00263   0.00000
 155       15F+2       -0.00011   0.00000   0.00000  -0.00034   0.00000
 156       15F-2        0.00000  -0.00011  -0.00034   0.00000  -0.00010
 157       15F+3        0.00000   0.00000   0.00000   0.00000   0.00000
 158       15F-3        0.00000   0.00000   0.00000   0.00000   0.00000
 159       16F 0        0.00000   0.00000   0.00000   0.00000   0.00000
 160       16F+1        0.00000   0.00059   0.00201   0.00000  -0.00179
 161       16F-1        0.00059   0.00000   0.00000   0.00201   0.00000
 162       16F+2        0.00001   0.00000   0.00000   0.00019   0.00000
 163       16F-2        0.00000   0.00002   0.00019   0.00000  -0.00020
 164       16F+3        0.00000   0.00000   0.00000   0.00000   0.00000
 165       16F-3        0.00000   0.00000   0.00000   0.00000   0.00000
 166 6   F  1S         -0.00004   0.00000   0.00000  -0.00010   0.00000
 167        2S          0.00008   0.00000   0.00000   0.00026   0.00000
 168        3S          0.00003   0.00000   0.00000   0.00009   0.00000
 169        4S          0.00014   0.00000   0.00000   0.00033   0.00000
 170        5S          0.00009   0.00000   0.00000   0.00026   0.00000
 171        6PX         0.00040   0.33232  -0.16172   0.00039  -0.02257
 172        6PY         0.33207  -0.00040  -0.00039  -0.16222  -0.00006
 173        6PZ        -0.00250  -0.00005   0.00003   0.00055  -0.00001
 174        7PX         0.00047   0.39642  -0.19176   0.00046  -0.02672
 175        7PY         0.39612  -0.00048  -0.00046  -0.19234  -0.00007
 176        7PZ        -0.00297  -0.00006   0.00003   0.00064  -0.00001
 177        8PX         0.00038   0.32050  -0.16129   0.00038  -0.02287
 178        8PY         0.32025  -0.00038  -0.00039  -0.16181  -0.00006
 179        8PZ        -0.00234  -0.00005   0.00003   0.00068  -0.00001
 180        9PX         0.00012   0.10076  -0.05688   0.00014  -0.01114
 181        9PY         0.10066  -0.00012  -0.00014  -0.05706  -0.00003
 182        9PZ        -0.00072  -0.00002   0.00001   0.00034   0.00000
 183       10D 0       -0.00001   0.00000   0.00000  -0.00001   0.00000
 184       10D+1        0.00000   0.00060   0.00009   0.00000   0.00012
 185       10D-1        0.00060   0.00000   0.00000   0.00009   0.00000
 186       10D+2        0.00002   0.00000   0.00000   0.00004   0.00000
 187       10D-2        0.00000   0.00003   0.00004   0.00000   0.00001
 188       11D 0       -0.00002   0.00000   0.00000  -0.00002   0.00000
 189       11D+1        0.00000   0.00242   0.00122   0.00000   0.00059
 190       11D-1        0.00242   0.00000   0.00000   0.00122   0.00000
 191       11D+2        0.00004   0.00000   0.00000   0.00025   0.00000
 192       11D-2        0.00000   0.00006   0.00026   0.00000   0.00018
 193       12D 0       -0.00005   0.00000   0.00000   0.00004   0.00000
 194       12D+1        0.00001   0.00594  -0.00354   0.00001   0.00032
 195       12D-1        0.00593  -0.00001  -0.00001  -0.00357   0.00000
 196       12D+2        0.00001   0.00000   0.00000  -0.00026   0.00000
 197       12D-2        0.00000   0.00006  -0.00030   0.00000  -0.00036
 198       13F 0       -0.00001   0.00000   0.00000  -0.00001   0.00000
 199       13F+1        0.00000   0.00022   0.00025   0.00000   0.00006
 200       13F-1        0.00022   0.00000   0.00000   0.00025   0.00000
 201       13F+2        0.00005   0.00000   0.00000   0.00011   0.00000
 202       13F-2        0.00000   0.00006   0.00011   0.00000   0.00006
 203       13F+3        0.00000   0.00000   0.00000   0.00000   0.00000
 204       13F-3        0.00000   0.00000   0.00000   0.00000   0.00000
 205       14F 0       -0.00002   0.00000   0.00000   0.00002   0.00000
 206       14F+1        0.00000   0.00146  -0.00086   0.00000   0.00002
 207       14F-1        0.00145   0.00000   0.00000  -0.00088   0.00000
 208       14F+2       -0.00014   0.00000   0.00000  -0.00023   0.00000
 209       14F-2        0.00000  -0.00012  -0.00025   0.00000  -0.00016
 210       14F+3        0.00000   0.00000   0.00000   0.00000   0.00000
 211       14F-3        0.00000   0.00000   0.00000   0.00000   0.00000
                          16        17        18        19        20
     Eigenvalues --     1.94911   1.94880   1.93535   0.06018   0.02495
   1 1   C  1S         -0.00144   0.05332  -0.01580  -0.02406   0.00077
   2        2S          0.00408  -0.15180   0.05098   0.06679  -0.00291
   3        3S          0.00095  -0.03583   0.01676   0.02431  -0.00171
   4        4S          0.00818  -0.29219   0.08713  -0.22169   0.00712
   5        5S          0.00162  -0.05762   0.03919  -0.02903   0.00121
   6        6PX        -0.00017  -0.00001  -0.00002   0.00005   0.00011
   7        6PY         0.06800   0.00239  -0.00016   0.00018   0.15570
   8        6PZ         0.00121  -0.04567  -0.12871   0.27936  -0.00012
   9        7PX        -0.00023  -0.00001  -0.00003   0.00008   0.00021
  10        7PY         0.09452   0.00327  -0.00022   0.00064   0.28910
  11        7PZ         0.00172  -0.06472  -0.18059   0.44329  -0.00030
  12        8PX        -0.00018  -0.00001  -0.00001   0.00004   0.00009
  13        8PY         0.07279   0.00223   0.00000   0.00050   0.13220
  14        8PZ         0.00160  -0.06419  -0.07659   0.20175  -0.00054
  15        9PX        -0.00003   0.00000   0.00000   0.00000   0.00002
  16        9PY         0.01226   0.00040  -0.00001  -0.00007   0.02959
  17        9PZ         0.00001  -0.00123  -0.00166  -0.00006   0.00023
  18       10D 0       -0.00025   0.00935  -0.01106  -0.00881  -0.00013
  19       10D+1        0.00001   0.00000   0.00000   0.00000   0.00002
  20       10D-1       -0.00373  -0.00008  -0.00002  -0.00004   0.02553
  21       10D+2        0.00502   0.00018  -0.00001   0.00002   0.00369
  22       10D-2       -0.00001   0.00000   0.00000   0.00000   0.00001
  23       11D 0       -0.00137   0.04982  -0.04570   0.06671  -0.00160
  24       11D+1        0.00003   0.00002  -0.00001   0.00002   0.00003
  25       11D-1       -0.01547  -0.00009  -0.00013  -0.00012   0.05996
  26       11D+2        0.01707   0.00049  -0.00002   0.00031   0.06990
  27       11D-2       -0.00005   0.00000   0.00000   0.00000   0.00003
  28       12D 0       -0.00075   0.02815  -0.00380  -0.01696   0.00007
  29       12D+1       -0.00001   0.00001   0.00000  -0.00001   0.00001
  30       12D-1        0.00113   0.00017  -0.00004  -0.00014   0.01886
  31       12D+2        0.01009   0.00020   0.00002   0.00018   0.01480
  32       12D-2       -0.00003   0.00000   0.00000   0.00000   0.00001
  33       13F 0        0.00006  -0.00208  -0.00328  -0.00586   0.00005
  34       13F+1        0.00001   0.00000   0.00000   0.00000  -0.00001
  35       13F-1       -0.00223  -0.00009  -0.00001  -0.00004  -0.00962
  36       13F+2       -0.00033   0.00001   0.00000  -0.00002   0.00319
  37       13F-2        0.00000   0.00000   0.00000   0.00000   0.00000
  38       13F+3        0.00000   0.00000   0.00000   0.00000   0.00000
  39       13F-3        0.00009  -0.00308   0.00115  -0.00053   0.00006
  40       14F 0        0.00015  -0.00547  -0.00087   0.01161  -0.00028
  41       14F+1        0.00002   0.00000   0.00000   0.00001   0.00000
  42       14F-1       -0.00725  -0.00031   0.00003   0.00003  -0.00269
  43       14F+2       -0.00324   0.00002  -0.00003  -0.00007  -0.00214
  44       14F-2        0.00001   0.00000   0.00000   0.00001   0.00000
  45       14F+3        0.00000  -0.00001   0.00000  -0.00001   0.00000
  46       14F-3        0.00043  -0.01509   0.00917  -0.03771   0.00094
  47 2   H  1S         -0.04586  -0.03541   0.02890  -0.00699   0.04212
  48        2S         -0.04600  -0.00493   0.02287   0.08044   0.26008
  49        3S          0.00484   0.02178   0.02048   0.06971   0.16411
  50        4S          0.00108   0.00010   0.00194   0.00738   0.07213
  51        5PX         0.00000   0.00000   0.00000   0.00000   0.00000
  52        5PY        -0.00354  -0.00228   0.00249  -0.00202  -0.00885
  53        5PZ         0.00025  -0.00268  -0.00321   0.01432  -0.01222
  54        6PX        -0.00001   0.00000   0.00000   0.00001   0.00001
  55        6PY         0.00545   0.00567  -0.00153   0.01005   0.05923
  56        6PZ        -0.00117  -0.00088  -0.01029   0.02807  -0.00562
  57        7PX        -0.00001   0.00000   0.00000   0.00000   0.00001
  58        7PY         0.00944   0.01147  -0.00161   0.01285   0.05026
  59        7PZ         0.00266   0.00820   0.00319  -0.01407   0.00533
  60        8D 0        0.00040   0.00015  -0.00085   0.00061   0.00257
  61        8D+1        0.00000   0.00000   0.00000   0.00000   0.00000
  62        8D-1       -0.00029  -0.00019  -0.00171   0.00671  -0.00396
  63        8D+2        0.00051   0.00054  -0.00061   0.00184   0.00263
  64        8D-2        0.00000   0.00000   0.00000   0.00000   0.00000
  65        9D 0       -0.00018   0.00080  -0.00283   0.00600  -0.00383
  66        9D+1        0.00000   0.00000   0.00000   0.00000   0.00001
  67        9D-1       -0.00051   0.00206  -0.00057  -0.00592   0.01558
  68        9D+2       -0.00111   0.00104   0.00035  -0.00117  -0.00959
  69        9D-2        0.00000   0.00000   0.00000   0.00000   0.00001
  70 3   H  1S          0.02441  -0.03297   0.02882  -0.00675  -0.01973
  71        2S          0.02314  -0.00221   0.02279   0.07979  -0.13045
  72        3S         -0.00339   0.02206   0.02023   0.06831  -0.08404
  73        4S         -0.00057   0.00013   0.00192   0.00714  -0.03614
  74        5PX         0.00207  -0.00178   0.00215  -0.00173   0.00501
  75        5PY        -0.00014   0.00106  -0.00124   0.00101   0.00000
  76        5PZ        -0.00002  -0.00267  -0.00321   0.01428   0.00610
  77        6PX        -0.00096   0.00475  -0.00133   0.00843  -0.02262
  78        6PY         0.00430  -0.00266   0.00076  -0.00477   0.02068
  79        6PZ         0.00061  -0.00106  -0.01029   0.02826   0.00261
  80        7PX        -0.00330   0.00947  -0.00142   0.01100  -0.02296
  81        7PY         0.00471  -0.00542   0.00084  -0.00628   0.01170
  82        7PZ        -0.00171   0.00801   0.00316  -0.01397  -0.00268
  83        8D 0       -0.00021   0.00014  -0.00085   0.00060  -0.00128
  84        8D+1        0.00012  -0.00018  -0.00148   0.00583   0.00250
  85        8D-1       -0.00010   0.00010   0.00085  -0.00337   0.00036
  86        8D+2        0.00059  -0.00024   0.00030  -0.00093   0.00224
  87        8D-2        0.00002   0.00045  -0.00053   0.00162  -0.00016
  88        9D 0        0.00005   0.00085  -0.00282   0.00595   0.00138
  89        9D+1       -0.00036   0.00172  -0.00047  -0.00507  -0.00478
  90        9D-1       -0.00097  -0.00102   0.00025   0.00295   0.00720
  91        9D+2        0.00059  -0.00053  -0.00018   0.00058  -0.00158
  92        9D-2        0.00093   0.00097   0.00031  -0.00095   0.00463
  93 4   H  1S          0.02421  -0.03297   0.02882  -0.00675  -0.01977
  94        2S          0.02293  -0.00221   0.02279   0.07979  -0.13072
  95        3S         -0.00337   0.02206   0.02023   0.06832  -0.08421
  96        4S         -0.00056   0.00013   0.00192   0.00714  -0.03622
  97        5PX        -0.00206   0.00178  -0.00215   0.00174  -0.00501
  98        5PY        -0.00013   0.00106  -0.00124   0.00101   0.00000
  99        5PZ        -0.00002  -0.00267  -0.00321   0.01428   0.00612
 100        6PX         0.00094  -0.00475   0.00133  -0.00843   0.02268
 101        6PY         0.00430  -0.00266   0.00076  -0.00477   0.02070
 102        6PZ         0.00060  -0.00106  -0.01029   0.02827   0.00261
 103        7PX         0.00326  -0.00947   0.00142  -0.01100   0.02301
 104        7PY         0.00470  -0.00542   0.00084  -0.00627   0.01172
 105        7PZ        -0.00170   0.00801   0.00316  -0.01397  -0.00269
 106        8D 0       -0.00021   0.00014  -0.00085   0.00060  -0.00128
 107        8D+1       -0.00012   0.00018   0.00148  -0.00583  -0.00251
 108        8D-1       -0.00010   0.00010   0.00085  -0.00337   0.00036
 109        8D+2        0.00059  -0.00024   0.00030  -0.00093   0.00224
 110        8D-2       -0.00002  -0.00045   0.00053  -0.00162   0.00016
 111        9D 0        0.00005   0.00085  -0.00282   0.00595   0.00138
 112        9D+1        0.00037  -0.00172   0.00047   0.00507   0.00479
 113        9D-1       -0.00097  -0.00102   0.00025   0.00295   0.00721
 114        9D+2        0.00059  -0.00053  -0.00018   0.00058  -0.00159
 115        9D-2       -0.00093  -0.00097  -0.00031   0.00096  -0.00463
 116 5   Cl 1S         -0.00027   0.01021   0.00050  -0.01679   0.00001
 117        2S          0.00105  -0.03896  -0.00167   0.05630  -0.00004
 118        3S         -0.00216   0.08052   0.01125  -0.15674   0.00012
 119        4S         -0.00033   0.01243   0.00452  -0.03986   0.00000
 120        5S         -0.00182   0.06904   0.01221  -0.04600   0.00006
 121        6S         -0.00058   0.02043  -0.01254   0.01584  -0.00023
 122        7PX        -0.00054   0.00000  -0.00004  -0.00003   0.00002
 123        7PY         0.22350   0.00609  -0.00002  -0.00004   0.02105
 124        7PZ        -0.00075   0.02661  -0.21013  -0.16341   0.00023
 125        8PX         0.00124   0.00000   0.00008   0.00006  -0.00002
 126        8PY        -0.51130  -0.01393   0.00004   0.00008  -0.03277
 127        8PZ         0.00174  -0.06215   0.46463   0.36066  -0.00060
 128        9PX         0.00060   0.00000   0.00004   0.00004  -0.00003
 129        9PY        -0.24699  -0.00674   0.00002   0.00005  -0.03499
 130        9PZ         0.00087  -0.03100   0.21829   0.20647  -0.00032
 131       10PX         0.00089   0.00000   0.00006   0.00001   0.00001
 132       10PY        -0.36751  -0.01006   0.00001   0.00004   0.01671
 133       10PZ         0.00198  -0.07217   0.31777   0.02931   0.00010
 134       11PX         0.00015   0.00000   0.00001   0.00000   0.00000
 135       11PY        -0.06212  -0.00176   0.00002   0.00009   0.00591
 136       11PZ         0.00065  -0.02399   0.04618   0.00728   0.00004
 137       12D 0        0.00013  -0.00472  -0.01240   0.06748  -0.00080
 138       12D+1        0.00000   0.00000   0.00000   0.00002  -0.00004
 139       12D-1        0.00022  -0.00002   0.00000   0.00006  -0.05789
 140       12D+2        0.00025   0.00001   0.00000   0.00000   0.00084
 141       12D-2        0.00000   0.00000   0.00000   0.00000  -0.00001
 142       13D 0        0.00021  -0.00754  -0.01943   0.09789  -0.00108
 143       13D+1        0.00000   0.00000  -0.00001   0.00003  -0.00006
 144       13D-1        0.00068  -0.00003   0.00002   0.00007  -0.08644
 145       13D+2        0.00056   0.00001   0.00000   0.00000   0.00132
 146       13D-2        0.00000   0.00000   0.00000   0.00000  -0.00001
 147       14D 0       -0.00004   0.00153  -0.01324   0.03015  -0.00012
 148       14D+1       -0.00001   0.00000   0.00000   0.00001  -0.00001
 149       14D-1        0.00334   0.00007   0.00003   0.00001  -0.00935
 150       14D+2        0.00008   0.00000   0.00000   0.00000   0.00025
 151       14D-2        0.00000   0.00000   0.00000   0.00000   0.00000
 152       15F 0       -0.00003   0.00098   0.00459  -0.00358   0.00004
 153       15F+1        0.00000   0.00000   0.00000   0.00000   0.00000
 154       15F-1       -0.00141  -0.00003   0.00000  -0.00001   0.00498
 155       15F+2       -0.00010  -0.00001   0.00000   0.00000  -0.00021
 156       15F-2        0.00000   0.00000   0.00000   0.00000   0.00000
 157       15F+3        0.00000   0.00000   0.00000   0.00000   0.00000
 158       15F-3        0.00000  -0.00007   0.00004   0.00004   0.00000
 159       16F 0       -0.00004   0.00137   0.00401   0.00164   0.00001
 160       16F+1        0.00000   0.00000   0.00000   0.00000   0.00000
 161       16F-1       -0.00179  -0.00003  -0.00001   0.00001   0.00025
 162       16F+2       -0.00021   0.00001   0.00000  -0.00001   0.00099
 163       16F-2        0.00000   0.00000   0.00000   0.00000   0.00000
[...]
  79        6PZ        -0.32438  -0.02933   0.06358  -0.16660  -0.08344
  80        7PX         0.87635  -9.86059  -0.61807  -1.72659  -4.75875
  81        7PY        -2.19180  -0.39795 -10.13269   1.08814  -0.76269
  82        7PZ        -1.23610  -2.90382   1.89043   0.00219  -0.40425
  83        8D 0       -0.03737   0.00884   0.00055   0.02534   0.00945
  84        8D+1        0.00922  -0.02915  -0.00912   0.00847   0.00906
  85        8D-1       -0.01134  -0.00815  -0.03690  -0.00456   0.00041
  86        8D+2        0.07623   0.05061   0.08110   0.02409   0.01172
  87        8D-2       -0.10075   0.03432   0.06507  -0.04262   0.03031
  88        9D 0       -0.51922   0.42036  -0.16017  -0.14908   0.13473
  89        9D+1       -0.17978  -0.05416   0.28481  -0.04029  -0.15820
  90        9D-1        0.16196   0.25825   0.22068   0.02062  -0.00107
  91        9D+2       -0.28302  -1.38944  -1.01606  -0.35131  -0.49908
  92        9D-2        0.00217   0.56106  -1.39941   0.63106  -0.12722
  93 4   H  1S         -0.03601  -0.00789   0.00038  -0.00918   0.01332
  94        2S          0.44629   2.95159   1.68541  -0.54153  -1.11395
  95        3S          9.23728  24.14991  12.71347  -3.36266 -13.01998
  96        4S          1.40609  -1.66423  -1.16675  -1.92881  -5.59540
  97        5PX        -0.02838   0.10766   0.00450  -0.08078  -0.07348
  98        5PY         0.00033   0.00102   0.10786  -0.04763   0.00945
  99        5PZ         0.05968   0.00845  -0.00373   0.03122   0.00535
 100        6PX        -0.59548  -2.15972  -0.30919   0.61115   0.80029
 101        6PY        -0.57002  -0.39759  -1.63800   0.36501  -0.05496
 102        6PZ        -0.32419   0.02987   0.06371  -0.16680  -0.08384
 103        7PX        -0.87276  -9.86050   0.60564   1.72662   4.76224
 104        7PY        -2.19194   0.41013 -10.13228   1.08770  -0.76008
 105        7PZ        -1.23725   2.90466   1.89330   0.00167  -0.40651
 106        8D 0       -0.03736  -0.00885   0.00053   0.02535   0.00947
 107        8D+1       -0.00926  -0.02915   0.00905  -0.00846  -0.00906
 108        8D-1       -0.01137   0.00818  -0.03687  -0.00457   0.00041
 109        8D+2        0.07631  -0.05065   0.08102   0.02410   0.01167
 110        8D-2        0.10070   0.03447  -0.06508   0.04260  -0.03033
 111        9D 0       -0.51915  -0.42041  -0.16043  -0.14910   0.13482
 112        9D+1        0.17964  -0.05458  -0.28454   0.04032   0.15861
 113        9D-1        0.16204  -0.25859   0.21999   0.02082  -0.00103
 114        9D+2       -0.28362   1.39064  -1.01394  -0.35159  -0.49885
 115        9D-2       -0.00222   0.55877   1.40058  -0.63086   0.12719
 116 5   Cl 1S          0.02006   0.00001  -0.00321   0.01177   0.00000
 117        2S          0.27745   0.00009  -0.04477   0.16377   0.00007
 118        3S          0.77374   0.00026  -0.12401   0.46013   0.00008
 119        4S         -0.04148  -0.00002   0.00784  -0.01474  -0.00012
 120        5S         -4.30941  -0.00144   0.68382  -3.02649   0.00073
 121        6S         -9.72090  -0.00305   1.45702 -13.25266  -0.00506
 122        7PX         0.00000   0.00074   0.00000   0.00000   0.00000
 123        7PY        -0.00001   0.00000   0.00084  -0.00010  -0.00299
 124        7PZ        -0.00456   0.00000   0.00052  -0.02274  -0.00002
 125        8PX        -0.00001   0.01800   0.00001  -0.00005  -0.00003
 126        8PY         0.00147  -0.00001   0.01865  -0.00097  -0.05933
 127        8PZ        -0.06441  -0.00002   0.00709  -0.31757  -0.00011
 128        9PX         0.00000  -0.00369   0.00000   0.00001   0.00001
 129        9PY        -0.00008   0.00000  -0.00413   0.00044   0.01006
 130        9PZ         0.00197   0.00000   0.00041   0.07963   0.00006
 131       10PX         0.00105  -0.06827  -0.00020   0.00090   0.00022
 132       10PY        -0.00021   0.00005  -0.06300  -0.00267   0.42303
 133       10PZ         5.85306   0.00190  -0.90203   5.08209  -0.00051
 134       11PX         0.00040  -1.15511  -0.00077   0.00059  -0.00013
 135       11PY        -0.17879   0.00072  -1.12857   0.00555  -0.25001
 136       11PZ         0.78696   0.00042  -0.10305   3.36042   0.00432
 137       12D 0        0.06740   0.00001  -0.01063   0.00182  -0.00007
 138       12D+1        0.00001   0.03079   0.00002   0.00000   0.00000
 139       12D-1        0.00488  -0.00002   0.03036  -0.00021  -0.00358
 140       12D+2       -0.00183   0.00001  -0.00769  -0.00002   0.01207
 141       12D-2        0.00000  -0.00750   0.00000   0.00000   0.00000
 142       13D 0       -0.38406  -0.00009   0.06065  -0.07056   0.00016
 143       13D+1       -0.00009  -0.11294  -0.00006  -0.00002   0.00002
 144       13D-1       -0.01801   0.00007  -0.11200   0.00107   0.02519
 145       13D+2        0.00454  -0.00002   0.01738   0.00003  -0.04362
 146       13D-2       -0.00001   0.01708  -0.00001   0.00000   0.00000
 147       14D 0       -1.37980  -0.00054   0.21037  -1.24214  -0.00002
 148       14D+1       -0.00049   0.30857   0.00027  -0.00038  -0.00021
 149       14D-1        0.04638  -0.00018   0.29922   0.00149  -0.32382
 150       14D+2       -0.00985   0.00007  -0.06076  -0.00021   0.20178
 151       14D-2        0.00003  -0.06768   0.00004   0.00000  -0.00003
 152       15F 0       -0.04261  -0.00002   0.00647   0.00122   0.00007
 153       15F+1       -0.00002   0.00449   0.00001   0.00000  -0.00001
 154       15F-1        0.00134   0.00000   0.00453   0.00032  -0.01832
 155       15F+2       -0.00110   0.00000  -0.00901   0.00018   0.01040
 156       15F-2        0.00000  -0.01027   0.00000  -0.00001   0.00000
 157       15F+3        0.00000  -0.00049   0.00000   0.00001   0.00000
 158       15F-3       -0.00921  -0.00001   0.00164   0.02294   0.00005
 159       16F 0        0.23099   0.00008  -0.03533   0.08906  -0.00007
 160       16F+1        0.00010  -0.01542  -0.00004   0.00004   0.00004
 161       16F-1       -0.00369   0.00000  -0.01424  -0.00120   0.06250
 162       16F+2        0.00603  -0.00002   0.04383  -0.00037  -0.04253
 163       16F-2       -0.00002   0.04748   0.00001   0.00001   0.00001
 164       16F+3        0.00001   0.00097   0.00001  -0.00002  -0.00001
 165       16F-3        0.01913   0.00002  -0.00341  -0.04285  -0.00011
 166 6   F  1S          0.03969   0.00001  -0.00647  -0.02259  -0.00014
 167        2S          0.13961   0.00005  -0.02285  -0.08578  -0.00056
 168        3S         -0.07116  -0.00002   0.01153   0.03662   0.00015
 169        4S         -0.37432  -0.00014   0.06394  -0.02112   0.00187
 170        5S         -0.05887   0.00001  -0.00485  -5.93553  -0.00134
 171        6PX         0.00000  -0.00727   0.00000   0.00000   0.00000
 172        6PY        -0.00122   0.00000  -0.00720   0.00000   0.00171
 173        6PZ         0.00534   0.00000  -0.00078   0.00222   0.00001
 174        7PX        -0.00002   0.03773   0.00003   0.00000   0.00000
 175        7PY         0.00596  -0.00002   0.03712   0.00023  -0.00619
 176        7PZ        -0.06299  -0.00003   0.00983   0.00265  -0.00004
 177        8PX         0.00017  -0.26531  -0.00019  -0.00004   0.00000
 178        8PY        -0.03854   0.00017  -0.25812  -0.00334   0.00131
 179        8PZ         0.62171   0.00025  -0.09932  -0.24702   0.00122
 180        9PX         0.00004  -0.84460  -0.00053  -0.00043  -0.00012
 181        9PY        -0.12390   0.00053  -0.82518  -0.01289  -0.23088
 182        9PZ        -0.85779  -0.00011   0.12478  -2.49214  -0.00018
 183       10D 0        0.01124   0.00001  -0.00169  -0.00797  -0.00001
 184       10D+1        0.00001  -0.01479  -0.00001   0.00000   0.00000
 185       10D-1       -0.00213   0.00001  -0.01461  -0.00008   0.00214
 186       10D+2        0.00101   0.00000   0.00513  -0.00001   0.00288
 187       10D-2        0.00000   0.00464   0.00000   0.00000   0.00000
 188       11D 0       -0.04157  -0.00003   0.00631   0.01569  -0.00002
 189       11D+1       -0.00002   0.04752   0.00004   0.00000   0.00000
 190       11D-1        0.00682  -0.00003   0.04697   0.00022  -0.00368
 191       11D+2       -0.00350   0.00001  -0.01738   0.00003  -0.01020
 192       11D-2        0.00001  -0.01571   0.00000   0.00000   0.00000
 193       12D 0        0.41152   0.00018  -0.06582  -0.01118   0.00056
 194       12D+1        0.00015  -0.13975  -0.00012   0.00000  -0.00002
 195       12D-1       -0.01793   0.00008  -0.13500  -0.00146  -0.03222
 196       12D+2        0.01219  -0.00004   0.06454  -0.00029   0.01962
 197       12D-2       -0.00002   0.05924   0.00000   0.00000   0.00000
 198       13F 0       -0.02704   0.00000   0.00442  -0.00760  -0.00012
 199       13F+1       -0.00001  -0.01860  -0.00001   0.00000   0.00000
 200       13F-1       -0.00319   0.00001  -0.01851  -0.00029   0.00808
 201       13F+2       -0.00143   0.00000  -0.00906  -0.00007   0.00255
 202       13F-2        0.00000  -0.00904  -0.00001   0.00000   0.00000
 203       13F+3        0.00000   0.00046   0.00000   0.00000   0.00000
 204       13F-3        0.01261   0.00000  -0.00168  -0.00138  -0.00005
 205       14F 0        0.06730   0.00001  -0.01112   0.01182   0.00019
 206       14F+1        0.00002   0.03989   0.00002   0.00000  -0.00001
 207       14F-1        0.00703  -0.00003   0.04027   0.00028  -0.01798
 208       14F+2        0.00383   0.00001   0.02508   0.00004  -0.00623
 209       14F-2        0.00000   0.02514   0.00002   0.00000  -0.00001
 210       14F+3       -0.00001  -0.00086   0.00000   0.00000   0.00000
 211       14F-3       -0.01699   0.00000   0.00224   0.00261   0.00002
                         211
     Eigenvalues --     0.00000
   1 1   C  1S          0.00000
   2        2S          0.00000
   3        3S          0.00000
   4        4S          0.00003
   5        5S          0.00007
   6        6PX         0.00738
   7        6PY         0.00000
   8        6PZ         0.00000
   9        7PX        -1.53156
  10        7PY         0.00080
  11        7PZ         0.00027
  12        8PX       -17.35014
  13        8PY         0.00915
  14        8PZ         0.00308
  15        9PX        -7.88600
  16        9PY         0.00417
  17        9PZ         0.00140
  18       10D 0        0.00000
  19       10D+1        0.00167
  20       10D-1        0.00000
  21       10D+2        0.00000
  22       10D-2       -0.02182
  23       11D 0       -0.00006
  24       11D+1        0.20820
  25       11D-1       -0.00004
  26       11D+2        0.00009
  27       11D-2       -0.41303
  28       12D 0       -0.00041
  29       12D+1        1.27984
  30       12D-1       -0.00077
  31       12D+2        0.00015
  32       12D-2        0.55410
  33       13F 0        0.00002
  34       13F+1       -0.03851
  35       13F-1        0.00002
  36       13F+2       -0.00001
  37       13F-2       -0.00929
  38       13F+3        0.00005
  39       13F-3        0.00000
  40       14F 0       -0.00018
  41       14F+1        0.40470
  42       14F-1       -0.00024
  43       14F+2        0.00010
  44       14F-2        0.07863
  45       14F+3       -0.00055
  46       14F-3        0.00001
  47 2   H  1S         -0.00001
  48        2S          0.00088
  49        3S          0.01033
  50        4S          0.00447
  51        5PX        -0.05182
  52        5PY        -0.00004
  53        5PZ         0.00001
  54        6PX         0.51593
  55        6PY         0.00046
  56        6PZ        -0.00003
  57        7PX         3.48071
  58        7PY         0.00252
  59        7PZ        -0.00029
  60        8D 0       -0.00001
  61        8D+1       -0.00572
  62        8D-1        0.00000
  63        8D+2       -0.00002
  64        8D-2       -0.02914
  65        9D 0       -0.00013
  66        9D+1        0.09244
  67        9D-1        0.00000
  68        9D+2        0.00005
  69        9D-2        0.57077
  70 3   H  1S          0.02316
  71        2S         -1.92191
  72        3S        -22.50134
  73        4S         -9.68391
  74        5PX         0.07475
  75        5PY        -0.07316
  76        5PZ         0.00911
  77        6PX        -0.86036
  78        6PY         0.79524
  79        6PZ        -0.14481
  80        7PX        -4.72287
  81        7PY         4.73656
  82        7PZ        -0.71398
  83        8D 0        0.01642
  84        8D+1        0.01028
  85        8D-1       -0.00927
  86        8D+2       -0.03017
  87        8D-2        0.02309
  88        9D 0        0.22884
  89        9D+1       -0.18249
  90        9D-1        0.15910
  91        9D+2        0.12831
  92        9D-2        0.34875
  93 4   H  1S         -0.02315
  94        2S          1.92104
  95        3S         22.49091
  96        4S          9.67940
  97        5PX         0.07471
  98        5PY         0.07315
  99        5PZ        -0.00914
 100        6PX        -0.85988
 101        6PY        -0.79507
 102        6PZ         0.14505
 103        7PX        -4.72001
 104        7PY        -4.73596
 105        7PZ         0.71534
 106        8D 0       -0.01642
 107        8D+1        0.01025
 108        8D-1        0.00925
 109        8D+2        0.03020
 110        8D-2        0.02306
 111        9D 0       -0.22862
 112        9D+1       -0.18250
 113        9D-1       -0.15918
 114        9D+2       -0.12860
 115        9D-2        0.34887
 116 5   Cl 1S          0.00000
 117        2S          0.00000
 118        3S          0.00000
 119        4S          0.00000
 120        5S          0.00001
 121        6S          0.00000
 122        7PX         0.00296
 123        7PY         0.00000
 124        7PZ         0.00000
 125        8PX         0.05915
 126        8PY        -0.00003
 127        8PZ        -0.00001
 128        9PX        -0.00994
 129        9PY         0.00001
 130        9PZ         0.00000
 131       10PX        -0.42150
 132       10PY         0.00022
 133       10PZ         0.00007
 134       11PX         0.24787
 135       11PY        -0.00013
 136       11PZ        -0.00004
 137       12D 0        0.00000
 138       12D+1        0.00364
 139       12D-1        0.00000
 140       12D+2        0.00000
 141       12D-2       -0.01224
 142       13D 0        0.00001
 143       13D+1       -0.02551
 144       13D-1        0.00001
 145       13D+2       -0.00001
 146       13D-2        0.04410
 147       14D 0       -0.00010
 148       14D+1        0.32473
 149       14D-1       -0.00014
 150       14D+2        0.00009
 151       14D-2       -0.20161
 152       15F 0       -0.00001
 153       15F+1        0.01857
 154       15F-1       -0.00001
 155       15F+2        0.00001
 156       15F-2       -0.01032
 157       15F+3        0.00002
 158       15F-3        0.00000
 159       16F 0        0.00003
 160       16F+1       -0.06317
 161       16F-1        0.00002
 162       16F+2       -0.00002
 163       16F-2        0.04232
 164       16F+3       -0.00005
 165       16F-3        0.00001
 166 6   F  1S          0.00000
 167        2S          0.00000
 168        3S          0.00000
 169        4S          0.00000
 170        5S          0.00001
 171        6PX        -0.00168
 172        6PY         0.00000
 173        6PZ         0.00000
 174        7PX         0.00606
 175        7PY         0.00000
 176        7PZ         0.00000
 177        8PX        -0.00107
 178        8PY         0.00000
 179        8PZ         0.00000
 180        9PX         0.22995
 181        9PY        -0.00012
 182        9PZ        -0.00004
 183       10D 0        0.00000
 184       10D+1       -0.00224
 185       10D-1        0.00000
 186       10D+2        0.00000
 187       10D-2       -0.00282
 188       11D 0        0.00000
 189       11D+1        0.00389
 190       11D-1        0.00000
 191       11D+2        0.00000
 192       11D-2        0.00996
 193       12D 0       -0.00001
 194       12D+1        0.03122
 195       12D-1       -0.00001
 196       12D+2        0.00001
 197       12D-2       -0.01855
 198       13F 0        0.00000
 199       13F+1       -0.00805
 200       13F-1        0.00001
 201       13F+2        0.00000
 202       13F-2       -0.00278
 203       13F+3       -0.00005
 204       13F-3        0.00000
 205       14F 0       -0.00001
 206       14F+1        0.01775
 207       14F-1       -0.00001
 208       14F+2        0.00000
 209       14F-2        0.00664
 210       14F+3        0.00006
 211       14F-3        0.00000
          Condensed to atoms (all electrons):
              1          2          3          4          5          6
     1  C    7.012161  -0.008826  -0.009475  -0.009476  -0.050896  -0.099828
     2  H   -0.008826   0.546775   0.020064   0.020064  -0.018957   0.003751
     3  H   -0.009475   0.020064   0.547219   0.020088  -0.018631   0.004626
     4  H   -0.009476   0.020064   0.020088   0.547218  -0.018632   0.004624
     5  Cl  -0.050896  -0.018957  -0.018631  -0.018632  17.709233   0.026399
     6  F   -0.099828   0.003751   0.004626   0.004624   0.026399   9.907604
 Mulliken atomic charges:
              1
     1  C   -0.833660
     2  H    0.437129
     3  H    0.436110
     4  H    0.436112
     5  Cl  -0.628515
     6  F   -0.847176
 Sum of Mulliken atomic charges =  -1.00000
 Mulliken charges with hydrogens summed into heavy atoms:
              1
     1  C    0.475691
     5  Cl  -0.628515
     6  F   -0.847176
 Sum of Mulliken charges with hydrogens summed into heavy atoms =  -1.00000
 Electronic spatial extent (au):  <R**2>=            490.3187
 Charge=             -1.0000 electrons
 Dipole moment (field-independent basis, Debye):
    X=             -0.0006    Y=              0.0355    Z=              4.0664  Tot=              4.0665
 Quadrupole moment (field-independent basis, Debye-Ang):
   XX=            -28.1817   YY=            -28.1815   ZZ=            -62.8204
   XY=              0.0000   XZ=             -0.0050   YZ=             -0.1162
 Traceless Quadrupole moment (field-independent basis, Debye-Ang):
   XX=             11.5462   YY=             11.5463   ZZ=            -23.0926
   XY=              0.0000   XZ=             -0.0050   YZ=             -0.1162
 Octapole moment (field-independent basis, Debye-Ang**2):
  XXX=             -0.0244  YYY=             -0.7767  ZZZ=             49.6896  XYY=             -0.0086
  XXY=              1.0066  XXZ=             -4.2352  XZZ=             -0.0066  YZZ=              0.3344
  YYZ=             -4.2351  XYZ=             -0.0002
 Hexadecapole moment (field-independent basis, Debye-Ang**3):
 XXXX=            -41.2685 YYYY=            -41.2706 ZZZZ=           -761.6437 XXXY=              0.0003
 XXXZ=             -0.0507 YYYX=             -0.0002 YYYZ=             -0.0272 ZZZX=             -0.0657
 ZZZY=             -1.4071 XXYY=            -13.7581 XXZZ=           -103.3862 YYZZ=           -103.3896
 XXYZ=             -0.8578 YYXZ=             -0.0166 ZZXY=              0.0002
 N-N= 8.498396824586D+01 E-N=-1.604179915026D+03  KE= 5.991954481785D+02
 1\1\GINC-TRAPISTA\SP\RQCISD-FC\Aug-CC-pVTZ\C1H3Cl1F1(1-)\BRUNS\24-Aug-
 2020\0\\# QCISD aug-cc-pvtz nosymm density=current output=wfn\\clch3f_
 ts-wavefunction\\-1,1\C,0,0.000175,0.000029,-0.497709\H,0,0.000019,-1.
 05257,-0.620726\H,0,-0.911312,0.526365,-0.621245\H,0,0.91175,0.526132,
 -0.62157\Cl,0,0.000555,0.000962,1.644718\F,0,-0.000186,-0.010921,-2.59
 3468\\Version=EM64L-G09RevB.01\HF=-598.617123\MP2=-599.2912656\MP3=-59
 9.3099666\MP4D=-599.324857\MP4DQ=-599.3104182\MP4SDQ=-599.3197844\QCIS
 D=-599.3191665\RMSD=9.411e-09\Dipole=0.0002718,0.0095643,1.5873642\Qua
 drupole=8.5843326,8.5844185,-17.1687512,-0.0000084,-0.0036922,-0.08640
 84\PG=C01 [X(C1H3Cl1F1)]\\@

 Writing a WFN file to GAUSSIAN.wfn.


      SCIENCE SANS CONSCIENCE N'EST QUE RUINE DE L'AME.

                                                  -- RABELAIS
 Job cpu time:  0 days  3 hours  6 minutes 10.2 seconds.
 File lengths (MBytes):  RWF=  29002 Int=      0 D2E=      0 Chk=      4 Scr=      1
 Normal termination of Gaussian 09 at Mon Aug 24 13:06:05 2020.
