 Entering Gaussian System, Link 0=/home/bruns/programas/chemistry/gaussian/g09/g09
 Input=GAUSSIAN.com
 Output=GAUSSIAN.log
 Initial command:
 /home/bruns/programas/chemistry/gaussian/g09/l1.exe /home/bruns/programas/chemistry/gaussian/work/Gau-4320.inp -scrdir=/home/bruns/programas/chemistry/gaussian/work/
 Entering Link 1 = /home/bruns/programas/chemistry/gaussian/g09/l1.exe PID=      4322.
  
 Copyright (c) 1988,1990,1992,1993,1995,1998,2003,2009,2010,
            Gaussian, Inc.  All Rights Reserved.
  
 This is part of the Gaussian(R) 09 program.  It is based on
 the Gaussian(R) 03 system (copyright 2003, Gaussian, Inc.),
 the Gaussian(R) 98 system (copyright 1998, Gaussian, Inc.),
 the Gaussian(R) 94 system (copyright 1995, Gaussian, Inc.),
 the Gaussian 92(TM) system (copyright 1992, Gaussian, Inc.),
 the Gaussian 90(TM) system (copyright 1990, Gaussian, Inc.),
 the Gaussian 88(TM) system (copyright 1988, Gaussian, Inc.),
 the Gaussian 86(TM) system (copyright 1986, Carnegie Mellon
 University), and the Gaussian 82(TM) system (copyright 1983,
 Carnegie Mellon University). Gaussian is a federally registered
 trademark of Gaussian, Inc.
  
 This software contains proprietary and confidential information,
 including trade secrets, belonging to Gaussian, Inc.
  
 This software is provided under written license and may be
 used, copied, transmitted, or stored only in accord with that
 written license.
  
 The following legend is applicable only to US Government
 contracts under FAR:
  
                    RESTRICTED RIGHTS LEGEND
  
 Use, reproduction and disclosure by the US Government is
 subject to restrictions as set forth in subparagraphs (a)
 and (c) of the Commercial Computer Software - Restricted
 Rights clause in FAR 52.227-19.
  
 Gaussian, Inc.
 340 Quinnipiac St., Bldg. 40, Wallingford CT 06492
  
  
 ---------------------------------------------------------------
 Warning -- This program may not be used in any manner that
 competes with the business of Gaussian, Inc. or will provide
 assistance to any competitor of Gaussian, Inc.  The licensee
 of this program is prohibited from giving any competitor of
 Gaussian, Inc. access to this program.  By using this program,
 the user acknowledges that Gaussian, Inc. is engaged in the
 business of creating and licensing software in the field of
 computational chemistry and represents and warrants to the
 licensee that it is not a competitor of Gaussian, Inc. and that
 it will not use this program in any manner prohibited above.
 ---------------------------------------------------------------
  

 Cite this work as:
 Gaussian 09, Revision B.01,
 M. J. Frisch, G. W. Trucks, H. B. Schlegel, G. E. Scuseria, 
 M. A. Robb, J. R. Cheeseman, G. Scalmani, V. Barone, B. Mennucci, 
 G. A. Petersson, H. Nakatsuji, M. Caricato, X. Li, H. P. Hratchian, 
 A. F. Izmaylov, J. Bloino, G. Zheng, J. L. Sonnenberg, M. Hada, 
 M. Ehara, K. Toyota, R. Fukuda, J. Hasegawa, M. Ishida, T. Nakajima, 
 Y. Honda, O. Kitao, H. Nakai, T. Vreven, J. A. Montgomery, Jr., 
 J. E. Peralta, F. Ogliaro, M. Bearpark, J. J. Heyd, E. Brothers, 
 K. N. Kudin, V. N. Staroverov, T. Keith, R. Kobayashi, J. Normand, 
 K. Raghavachari, A. Rendell, J. C. Burant, S. S. Iyengar, J. Tomasi, 
 M. Cossi, N. Rega, J. M. Millam, M. Klene, J. E. Knox, J. B. Cross, 
 V. Bakken, C. Adamo, J. Jaramillo, R. Gomperts, R. E. Stratmann, 
 O. Yazyev, A. J. Austin, R. Cammi, C. Pomelli, J. W. Ochterski, 
 R. L. Martin, K. Morokuma, V. G. Zakrzewski, G. A. Voth, 
 P. Salvador, J. J. Dannenberg, S. Dapprich, A. D. Daniels, 
 O. Farkas, J. B. Foresman, J. V. Ortiz, J. Cioslowski, 
 and D. J. Fox, Gaussian, Inc., Wallingford CT, 2010.
 
 ******************************************
 Gaussian 09:  EM64L-G09RevB.01 12-Aug-2010
                24-Aug-2020 
 ******************************************
 %nproc=8
 Will use up to    8 processors via shared memory.
 %mem=8GB
 -----------------------------------------------------
 # QCISD aug-cc-pvtz nosymm density=current output=wfn
 -----------------------------------------------------
 1/30=1,38=1/1;
 2/12=2,15=1,17=6,18=5,40=1/2;
 3/5=16,6=1,7=10,11=9,16=1,25=1,30=1,71=1/1,2,3;
 4//1;
 5/5=2,38=5/2;
 8/6=4,9=120000,10=1/1,4;
 9/5=8,15=1/13;
 11/28=-7,31=1,32=3,42=3/11;
 10/5=6,13=10,31=1/2;
 6/7=2,8=2,9=2,10=2,22=-1,31=1/1;
 99/5=1,6=1100,9=1/99;
 ----------------------
 clch3f_ts-wavefunction
 ----------------------
 Symbolic Z-matrix:
 Charge = -1 Multiplicity = 1
 C                     0.00018   0.00003  -0.49771 
 H                     0.00002  -1.05257  -0.62073 
 H                    -0.91131   0.52637  -0.62125 
 H                     0.91175   0.52613  -0.62157 
 Cl                    0.00056   0.00096   1.63472 
 F                    -0.00019  -0.00092  -2.59347 
 
                          Input orientation:                          
 ---------------------------------------------------------------------
 Center     Atomic      Atomic             Coordinates (Angstroms)
 Number     Number       Type             X           Y           Z
 ---------------------------------------------------------------------
      1          6           0        0.000175    0.000029   -0.497709
      2          1           0        0.000019   -1.052570   -0.620726
      3          1           0       -0.911312    0.526365   -0.621245
      4          1           0        0.911750    0.526132   -0.621570
      5         17           0        0.000555    0.000962    1.634718
      6          9           0       -0.000186   -0.000921   -2.593468
 ---------------------------------------------------------------------
                    Distance matrix (angstroms):
                    1          2          3          4          5
     1  C    0.000000
     2  H    1.059763   0.000000
     3  H    1.059764   1.823063   0.000000
     4  H    1.059762   1.823062   1.823062   0.000000
     5  Cl   2.132427   2.489369   2.489361   2.489360   0.000000
     6  F    2.095759   2.235548   2.235586   2.235575   4.228186
                    6
     6  F    0.000000
 Symmetry turned off by external request.
 This structure is nearly, but not quite of a higher symmetry.
 Consider Symm=Loose if the higher symmetry is desired.
 Stoichiometry    CH3ClF(1-)
 Framework group  C1[X(CH3ClF)]
 Deg. of freedom    12
 Full point group                 C1      NOp   1
 Rotational constants (GHZ):    150.8790651      2.2258871      2.2258871
 Standard basis: Aug-CC-pVTZ (5D, 7F)
 Integral buffers will be    131072 words long.
 Raffenetti 1 integral format.
 Two-electron integral symmetry is turned off.
   211 basis functions,   339 primitive gaussians,   244 cartesian basis functions
    18 alpha electrons       18 beta electrons
       nuclear repulsion energy        85.1869464228 Hartrees.
 NAtoms=    6 NActive=    6 NUniq=    6 SFac= 1.00D+00 NAtFMM=   50 NAOKFM=F Big=F
 One-electron integrals computed using PRISM.
 NBasis=   211 RedAO= T  NBF=   211
 NBsUse=   211 1.00D-06 NBFU=   211
 Harris functional with IExCor=  205 diagonalized for initial guess.
 ExpMin= 2.53D-02 ExpMax= 4.56D+05 ExpMxC= 1.44D+03 IAcc=3 IRadAn=         0 AccDes= 0.00D+00
 HarFok:  IExCor=  205 AccDes= 0.00D+00 IRadAn=         0 IDoV= 1
 ScaDFX=  1.000000  1.000000  1.000000  1.000000
 FoFCou: FMM=F IPFlag=           0 FMFlag=      100000 FMFlg1=           0
         NFxFlg=           0 DoJE=T BraDBF=F KetDBF=T FulRan=T
         Omega=  0.000000  0.000000  1.000000  0.000000  0.000000 ICntrl=     500 IOpCl=  0
         NMat0=    1 NMatS0=    1 NMatT0=    0 NMatD0=    1 NMtDS0=    0 NMtDT0=    0
         I1Cent=           4 NGrid=           0.
 Symmetry not used in FoFCou.
 Requested convergence on RMS density matrix=1.00D-08 within 128 cycles.
 Requested convergence on MAX density matrix=1.00D-06.
 Requested convergence on             energy=1.00D-06.
 No special actions if energy rises.
 Keep R1 ints in memory in canonical form, NReq=454274131.
 DSYEVD returned Info=         423 IAlg= 4 N=   211 NDim=   211 NE2=     2970790 trying DSYEV.
 SCF Done:  E(RHF) =  -598.617114328     A.U. after   12 cycles
             Convg  =    0.9258D-08             -V/T =  2.0001
 ExpMin= 2.53D-02 ExpMax= 4.56D+05 ExpMxC= 1.44D+03 IAcc=3 IRadAn=         5 AccDes= 0.00D+00
 HarFok:  IExCor=  205 AccDes= 0.00D+00 IRadAn=         5 IDoV=-2
 ScaDFX=  1.000000  1.000000  1.000000  1.000000
 DSYEVD returned Info=         101 IAlg= 4 N=    50 NDim=    50 NE2=    21472034 trying DSYEV.
 Range of M.O.s used for correlation:     8   211
 NBasis=   211 NAE=    18 NBE=    18 NFC=     7 NFV=     0
 NROrb=    204 NOA=    11 NOB=    11 NVA=   193 NVB=   193

 **** Warning!!: The largest alpha MO coefficient is  0.35062624D+02

 Semi-Direct transformation.
 ModeAB=           2 MOrb=            11 LenV=    1072528208
 LASXX=     44979418 LTotXX=    44979418 LenRXX=    44979418
 LTotAB=    45631872 MaxLAS=    67073160 LenRXY=    67073160
 NonZer=    89958836 LenScr=   135708672 LnRSAI=           0
 LnScr1=           0 LExtra=           0 Total=    247761250
 MaxDsk=          -1 SrtSym=           F ITran=            4
 JobTyp=0 Pass  1:  I=   1 to  11.
 (rs|ai) integrals will be sorted in core.
 Spin components of T(2) and E(2):
     alpha-alpha T2 =       0.2567617186D-01 E2=     -0.8213524195D-01
     alpha-beta  T2 =       0.1452050672D+00 E2=     -0.5100984759D+00
     beta-beta   T2 =       0.2567617186D-01 E2=     -0.8213524195D-01
 ANorm=    0.1093872667D+01
 E2 =    -0.6743689598D+00 EUMP2 =    -0.59929148328744D+03
 R2 and R3 integrals will be kept in memory, NReq=   900794930.
 Iterations=  50 Convergence= 0.100D-07
 Iteration Nr.   1
 **********************
 DD1Dir will call FoFMem   1 times, MxPair=       132
 NAB=    66 NAA=     0 NBB=     0.
 MP4(R+Q)=  0.14435920D-01
 E3=       -0.18683264D-01        EUMP3=      -0.59931016655D+03
 E4(DQ)=   -0.44154859D-03        UMP4(DQ)=   -0.59931060810D+03
 E4(SDQ)=  -0.97574304D-02        UMP4(SDQ)=  -0.59931992398D+03
 DE(Corr)= -0.67861630     E(Corr)=     -599.29573063    
 NORM(A)=   0.10996204D+01
 Iteration Nr.   2
 **********************
 DD1Dir will call FoFMem   1 times, MxPair=       132
 NAB=    66 NAA=     0 NBB=     0.
 DE(Corr)= -0.70074635     E(CORR)=     -599.31786067     Delta=-2.21D-02
 NORM(A)=   0.11069502D+01
 Iteration Nr.   3
 **********************
 DD1Dir will call FoFMem   1 times, MxPair=       132
 NAB=    66 NAA=     0 NBB=     0.
 DE(Corr)= -0.69837640     E(CORR)=     -599.31549073     Delta= 2.37D-03
 NORM(A)=   0.11108830D+01
 Iteration Nr.   4
 **********************
 DD1Dir will call FoFMem   1 times, MxPair=       132
 NAB=    66 NAA=     0 NBB=     0.
 DE(Corr)= -0.70140906     E(CORR)=     -599.31852338     Delta=-3.03D-03
 NORM(A)=   0.11129434D+01
 Iteration Nr.   5
 **********************
 DD1Dir will call FoFMem   1 times, MxPair=       132
 NAB=    66 NAA=     0 NBB=     0.
 DE(Corr)= -0.70199478     E(CORR)=     -599.31910911     Delta=-5.86D-04
 NORM(A)=   0.11139514D+01
 Iteration Nr.   6
 **********************
 DD1Dir will call FoFMem   1 times, MxPair=       132
 NAB=    66 NAA=     0 NBB=     0.
 DE(Corr)= -0.70213857     E(CORR)=     -599.31925290     Delta=-1.44D-04
 NORM(A)=   0.11142706D+01
 Iteration Nr.   7
 **********************
 DD1Dir will call FoFMem   1 times, MxPair=       132
 NAB=    66 NAA=     0 NBB=     0.
 DE(Corr)= -0.70216765     E(CORR)=     -599.31928198     Delta=-2.91D-05
 NORM(A)=   0.11143014D+01
 Iteration Nr.   8
 **********************
 DD1Dir will call FoFMem   1 times, MxPair=       132
 NAB=    66 NAA=     0 NBB=     0.
 DE(Corr)= -0.70218197     E(CORR)=     -599.31929630     Delta=-1.43D-05
 NORM(A)=   0.11143192D+01
 Iteration Nr.   9
 **********************
 DD1Dir will call FoFMem   1 times, MxPair=       132
 NAB=    66 NAA=     0 NBB=     0.
 DE(Corr)= -0.70215852     E(CORR)=     -599.31927285     Delta= 2.35D-05
 NORM(A)=   0.11143226D+01
 Iteration Nr.  10
 **********************
 DD1Dir will call FoFMem   1 times, MxPair=       132
 NAB=    66 NAA=     0 NBB=     0.
 DE(Corr)= -0.70217777     E(CORR)=     -599.31929210     Delta=-1.93D-05
 NORM(A)=   0.11143227D+01
 Iteration Nr.  11
 **********************
 DD1Dir will call FoFMem   1 times, MxPair=       132
 NAB=    66 NAA=     0 NBB=     0.
 DE(Corr)= -0.70216862     E(CORR)=     -599.31928295     Delta= 9.15D-06
 NORM(A)=   0.11143254D+01
 Iteration Nr.  12
 **********************
 DD1Dir will call FoFMem   1 times, MxPair=       132
 NAB=    66 NAA=     0 NBB=     0.
 DE(Corr)= -0.70217220     E(CORR)=     -599.31928653     Delta=-3.58D-06
 NORM(A)=   0.11143256D+01
 Iteration Nr.  13
 **********************
 DD1Dir will call FoFMem   1 times, MxPair=       132
 NAB=    66 NAA=     0 NBB=     0.
 DE(Corr)= -0.70217273     E(CORR)=     -599.31928706     Delta=-5.36D-07
 NORM(A)=   0.11143261D+01
 Iteration Nr.  14
 **********************
 DD1Dir will call FoFMem   1 times, MxPair=       132
 NAB=    66 NAA=     0 NBB=     0.
 DE(Corr)= -0.70217294     E(CORR)=     -599.31928726     Delta=-2.01D-07
 NORM(A)=   0.11143262D+01
 Iteration Nr.  15
 **********************
 DD1Dir will call FoFMem   1 times, MxPair=       132
 NAB=    66 NAA=     0 NBB=     0.
 DE(Corr)= -0.70217282     E(CORR)=     -599.31928715     Delta= 1.10D-07
 NORM(A)=   0.11143260D+01
 Iteration Nr.  16
 **********************
 DD1Dir will call FoFMem   1 times, MxPair=       132
 NAB=    66 NAA=     0 NBB=     0.
 DE(Corr)= -0.70217302     E(CORR)=     -599.31928735     Delta=-1.93D-07
 NORM(A)=   0.11143258D+01
 Iteration Nr.  17
 **********************
 DD1Dir will call FoFMem   1 times, MxPair=       132
 NAB=    66 NAA=     0 NBB=     0.
 DE(Corr)= -0.70217288     E(CORR)=     -599.31928720     Delta= 1.42D-07
 NORM(A)=   0.11143257D+01
 Iteration Nr.  18
 **********************
 DD1Dir will call FoFMem   1 times, MxPair=       132
 NAB=    66 NAA=     0 NBB=     0.
 DE(Corr)= -0.70217291     E(CORR)=     -599.31928724     Delta=-3.32D-08
 NORM(A)=   0.11143255D+01
 Iteration Nr.  19
 **********************
 DD1Dir will call FoFMem   1 times, MxPair=       132
 NAB=    66 NAA=     0 NBB=     0.
 DE(Corr)= -0.70217285     E(CORR)=     -599.31928718     Delta= 5.55D-08
 NORM(A)=   0.11143254D+01
 Iteration Nr.  20
 **********************
 DD1Dir will call FoFMem   1 times, MxPair=       132
 NAB=    66 NAA=     0 NBB=     0.
 DE(Corr)= -0.70217286     E(CORR)=     -599.31928718     Delta=-1.63D-09
 NORM(A)=   0.11143254D+01
 Iteration Nr.  21
 **********************
 DD1Dir will call FoFMem   1 times, MxPair=       132
 NAB=    66 NAA=     0 NBB=     0.
 DE(Corr)= -0.70217284     E(CORR)=     -599.31928716     Delta= 1.89D-08
 NORM(A)=   0.11143253D+01
 Iteration Nr.  22
 **********************
 DD1Dir will call FoFMem   1 times, MxPair=       132
 NAB=    66 NAA=     0 NBB=     0.
 DE(Corr)= -0.70217283     E(CORR)=     -599.31928716     Delta= 2.51D-09
 NORM(A)=   0.11143253D+01
 Iteration Nr.  23
 **********************
 DD1Dir will call FoFMem   1 times, MxPair=       132
 NAB=    66 NAA=     0 NBB=     0.
 DE(Corr)= -0.70217283     E(CORR)=     -599.31928716     Delta= 5.36D-09
 NORM(A)=   0.11143253D+01
 Iteration Nr.  24
 **********************
 DD1Dir will call FoFMem   1 times, MxPair=       132
 NAB=    66 NAA=     0 NBB=     0.
 DE(Corr)= -0.70217283     E(CORR)=     -599.31928716     Delta=-1.66D-09
 NORM(A)=   0.11143253D+01
 Iteration Nr.  25
 **********************
 DD1Dir will call FoFMem   1 times, MxPair=       132
 NAB=    66 NAA=     0 NBB=     0.
 DE(Corr)= -0.70217283     E(CORR)=     -599.31928715     Delta= 4.18D-09
 NORM(A)=   0.11143253D+01
 Iteration Nr.  26
 **********************
 DD1Dir will call FoFMem   1 times, MxPair=       132
 NAB=    66 NAA=     0 NBB=     0.
 DE(Corr)= -0.70217283     E(CORR)=     -599.31928716     Delta=-4.05D-09
 NORM(A)=   0.11143253D+01
 Iteration Nr.  27
 **********************
 DD1Dir will call FoFMem   1 times, MxPair=       132
 NAB=    66 NAA=     0 NBB=     0.
 DE(Corr)= -0.70217283     E(CORR)=     -599.31928716     Delta= 6.20D-10
 NORM(A)=   0.11143253D+01
 Largest amplitude= 6.47D-02

 Z-AMPLITUDE ITERATIONS

 Iteration Nr.   1
 **********************
 DD1Dir will call FoFMem   1 times, MxPair=       132
 NAB=    66 NAA=     0 NBB=     0.
 DE(Z)  -0.68282529D+00          E(Z)=    -0.59929993962D+03
 NORM(A)=   0.11149448D+01
 Iteration Nr.   2
 **********************
 DD1Dir will call FoFMem   1 times, MxPair=       132
 NAB=    66 NAA=     0 NBB=     0.
 DE(Z)  -0.68289368D+00          E(Z)=    -0.59930000800D+03
 NORM(A)=   0.11146198D+01
 Iteration Nr.   3
 **********************
 DD1Dir will call FoFMem   1 times, MxPair=       132
 NAB=    66 NAA=     0 NBB=     0.
 DE(Z)  -0.68285340D+00          E(Z)=    -0.59929996773D+03
 NORM(A)=   0.11159985D+01
 Iteration Nr.   4
 **********************
 DD1Dir will call FoFMem   1 times, MxPair=       132
 NAB=    66 NAA=     0 NBB=     0.
 DE(Z)  -0.68299269D+00          E(Z)=    -0.59930010702D+03
 NORM(A)=   0.11121887D+01
 Iteration Nr.   5
 **********************
 DD1Dir will call FoFMem   1 times, MxPair=       132
 NAB=    66 NAA=     0 NBB=     0.
 DE(Z)  -0.68261418D+00          E(Z)=    -0.59929972851D+03
 NORM(A)=   0.11077117D+01
 Iteration Nr.   6
 **********************
 DD1Dir will call FoFMem   1 times, MxPair=       132
 NAB=    66 NAA=     0 NBB=     0.
 DE(Z)  -0.68215652D+00          E(Z)=    -0.59929927085D+03
 NORM(A)=   0.11077058D+01
 Iteration Nr.   7
 **********************
 DD1Dir will call FoFMem   1 times, MxPair=       132
 NAB=    66 NAA=     0 NBB=     0.
 DE(Z)  -0.68215867D+00          E(Z)=    -0.59929927299D+03
 NORM(A)=   0.11077017D+01
 Iteration Nr.   8
 **********************
 DD1Dir will call FoFMem   1 times, MxPair=       132
 NAB=    66 NAA=     0 NBB=     0.
 DE(Z)  -0.68215720D+00          E(Z)=    -0.59929927153D+03
 NORM(A)=   0.11076987D+01
 Iteration Nr.   9
 **********************
 DD1Dir will call FoFMem   1 times, MxPair=       132
 NAB=    66 NAA=     0 NBB=     0.
 DE(Z)  -0.68215653D+00          E(Z)=    -0.59929927086D+03
 NORM(A)=   0.11076977D+01
 Iteration Nr.  10
 **********************
 DD1Dir will call FoFMem   1 times, MxPair=       132
 NAB=    66 NAA=     0 NBB=     0.
 DE(Z)  -0.68215707D+00          E(Z)=    -0.59929927140D+03
 NORM(A)=   0.11076974D+01
 Iteration Nr.  11
 **********************
 DD1Dir will call FoFMem   1 times, MxPair=       132
 NAB=    66 NAA=     0 NBB=     0.
 DE(Z)  -0.68215692D+00          E(Z)=    -0.59929927125D+03
 NORM(A)=   0.11076973D+01
 Iteration Nr.  12
 **********************
 DD1Dir will call FoFMem   1 times, MxPair=       132
 NAB=    66 NAA=     0 NBB=     0.
 DE(Z)  -0.68215683D+00          E(Z)=    -0.59929927116D+03
 NORM(A)=   0.11076973D+01
 Iteration Nr.  13
 **********************
 DD1Dir will call FoFMem   1 times, MxPair=       132
 NAB=    66 NAA=     0 NBB=     0.
 DE(Z)  -0.68215694D+00          E(Z)=    -0.59929927127D+03
 NORM(A)=   0.11076973D+01
 Iteration Nr.  14
 **********************
 DD1Dir will call FoFMem   1 times, MxPair=       132
 NAB=    66 NAA=     0 NBB=     0.
 DE(Z)  -0.68215693D+00          E(Z)=    -0.59929927125D+03
 NORM(A)=   0.11076973D+01
 Iteration Nr.  15
 **********************
 DD1Dir will call FoFMem   1 times, MxPair=       132
 NAB=    66 NAA=     0 NBB=     0.
 DE(Z)  -0.68215693D+00          E(Z)=    -0.59929927126D+03
 NORM(A)=   0.11076973D+01
 Iteration Nr.  16
 **********************
 DD1Dir will call FoFMem   1 times, MxPair=       132
 NAB=    66 NAA=     0 NBB=     0.
 DE(Z)  -0.68215694D+00          E(Z)=    -0.59929927127D+03
 NORM(A)=   0.11076974D+01
 Iteration Nr.  17
 **********************
 DD1Dir will call FoFMem   1 times, MxPair=       132
 NAB=    66 NAA=     0 NBB=     0.
 DE(Z)  -0.68215694D+00          E(Z)=    -0.59929927127D+03
 NORM(A)=   0.11076973D+01
 Iteration Nr.  18
 **********************
 DD1Dir will call FoFMem   1 times, MxPair=       132
 NAB=    66 NAA=     0 NBB=     0.
 DE(Z)  -0.68215693D+00          E(Z)=    -0.59929927126D+03
 NORM(A)=   0.11076973D+01
 Iteration Nr.  19
 **********************
 DD1Dir will call FoFMem   1 times, MxPair=       132
 NAB=    66 NAA=     0 NBB=     0.
 DE(Z)  -0.68215694D+00          E(Z)=    -0.59929927126D+03
 NORM(A)=   0.11076973D+01
 Iteration Nr.  20
 **********************
 DD1Dir will call FoFMem   1 times, MxPair=       132
 NAB=    66 NAA=     0 NBB=     0.
 DE(Z)  -0.68215694D+00          E(Z)=    -0.59929927127D+03
 NORM(A)=   0.11076973D+01
 Iteration Nr.  21
 **********************
 DD1Dir will call FoFMem   1 times, MxPair=       132
 NAB=    66 NAA=     0 NBB=     0.
 DE(Z)  -0.68215692D+00          E(Z)=    -0.59929927125D+03
 NORM(A)=   0.11076973D+01
 Iteration Nr.  22
 **********************
 DD1Dir will call FoFMem   1 times, MxPair=       132
 NAB=    66 NAA=     0 NBB=     0.
 DE(Z)  -0.68215693D+00          E(Z)=    -0.59929927126D+03
 NORM(A)=   0.11076973D+01
 Iteration Nr.  23
 **********************
 DD1Dir will call FoFMem   1 times, MxPair=       132
 NAB=    66 NAA=     0 NBB=     0.
 DE(Z)  -0.68215694D+00          E(Z)=    -0.59929927126D+03
 NORM(A)=   0.11076973D+01
 Iteration Nr.  24
 **********************
 DD1Dir will call FoFMem   1 times, MxPair=       132
 NAB=    66 NAA=     0 NBB=     0.
 DE(Z)  -0.68215694D+00          E(Z)=    -0.59929927127D+03
 NORM(A)=   0.11076973D+01
 Iteration Nr.  25
 **********************
 DD1Dir will call FoFMem   1 times, MxPair=       132
 NAB=    66 NAA=     0 NBB=     0.
 DE(Z)  -0.68215694D+00          E(Z)=    -0.59929927126D+03
 NORM(A)=   0.11076973D+01
 Iteration Nr.  26
 **********************
 DD1Dir will call FoFMem   1 times, MxPair=       132
 NAB=    66 NAA=     0 NBB=     0.
 DE(Z)  -0.68215694D+00          E(Z)=    -0.59929927127D+03
 NORM(A)=   0.11076973D+01
 Iteration Nr.  27
 **********************
 DD1Dir will call FoFMem   1 times, MxPair=       132
 NAB=    66 NAA=     0 NBB=     0.
 DE(Z)  -0.68215693D+00          E(Z)=    -0.59929927125D+03
 NORM(A)=   0.11076973D+01
 Iteration Nr.  28
 **********************
 DD1Dir will call FoFMem   1 times, MxPair=       132
 NAB=    66 NAA=     0 NBB=     0.
 DE(Z)  -0.68215693D+00          E(Z)=    -0.59929927126D+03
 NORM(A)=   0.11076973D+01
 Iteration Nr.  29
 **********************
 DD1Dir will call FoFMem   1 times, MxPair=       132
 NAB=    66 NAA=     0 NBB=     0.
 DE(Z)  -0.68215693D+00          E(Z)=    -0.59929927126D+03
 NORM(A)=   0.11076973D+01
 Iteration Nr.  30
 **********************
 DD1Dir will call FoFMem   1 times, MxPair=       132
 NAB=    66 NAA=     0 NBB=     0.
 DE(Z)  -0.68215693D+00          E(Z)=    -0.59929927126D+03
 NORM(A)=   0.11076973D+01
 Discarding MO integrals.
          Differentiating once with respect to electric field.
                with respect to dipole field.
          Electric field/nuclear overlap derivatives assumed to be zero.
          Keep R1 ints in memory in canonical form, NReq=448662239.
          There are     1 degrees of freedom in the 1st order CPHF.  IDoFFX=0.
 LinEq1:  Iter=  0 NonCon=     1 RMS=3.10D-03 Max=1.18D-01
 AX will form     1 AO Fock derivatives at one time.
 LinEq1:  Iter=  1 NonCon=     1 RMS=6.92D-04 Max=7.24D-03
 LinEq1:  Iter=  2 NonCon=     1 RMS=2.28D-04 Max=5.70D-03
 LinEq1:  Iter=  3 NonCon=     1 RMS=9.44D-05 Max=1.42D-03
 LinEq1:  Iter=  4 NonCon=     1 RMS=3.83D-05 Max=4.08D-04
 LinEq1:  Iter=  5 NonCon=     1 RMS=1.06D-05 Max=2.25D-04
 LinEq1:  Iter=  6 NonCon=     1 RMS=2.42D-06 Max=4.20D-05
 LinEq1:  Iter=  7 NonCon=     1 RMS=6.07D-07 Max=9.22D-06
 LinEq1:  Iter=  8 NonCon=     1 RMS=1.50D-07 Max=1.78D-06
 LinEq1:  Iter=  9 NonCon=     1 RMS=3.05D-08 Max=7.45D-07
 LinEq1:  Iter= 10 NonCon=     1 RMS=6.54D-09 Max=8.70D-08
 LinEq1:  Iter= 11 NonCon=     1 RMS=1.05D-09 Max=1.16D-08
 LinEq1:  Iter= 12 NonCon=     1 RMS=1.66D-10 Max=2.84D-09
 LinEq1:  Iter= 13 NonCon=     0 RMS=2.38D-11 Max=3.18D-10
 Linear equations converged to 1.000D-10 1.000D-09 after    13 iterations.
 End of Minotr Frequency-dependent properties file   721 does not exist.
 End of Minotr Frequency-dependent properties file   722 does not exist.

 **********************************************************************

            Population analysis using the QCI/CC density.

 **********************************************************************

     Natural Orbital Coefficients:
                           1         2         3         4         5
     Eigenvalues --     2.00003   2.00003   2.00002   2.00001   2.00001
   1 1   C  1S          0.00000   0.00000  -0.04440   0.07879   0.97626
   2        2S          0.00000   0.00000   0.00134   0.00057  -0.01329
   3        3S          0.00000   0.00000  -0.00135   0.00398   0.03986
   4        4S          0.00000   0.00000  -0.01294  -0.02426   0.00313
   5        5S          0.00000   0.00000  -0.00126  -0.00076  -0.00064
   6        6PX         0.00005   0.00000   0.00000   0.00000   0.00000
   7        6PY         0.00000   0.00005   0.00000   0.00000   0.00000
   8        6PZ         0.00000   0.00000   0.00054   0.00170   0.00089
   9        7PX         0.00083  -0.00001   0.00000   0.00000   0.00000
  10        7PY         0.00001   0.00083   0.00000   0.00000   0.00000
  11        7PZ         0.00000   0.00000   0.00141   0.00303  -0.00090
  12        8PX         0.00462  -0.00005   0.00000   0.00000   0.00000
  13        8PY         0.00005   0.00462   0.00000   0.00000   0.00000
  14        8PZ         0.00000   0.00000  -0.00380  -0.00419  -0.00321
  15        9PX         0.00043   0.00000   0.00000   0.00000   0.00000
  16        9PY         0.00000   0.00043   0.00000   0.00000   0.00000
  17        9PZ         0.00000   0.00000   0.00020   0.00016  -0.00050
  18       10D 0        0.00000   0.00000   0.00011   0.00033  -0.00057
  19       10D+1       -0.00016   0.00000   0.00000   0.00000   0.00000
  20       10D-1        0.00000  -0.00016   0.00000   0.00000   0.00000
  21       10D+2        0.00000   0.00004   0.00000   0.00000   0.00000
  22       10D-2        0.00004   0.00000   0.00000   0.00000   0.00000
  23       11D 0        0.00000   0.00000   0.00021  -0.00010  -0.00033
  24       11D+1        0.00027   0.00000   0.00000   0.00000   0.00000
  25       11D-1        0.00000   0.00027   0.00000   0.00000   0.00000
  26       11D+2        0.00001   0.00101   0.00000   0.00000   0.00000
  27       11D-2        0.00101  -0.00001   0.00000   0.00000   0.00000
  28       12D 0        0.00000   0.00000  -0.00080   0.00117  -0.00238
  29       12D+1       -0.00131   0.00001   0.00000   0.00000   0.00000
  30       12D-1       -0.00001  -0.00131   0.00000   0.00000   0.00000
  31       12D+2        0.00002   0.00164   0.00000   0.00000   0.00000
  32       12D-2        0.00164  -0.00002   0.00000   0.00000   0.00000
  33       13F 0        0.00000   0.00000   0.00001   0.00002   0.00019
  34       13F+1       -0.00019   0.00000   0.00000   0.00000   0.00000
  35       13F-1        0.00000  -0.00019   0.00000   0.00000   0.00000
  36       13F+2        0.00000   0.00002   0.00000   0.00000   0.00000
  37       13F-2        0.00002   0.00000   0.00000   0.00000   0.00000
  38       13F+3        0.00000   0.00000   0.00000   0.00000   0.00000
  39       13F-3        0.00000   0.00000  -0.00006   0.00006   0.00090
  40       14F 0        0.00000   0.00000  -0.00113  -0.00216  -0.00022
  41       14F+1        0.00059  -0.00001   0.00000   0.00000   0.00000
  42       14F-1        0.00001   0.00059   0.00000   0.00000   0.00000
  43       14F+2        0.00000   0.00035   0.00000   0.00000   0.00000
  44       14F-2        0.00035   0.00000   0.00000   0.00000   0.00000
  45       14F+3        0.00000   0.00000   0.00000   0.00000   0.00000
  46       14F-3        0.00000   0.00000  -0.00088  -0.00140  -0.00189
  47 2   H  1S          0.00000  -0.00016  -0.00002  -0.00035  -0.00135
  48        2S          0.00001   0.00118   0.00250   0.00344  -0.00069
  49        3S          0.00010   0.00878   0.00186   0.00538  -0.00437
  50        4S          0.00000  -0.00026   0.00011   0.00010  -0.00013
  51        5PX         0.00000   0.00000   0.00000   0.00000   0.00000
  52        5PY         0.00000   0.00003   0.00005  -0.00002  -0.00048
  53        5PZ         0.00000   0.00001   0.00001   0.00002  -0.00009
  54        6PX         0.00019   0.00000   0.00000   0.00000   0.00000
  55        6PY         0.00001   0.00065   0.00046   0.00071  -0.00080
  56        6PZ         0.00001   0.00063  -0.00001  -0.00009   0.00023
  57        7PX         0.00092  -0.00001   0.00000   0.00000   0.00000
  58        7PY         0.00002   0.00212   0.00054   0.00137  -0.00102
  59        7PZ         0.00000   0.00027   0.00047   0.00092  -0.00006
  60        8D 0        0.00000   0.00004   0.00001   0.00007   0.00014
  61        8D+1       -0.00002   0.00000   0.00000   0.00000   0.00000
  62        8D-1        0.00000   0.00010   0.00002   0.00005  -0.00004
  63        8D+2        0.00000  -0.00005  -0.00004  -0.00005   0.00028
  64        8D-2        0.00001   0.00000   0.00000   0.00000   0.00000
  65        9D 0        0.00000   0.00039   0.00015   0.00026   0.00062
  66        9D+1        0.00025   0.00000   0.00000   0.00000   0.00000
  67        9D-1        0.00000   0.00013  -0.00014  -0.00026   0.00001
  68        9D+2        0.00000  -0.00013   0.00001   0.00003  -0.00010
  69        9D-2        0.00012   0.00000   0.00000   0.00000   0.00000
  70 3   H  1S         -0.00014   0.00008  -0.00002  -0.00035  -0.00135
  71        2S          0.00101  -0.00060   0.00250   0.00344  -0.00069
  72        3S          0.00756  -0.00448   0.00186   0.00538  -0.00437
  73        4S         -0.00022   0.00013   0.00011   0.00010  -0.00013
  74        5PX         0.00003  -0.00001   0.00004  -0.00002  -0.00042
  75        5PY        -0.00001   0.00001  -0.00002   0.00001   0.00024
  76        5PZ         0.00001  -0.00001   0.00001   0.00002  -0.00009
  77        6PX         0.00053  -0.00021   0.00040   0.00061  -0.00070
  78        6PY        -0.00020   0.00031  -0.00023  -0.00035   0.00040
  79        6PZ         0.00054  -0.00032  -0.00001  -0.00009   0.00023
  80        7PX         0.00181  -0.00054   0.00047   0.00119  -0.00088
  81        7PY        -0.00050   0.00123  -0.00027  -0.00068   0.00051
  82        7PZ         0.00024  -0.00014   0.00047   0.00092  -0.00006
  83        8D 0        0.00003  -0.00002   0.00001   0.00007   0.00014
  84        8D+1        0.00007  -0.00005   0.00002   0.00004  -0.00003
  85        8D-1       -0.00005   0.00001  -0.00001  -0.00002   0.00002
  86        8D+2        0.00003   0.00000   0.00002   0.00003  -0.00014
  87        8D-2       -0.00003   0.00003  -0.00004  -0.00005   0.00024
  88        9D 0        0.00034  -0.00020   0.00015   0.00026   0.00062
  89        9D+1        0.00016   0.00005  -0.00012  -0.00023   0.00000
  90        9D-1        0.00006   0.00022   0.00007   0.00013   0.00000
  91        9D+2        0.00011   0.00006  -0.00001  -0.00001   0.00005
  92        9D-2       -0.00006   0.00011   0.00001   0.00003  -0.00008
  93 4   H  1S          0.00014   0.00008  -0.00002  -0.00035  -0.00135
  94        2S         -0.00103  -0.00058   0.00250   0.00344  -0.00069
  95        3S         -0.00765  -0.00431   0.00186   0.00538  -0.00437
  96        4S          0.00022   0.00013   0.00011   0.00010  -0.00013
  97        5PX         0.00003   0.00001  -0.00004   0.00002   0.00042
  98        5PY         0.00001   0.00001  -0.00002   0.00001   0.00024
  99        5PZ        -0.00001  -0.00001   0.00001   0.00002  -0.00009
 100        6PX         0.00054   0.00019  -0.00040  -0.00061   0.00070
 101        6PY         0.00020   0.00030  -0.00023  -0.00035   0.00040
 102        6PZ        -0.00055  -0.00031  -0.00001  -0.00009   0.00023
 103        7PX         0.00182   0.00050  -0.00047  -0.00119   0.00088
 104        7PY         0.00053   0.00122  -0.00027  -0.00068   0.00051
 105        7PZ        -0.00024  -0.00014   0.00047   0.00092  -0.00006
 106        8D 0       -0.00003  -0.00002   0.00001   0.00007   0.00014
 107        8D+1        0.00007   0.00005  -0.00002  -0.00004   0.00003
 108        8D-1        0.00005   0.00001  -0.00001  -0.00002   0.00002
 109        8D+2       -0.00003   0.00000   0.00002   0.00003  -0.00014
 110        8D-2       -0.00003  -0.00002   0.00004   0.00005  -0.00024
 111        9D 0       -0.00034  -0.00019   0.00015   0.00026   0.00062
 112        9D+1        0.00016  -0.00006   0.00012   0.00023   0.00000
 113        9D-1       -0.00005   0.00022   0.00007   0.00013   0.00000
 114        9D+2       -0.00011   0.00006  -0.00001  -0.00001   0.00005
 115        9D-2       -0.00007  -0.00010  -0.00001  -0.00002   0.00008
 116 5   Cl 1S          0.00000   0.00000  -0.25026   0.14853  -0.02290
 117        2S          0.00000   0.00000   0.84479  -0.50213   0.07852
 118        3S          0.00000   0.00000  -0.02310   0.00934  -0.00240
 119        4S          0.00000   0.00000   0.06645  -0.04092   0.00644
 120        5S          0.00000   0.00000  -0.00200   0.00796   0.00364
 121        6S          0.00000   0.00000  -0.00150  -0.00204   0.00306
 122        7PX         0.97882  -0.01073   0.00009   0.00015  -0.00001
 123        7PY         0.01073   0.97882   0.00022   0.00037  -0.00002
 124        7PZ        -0.00018  -0.00043   0.50264   0.83493  -0.04514
 125        8PX        -0.01919   0.00021   0.00000   0.00000   0.00000
 126        8PY        -0.00021  -0.01919   0.00000  -0.00001   0.00000
 127        8PZ         0.00000   0.00001  -0.00884  -0.01407   0.00004
 128        9PX         0.05232  -0.00057   0.00001   0.00001   0.00000
 129        9PY         0.00057   0.05232   0.00001   0.00002   0.00000
 130        9PZ        -0.00001  -0.00002   0.02854   0.04951  -0.00254
 131       10PX        -0.00579   0.00006   0.00000   0.00000   0.00000
 132       10PY        -0.00006  -0.00579   0.00000   0.00000   0.00000
 133       10PZ         0.00000   0.00000  -0.00442  -0.00287  -0.00354
 134       11PX        -0.00214   0.00002   0.00000   0.00000   0.00000
 135       11PY        -0.00002  -0.00214   0.00000   0.00000   0.00000
 136       11PZ         0.00000   0.00000  -0.00037  -0.00015  -0.00053
 137       12D 0        0.00000   0.00000   0.00001  -0.00051  -0.00017
 138       12D+1       -0.00032   0.00000   0.00000   0.00000   0.00000
 139       12D-1        0.00000  -0.00032   0.00000   0.00000   0.00000
 140       12D+2        0.00000   0.00001   0.00000   0.00000   0.00000
 141       12D-2        0.00001   0.00000   0.00000   0.00000   0.00000
 142       13D 0        0.00000   0.00000   0.00089   0.00247   0.00044
 143       13D+1        0.00083  -0.00001   0.00000   0.00000   0.00000
 144       13D-1        0.00001   0.00083   0.00000   0.00000   0.00000
 145       13D+2        0.00000  -0.00002   0.00000   0.00000   0.00000
 146       13D-2       -0.00002   0.00000   0.00000   0.00000   0.00000
 147       14D 0        0.00000   0.00000   0.00059  -0.00014   0.00080
 148       14D+1       -0.00072   0.00001   0.00000   0.00000   0.00000
 149       14D-1       -0.00001  -0.00072   0.00000   0.00000   0.00000
 150       14D+2        0.00000   0.00003   0.00000   0.00000   0.00000
 151       14D-2        0.00003   0.00000   0.00000   0.00000   0.00000
 152       15F 0        0.00000   0.00000   0.00001  -0.00007  -0.00003
 153       15F+1       -0.00001   0.00000   0.00000   0.00000   0.00000
 154       15F-1        0.00000  -0.00001   0.00000   0.00000   0.00000
 155       15F+2        0.00000   0.00003   0.00000   0.00000   0.00000
 156       15F-2        0.00003   0.00000   0.00000   0.00000   0.00000
 157       15F+3        0.00000   0.00000   0.00000   0.00000   0.00000
 158       15F-3        0.00000   0.00000   0.00001   0.00003   0.00000
 159       16F 0        0.00000   0.00000  -0.00032  -0.00059  -0.00032
 160       16F+1       -0.00023   0.00000   0.00000   0.00000   0.00000
 161       16F-1        0.00000  -0.00023   0.00000   0.00000   0.00000
 162       16F+2        0.00000  -0.00004   0.00000   0.00000   0.00000
 163       16F-2       -0.00004   0.00000   0.00000   0.00000   0.00000
 164       16F+3        0.00000   0.00000   0.00000   0.00000   0.00000
 165       16F-3        0.00000   0.00000  -0.00002  -0.00005   0.00002
 166 6   F  1S          0.00000   0.00000  -0.00150  -0.01065  -0.04974
 167        2S          0.00000   0.00000   0.00020   0.00043   0.00080
 168        3S          0.00000   0.00000  -0.00007  -0.00046  -0.00202
 169        4S          0.00000   0.00000  -0.00054  -0.00103   0.00054
 170        5S          0.00000   0.00000   0.00012  -0.00163   0.00177
 171        6PX        -0.00004   0.00000   0.00000   0.00000   0.00000
 172        6PY         0.00000  -0.00004   0.00000   0.00000   0.00000
 173        6PZ         0.00000   0.00000   0.00057   0.00110   0.00011
 174        7PX        -0.00001   0.00000   0.00000   0.00000   0.00000
 175        7PY         0.00000  -0.00001   0.00000   0.00000   0.00000
 176        7PZ         0.00000   0.00000   0.00068   0.00131   0.00002
 177        8PX        -0.00025   0.00000   0.00000   0.00000   0.00000
 178        8PY         0.00000  -0.00025   0.00000   0.00000   0.00000
 179        8PZ         0.00000   0.00000   0.00008   0.00019   0.00047
 180        9PX        -0.00036   0.00000   0.00000   0.00000   0.00000
 181        9PY         0.00000  -0.00036   0.00000   0.00000   0.00000
 182        9PZ         0.00000   0.00000   0.00017  -0.00008   0.00071
 183       10D 0        0.00000   0.00000   0.00001   0.00001  -0.00002
 184       10D+1       -0.00001   0.00000   0.00000   0.00000   0.00000
 185       10D-1        0.00000  -0.00001   0.00000   0.00000   0.00000
 186       10D+2        0.00000   0.00001   0.00000   0.00000   0.00000
 187       10D-2        0.00001   0.00000   0.00000   0.00000   0.00000
 188       11D 0        0.00000   0.00000  -0.00003  -0.00010   0.00001
 189       11D+1        0.00005   0.00000   0.00000   0.00000   0.00000
 190       11D-1        0.00000   0.00005   0.00000   0.00000   0.00000
 191       11D+2        0.00000  -0.00003   0.00000   0.00000   0.00000
 192       11D-2       -0.00003   0.00000   0.00000   0.00000   0.00000
 193       12D 0        0.00000   0.00000  -0.00019  -0.00012   0.00011
 194       12D+1       -0.00023   0.00000   0.00000   0.00000   0.00000
 195       12D-1        0.00000  -0.00023   0.00000   0.00000   0.00000
 196       12D+2        0.00000   0.00011   0.00000   0.00000   0.00000
 197       12D-2        0.00011   0.00000   0.00000   0.00000   0.00000
 198       13F 0        0.00000   0.00000   0.00001  -0.00001  -0.00004
 199       13F+1        0.00002   0.00000   0.00000   0.00000   0.00000
 200       13F-1        0.00000   0.00002   0.00000   0.00000   0.00000
 201       13F+2        0.00000  -0.00002   0.00000   0.00000   0.00000
 202       13F-2       -0.00002   0.00000   0.00000   0.00000   0.00000
 203       13F+3        0.00000   0.00000   0.00000   0.00000   0.00000
 204       13F-3        0.00000   0.00000   0.00000   0.00000   0.00000
 205       14F 0        0.00000   0.00000  -0.00004   0.00002   0.00013
 206       14F+1       -0.00006   0.00000   0.00000   0.00000   0.00000
 207       14F-1        0.00000  -0.00006   0.00000   0.00000   0.00000
 208       14F+2        0.00000   0.00004   0.00000   0.00000   0.00000
 209       14F-2        0.00004   0.00000   0.00000   0.00000   0.00000
 210       14F+3        0.00000   0.00000   0.00000   0.00000   0.00000
 211       14F-3        0.00000   0.00000   0.00000   0.00000  -0.00001
                           6         7         8         9        10
     Eigenvalues --     2.00000   2.00000   1.98361   1.97546   1.96949
   1 1   C  1S          0.05036  -0.00047   0.01542  -0.07388  -0.14338
   2        2S         -0.00012  -0.00001  -0.04200   0.20042   0.39633
   3        3S          0.00230  -0.00003  -0.01040   0.04647   0.09591
   4        4S         -0.00699   0.00016   0.00590   0.07849   0.18931
   5        5S         -0.00016   0.00010   0.00797  -0.00711  -0.02920
   6        6PX         0.00000   0.00000   0.00000   0.00000   0.00000
   7        6PY         0.00000   0.00000   0.00000   0.00000  -0.00001
   8        6PZ         0.00004   0.00000   0.00653   0.01055  -0.02754
   9        7PX         0.00000   0.00000   0.00000   0.00000   0.00000
  10        7PY         0.00000   0.00000   0.00000   0.00001  -0.00001
  11        7PZ        -0.00075   0.00001   0.00711   0.01836  -0.03283
  12        8PX         0.00000   0.00000   0.00000   0.00000   0.00000
  13        8PY         0.00000   0.00000   0.00001   0.00000  -0.00001
  14        8PZ         0.00520   0.00009   0.01685   0.00533  -0.02295
  15        9PX         0.00000   0.00000   0.00000   0.00000   0.00000
  16        9PY         0.00000   0.00000   0.00000   0.00000   0.00000
  17        9PZ         0.00011   0.00001  -0.00069   0.00027  -0.00407
  18       10D 0        0.00004   0.00000   0.00050  -0.00208  -0.00956
  19       10D+1        0.00000   0.00000   0.00000   0.00000   0.00000
  20       10D-1        0.00000   0.00000   0.00000   0.00000  -0.00001
  21       10D+2        0.00000   0.00000   0.00000   0.00000   0.00000
  22       10D-2        0.00000   0.00000   0.00000   0.00000   0.00000
  23       11D 0       -0.00023  -0.00002  -0.00531   0.00477  -0.01870
  24       11D+1        0.00000   0.00000   0.00000   0.00000  -0.00001
  25       11D-1        0.00000   0.00000   0.00000   0.00000  -0.00001
  26       11D+2        0.00000   0.00000   0.00000   0.00000   0.00000
  27       11D-2        0.00000   0.00000   0.00000   0.00000   0.00000
  28       12D 0        0.00028   0.00008   0.00210  -0.00861  -0.01669
  29       12D+1        0.00000   0.00000   0.00000   0.00000  -0.00001
  30       12D-1        0.00000   0.00000   0.00000  -0.00001  -0.00001
  31       12D+2        0.00000   0.00000   0.00000   0.00000   0.00000
  32       12D-2        0.00000   0.00000   0.00000   0.00000   0.00000
  33       13F 0       -0.00007   0.00000   0.00000   0.00248   0.00064
  34       13F+1        0.00000   0.00000   0.00000   0.00000   0.00000
  35       13F-1        0.00000   0.00000   0.00000   0.00000   0.00000
  36       13F+2        0.00000   0.00000   0.00000   0.00000   0.00000
  37       13F-2        0.00000   0.00000   0.00000   0.00000   0.00000
  38       13F+3        0.00000   0.00000   0.00000   0.00000   0.00000
  39       13F-3        0.00001   0.00000  -0.00014   0.00195   0.00395
  40       14F 0        0.00127  -0.00001   0.00474   0.00250  -0.00199
  41       14F+1        0.00000   0.00000   0.00000   0.00000   0.00000
  42       14F-1        0.00000   0.00000   0.00001   0.00000   0.00000
  43       14F+2        0.00000   0.00000   0.00000   0.00000   0.00000
  44       14F-2        0.00000   0.00000   0.00000   0.00000   0.00000
  45       14F+3        0.00000   0.00000   0.00000   0.00000   0.00000
  46       14F-3       -0.00044   0.00003   0.00190  -0.00107   0.00395
  47 2   H  1S         -0.00008   0.00000  -0.00858   0.03738   0.08039
  48        2S          0.00098  -0.00006  -0.01537   0.04424   0.08382
  49        3S          0.00181   0.00004  -0.00092  -0.00483  -0.01183
  50        4S          0.00003   0.00000  -0.00048   0.00052   0.00040
  51        5PX         0.00000   0.00000   0.00000   0.00000   0.00000
  52        5PY         0.00001   0.00000  -0.00109   0.00401   0.00862
  53        5PZ        -0.00004   0.00000   0.00028   0.00096   0.00034
  54        6PX         0.00000   0.00000   0.00000   0.00000   0.00000
  55        6PY         0.00008   0.00000  -0.00074   0.00085   0.00124
  56        6PZ         0.00032  -0.00001   0.00008   0.00243  -0.00051
  57        7PX         0.00000   0.00000   0.00000   0.00000   0.00000
  58        7PY         0.00043   0.00001   0.00135  -0.00497  -0.01027
  59        7PZ        -0.00055   0.00001  -0.00283  -0.00173  -0.00131
  60        8D 0        0.00006   0.00000   0.00014  -0.00035  -0.00091
  61        8D+1        0.00000   0.00000   0.00000   0.00000   0.00000
  62        8D-1       -0.00001   0.00000  -0.00015   0.00050   0.00023
  63        8D+2       -0.00002   0.00000   0.00003  -0.00055  -0.00137
  64        8D-2        0.00000   0.00000   0.00000   0.00000   0.00000
  65        9D 0        0.00009  -0.00001  -0.00006   0.00124   0.00102
  66        9D+1        0.00000   0.00000   0.00000   0.00000   0.00000
  67        9D-1        0.00014   0.00000  -0.00006   0.00002  -0.00038
  68        9D+2        0.00004   0.00000  -0.00098   0.00227   0.00415
  69        9D-2        0.00000   0.00000   0.00000   0.00000   0.00000
  70 3   H  1S         -0.00008   0.00000  -0.00858   0.03738   0.08039
  71        2S          0.00098  -0.00006  -0.01537   0.04424   0.08382
  72        3S          0.00181   0.00004  -0.00092  -0.00483  -0.01182
  73        4S          0.00003   0.00000  -0.00048   0.00052   0.00040
  74        5PX         0.00001   0.00000  -0.00094   0.00347   0.00746
  75        5PY        -0.00001   0.00000   0.00054  -0.00201  -0.00431
  76        5PZ        -0.00004   0.00000   0.00028   0.00097   0.00034
  77        6PX         0.00007   0.00000  -0.00064   0.00073   0.00107
  78        6PY        -0.00004   0.00000   0.00037  -0.00042  -0.00062
  79        6PZ         0.00032  -0.00001   0.00008   0.00243  -0.00051
  80        7PX         0.00037   0.00001   0.00117  -0.00430  -0.00890
  81        7PY        -0.00022   0.00000  -0.00068   0.00248   0.00514
  82        7PZ        -0.00055   0.00001  -0.00283  -0.00173  -0.00131
  83        8D 0        0.00006   0.00000   0.00014  -0.00035  -0.00091
  84        8D+1       -0.00001   0.00000  -0.00013   0.00044   0.00020
  85        8D-1        0.00000   0.00000   0.00007  -0.00025  -0.00012
  86        8D+2        0.00001   0.00000  -0.00002   0.00027   0.00068
  87        8D-2       -0.00001   0.00000   0.00003  -0.00048  -0.00118
  88        9D 0        0.00009  -0.00001  -0.00006   0.00124   0.00102
  89        9D+1        0.00012   0.00000  -0.00005   0.00001  -0.00033
  90        9D-1       -0.00007   0.00000   0.00003  -0.00001   0.00019
  91        9D+2       -0.00002   0.00000   0.00049  -0.00113  -0.00207
  92        9D-2        0.00003   0.00000  -0.00085   0.00197   0.00359
  93 4   H  1S         -0.00008   0.00000  -0.00858   0.03738   0.08039
  94        2S          0.00098  -0.00006  -0.01537   0.04424   0.08382
  95        3S          0.00181   0.00004  -0.00092  -0.00483  -0.01182
  96        4S          0.00003   0.00000  -0.00048   0.00052   0.00040
  97        5PX        -0.00001   0.00000   0.00094  -0.00347  -0.00746
  98        5PY        -0.00001   0.00000   0.00054  -0.00200  -0.00431
  99        5PZ        -0.00004   0.00000   0.00028   0.00097   0.00034
 100        6PX        -0.00006   0.00000   0.00064  -0.00073  -0.00107
 101        6PY        -0.00004   0.00000   0.00037  -0.00042  -0.00062
 102        6PZ         0.00032  -0.00001   0.00008   0.00243  -0.00051
 103        7PX        -0.00038  -0.00001  -0.00117   0.00430   0.00890
 104        7PY        -0.00022   0.00000  -0.00068   0.00248   0.00513
 105        7PZ        -0.00055   0.00001  -0.00283  -0.00173  -0.00132
 106        8D 0        0.00006   0.00000   0.00014  -0.00035  -0.00091
 107        8D+1        0.00001   0.00000   0.00013  -0.00044  -0.00020
 108        8D-1        0.00000   0.00000   0.00007  -0.00025  -0.00012
 109        8D+2        0.00001   0.00000  -0.00002   0.00027   0.00068
 110        8D-2        0.00001   0.00000  -0.00003   0.00048   0.00118
 111        9D 0        0.00009  -0.00001  -0.00006   0.00124   0.00102
 112        9D+1       -0.00012   0.00000   0.00005  -0.00001   0.00033
 113        9D-1       -0.00007   0.00000   0.00003  -0.00001   0.00019
 114        9D+2       -0.00002   0.00000   0.00049  -0.00114  -0.00208
 115        9D-2       -0.00003   0.00000   0.00085  -0.00197  -0.00359
 116 5   Cl 1S          0.00009   0.99708  -0.00064   0.06635  -0.03499
 117        2S         -0.00015   0.01039   0.00293  -0.25143   0.13154
 118        3S          0.00004   0.00017  -0.00396   0.52372  -0.27982
 119        4S          0.00007   0.00026  -0.00025   0.06410  -0.03770
 120        5S         -0.00182  -0.00020  -0.01250   0.35046  -0.17159
 121        6S         -0.00050  -0.00012  -0.00467   0.02455   0.01139
 122        7PX         0.00000   0.00000   0.00000   0.00000   0.00001
 123        7PY         0.00000   0.00000   0.00000   0.00000   0.00001
 124        7PZ         0.00765   0.00017   0.00148   0.00472   0.02895
 125        8PX         0.00000   0.00000   0.00000   0.00000  -0.00001
 126        8PY         0.00000   0.00000   0.00000   0.00000  -0.00003
 127        8PZ         0.00051  -0.00004  -0.00210  -0.00629  -0.07245
 128        9PX         0.00000   0.00000   0.00000   0.00000  -0.00001
 129        9PY         0.00000   0.00000   0.00000   0.00000  -0.00001
 130        9PZ         0.00034   0.00003  -0.00259   0.00060  -0.03158
 131       10PX         0.00000   0.00000   0.00000   0.00000  -0.00001
 132       10PY         0.00000   0.00000   0.00000   0.00000  -0.00002
 133       10PZ         0.00094   0.00015   0.00282   0.00299  -0.05232
 134       11PX         0.00000   0.00000   0.00000   0.00000   0.00000
 135       11PY         0.00000   0.00000   0.00000   0.00000   0.00000
 136       11PZ         0.00002   0.00002  -0.00038   0.00265  -0.00872
 137       12D 0       -0.00003   0.00001  -0.00036   0.00461   0.00464
 138       12D+1        0.00000   0.00000   0.00000   0.00000   0.00000
 139       12D-1        0.00000   0.00000   0.00000   0.00000   0.00000
 140       12D+2        0.00000   0.00000   0.00000   0.00000   0.00000
 141       12D-2        0.00000   0.00000   0.00000   0.00000   0.00000
 142       13D 0       -0.00021   0.00000  -0.00163   0.00833   0.00976
 143       13D+1        0.00000   0.00000   0.00000   0.00000   0.00000
 144       13D-1        0.00000   0.00000   0.00000   0.00001   0.00001
 145       13D+2        0.00000   0.00000   0.00000   0.00000   0.00000
 146       13D-2        0.00000   0.00000   0.00000   0.00000   0.00000
 147       14D 0       -0.00013  -0.00004  -0.00182  -0.00019   0.00536
 148       14D+1        0.00000   0.00000   0.00000   0.00000   0.00000
 149       14D-1        0.00000   0.00000   0.00000   0.00000   0.00000
 150       14D+2        0.00000   0.00000   0.00000   0.00000   0.00000
 151       14D-2        0.00000   0.00000   0.00000   0.00000   0.00000
 152       15F 0        0.00005   0.00000   0.00023  -0.00185  -0.00193
 153       15F+1        0.00000   0.00000   0.00000   0.00000   0.00000
 154       15F-1        0.00000   0.00000   0.00000   0.00000   0.00000
 155       15F+2        0.00000   0.00000   0.00000   0.00000   0.00000
 156       15F-2        0.00000   0.00000   0.00000   0.00000   0.00000
 157       15F+3        0.00000   0.00000   0.00000   0.00000   0.00000
 158       15F-3       -0.00001   0.00000  -0.00001   0.00002   0.00009
 159       16F 0       -0.00005   0.00001   0.00003  -0.00091  -0.00168
 160       16F+1        0.00000   0.00000   0.00000   0.00000   0.00000
 161       16F-1        0.00000   0.00000   0.00000   0.00000   0.00000
 162       16F+2        0.00000   0.00000   0.00000   0.00000   0.00000
 163       16F-2        0.00000   0.00000   0.00000   0.00000   0.00000
 164       16F+3        0.00000   0.00000   0.00000   0.00000   0.00000
 165       16F-3        0.00003   0.00000   0.00002  -0.00001  -0.00021
 166 6   F  1S          0.97742  -0.00002   0.21189   0.01324   0.02162
 167        2S         -0.01502   0.00000  -0.53156  -0.03423  -0.05730
 168        3S          0.04206   0.00000  -0.16468  -0.01087  -0.01852
 169        4S          0.00193  -0.00001  -0.36874  -0.02386  -0.04391
 170        5S         -0.00084  -0.00006  -0.04541   0.00413   0.00779
 171        6PX         0.00000   0.00000   0.00000   0.00000   0.00002
 172        6PY         0.00000   0.00000   0.00001   0.00001   0.00004
 173        6PZ         0.00047   0.00000   0.01326   0.01268   0.08800
 174        7PX         0.00000   0.00000   0.00000   0.00000   0.00002
 175        7PY         0.00000   0.00000   0.00001   0.00001   0.00005
 176        7PZ        -0.00013   0.00000   0.01444   0.01549   0.10587
 177        8PX         0.00000   0.00000   0.00000   0.00000   0.00002
 178        8PY         0.00000   0.00000   0.00001   0.00001   0.00004
 179        8PZ         0.00240  -0.00001   0.01226   0.01213   0.08422
 180        9PX         0.00000   0.00000   0.00000   0.00000   0.00000
 181        9PY         0.00000   0.00000   0.00000   0.00000   0.00001
 182        9PZ        -0.00008  -0.00002   0.00212   0.00313   0.02446
 183       10D 0       -0.00002   0.00000  -0.00013   0.00017   0.00060
 184       10D+1        0.00000   0.00000   0.00000   0.00000   0.00000
 185       10D-1        0.00000   0.00000   0.00000   0.00000   0.00000
 186       10D+2        0.00000   0.00000   0.00000   0.00000   0.00000
 187       10D-2        0.00000   0.00000   0.00000   0.00000   0.00000
 188       11D 0       -0.00003   0.00000  -0.00104   0.00090   0.00275
 189       11D+1        0.00000   0.00000   0.00000   0.00000   0.00000
 190       11D-1        0.00000   0.00000   0.00000   0.00000   0.00000
 191       11D+2        0.00000   0.00000   0.00000   0.00000   0.00000
 192       11D-2        0.00000   0.00000   0.00000   0.00000   0.00000
 193       12D 0        0.00080   0.00000  -0.00055   0.00031   0.00386
 194       12D+1        0.00000   0.00000   0.00000   0.00000   0.00000
 195       12D-1        0.00000   0.00000   0.00000   0.00000   0.00000
 196       12D+2        0.00000   0.00000   0.00000   0.00000   0.00000
 197       12D-2        0.00000   0.00000   0.00000   0.00000   0.00000
 198       13F 0       -0.00006   0.00000  -0.00002   0.00013   0.00027
 199       13F+1        0.00000   0.00000   0.00000   0.00000   0.00000
 200       13F-1        0.00000   0.00000   0.00000   0.00000   0.00000
 201       13F+2        0.00000   0.00000   0.00000   0.00000   0.00000
 202       13F-2        0.00000   0.00000   0.00000   0.00000   0.00000
 203       13F+3        0.00000   0.00000   0.00000   0.00000   0.00000
 204       13F-3        0.00001   0.00000   0.00001   0.00002   0.00003
 205       14F 0        0.00020   0.00000  -0.00039  -0.00007   0.00062
 206       14F+1        0.00000   0.00000   0.00000   0.00000   0.00000
 207       14F-1        0.00000   0.00000   0.00000   0.00000   0.00000
 208       14F+2        0.00000   0.00000   0.00000   0.00000   0.00000
 209       14F-2        0.00000   0.00000   0.00000   0.00000   0.00000
 210       14F+3        0.00000   0.00000   0.00000   0.00000   0.00000
 211       14F-3       -0.00001   0.00000  -0.00007  -0.00006  -0.00009
                          11        12        13        14        15
     Eigenvalues --     1.96435   1.96435   1.95924   1.95924   1.94913
   1 1   C  1S          0.00000   0.00000   0.00000   0.00000   0.05330
   2        2S          0.00000   0.00000   0.00000   0.00000  -0.15168
   3        3S          0.00000   0.00000   0.00000   0.00000  -0.03572
   4        4S          0.00000   0.00000   0.00000  -0.00001  -0.29253
   5        5S          0.00000   0.00000   0.00000   0.00000  -0.05755
   6        6PX         0.02160   0.09570   0.21550   0.08223   0.00002
   7        6PY         0.09570  -0.02160   0.08223  -0.21549  -0.00015
   8        6PZ        -0.00005  -0.00001  -0.00007   0.00008  -0.04603
   9        7PX         0.02894   0.12820   0.28560   0.10899   0.00003
  10        7PY         0.12820  -0.02894   0.10899  -0.28560  -0.00021
  11        7PZ        -0.00006  -0.00001  -0.00010   0.00010  -0.06528
  12        8PX         0.02119   0.09388   0.22059   0.08418   0.00002
  13        8PY         0.09388  -0.02119   0.08418  -0.22059  -0.00017
  14        8PZ        -0.00004  -0.00001  -0.00008   0.00008  -0.06420
  15        9PX        -0.00048  -0.00214   0.01773   0.00677   0.00001
  16        9PY        -0.00214   0.00048   0.00677  -0.01773  -0.00002
  17        9PZ         0.00000   0.00000  -0.00001   0.00001  -0.00111
  18       10D 0        0.00000   0.00000   0.00000   0.00000   0.00929
  19       10D+1       -0.00060  -0.00263  -0.00116  -0.00044   0.00000
  20       10D-1       -0.00263   0.00059  -0.00044   0.00115   0.00001
  21       10D+2        0.00610  -0.00137   0.00528  -0.01382  -0.00001
  22       10D-2        0.00137   0.00610   0.01382   0.00528   0.00000
  23       11D 0        0.00001   0.00000   0.00000   0.00001   0.04955
  24       11D+1       -0.00278  -0.01230   0.00742   0.00284   0.00001
  25       11D-1       -0.01228   0.00277   0.00284  -0.00746   0.00007
  26       11D+2        0.02018  -0.00455   0.01614  -0.04223  -0.00003
  27       11D-2        0.00454   0.02017   0.04224   0.01614   0.00001
  28       12D 0        0.00000   0.00000   0.00000   0.00000   0.02809
  29       12D+1       -0.00133  -0.00589   0.00539   0.00206   0.00001
  30       12D-1       -0.00588   0.00132   0.00206  -0.00542   0.00002
  31       12D+2        0.01968  -0.00444   0.01282  -0.03356  -0.00002
  32       12D-2        0.00443   0.01967   0.03357   0.01282   0.00000
  33       13F 0        0.00000   0.00000   0.00000   0.00000  -0.00211
  34       13F+1        0.00006   0.00025  -0.00185  -0.00071   0.00000
  35       13F-1        0.00025  -0.00006  -0.00071   0.00185   0.00000
  36       13F+2       -0.00062   0.00014  -0.00004   0.00011   0.00000
  37       13F-2       -0.00014  -0.00062  -0.00011  -0.00004   0.00000
  38       13F+3        0.00000   0.00000   0.00000   0.00000   0.00000
  39       13F-3        0.00000   0.00000   0.00000   0.00000  -0.00307
  40       14F 0        0.00000   0.00000   0.00000  -0.00001  -0.00542
  41       14F+1        0.00008   0.00037  -0.00540  -0.00206  -0.00001
  42       14F-1        0.00036  -0.00008  -0.00206   0.00540   0.00001
  43       14F+2       -0.00373   0.00084  -0.00001   0.00002   0.00001
  44       14F-2       -0.00084  -0.00373  -0.00003  -0.00001   0.00000
  45       14F+3        0.00000   0.00000   0.00000   0.00000  -0.00001
  46       14F-3        0.00000   0.00000   0.00000   0.00000  -0.01509
  47 2   H  1S         -0.06585   0.01486  -0.05398   0.14139  -0.03363
  48        2S         -0.05948   0.01342  -0.05506   0.14422  -0.00290
  49        3S          0.05661  -0.01277   0.04246  -0.11122   0.02200
  50        4S         -0.00578   0.00130   0.00622  -0.01630   0.00007
  51        5PX         0.00046   0.00204   0.00408   0.00156   0.00000
  52        5PY        -0.00517   0.00117  -0.00441   0.01156  -0.00213
  53        5PZ         0.00002  -0.00001  -0.00100   0.00262  -0.00269
  54        6PX         0.00177   0.00785   0.01271   0.00485   0.00000
  55        6PY         0.00703  -0.00159   0.00399  -0.01045   0.00553
  56        6PZ        -0.00268   0.00060   0.00016  -0.00042  -0.00102
  57        7PX         0.00205   0.00908   0.01247   0.00475   0.00000
  58        7PY         0.01374  -0.00310   0.01625  -0.04258   0.01112
  59        7PZ         0.00066  -0.00015   0.00270  -0.00709   0.00812
  60        8D 0        0.00040  -0.00009   0.00049  -0.00127   0.00014
  61        8D+1        0.00000   0.00002   0.00030   0.00011   0.00000
  62        8D-1       -0.00073   0.00016  -0.00008   0.00022  -0.00021
  63        8D+2        0.00059  -0.00013   0.00069  -0.00179   0.00052
  64        8D-2        0.00023   0.00103   0.00209   0.00080   0.00000
  65        9D 0       -0.00052   0.00012   0.00052  -0.00136   0.00083
  66        9D+1       -0.00034  -0.00149   0.00096   0.00036   0.00000
  67        9D-1       -0.00323   0.00073   0.00123  -0.00323   0.00203
  68        9D+2       -0.00157   0.00035  -0.00095   0.00249   0.00108
  69        9D-2        0.00036   0.00161   0.00269   0.00102   0.00000
  70 3   H  1S          0.02006  -0.06446  -0.09546  -0.11744  -0.03377
  71        2S          0.01812  -0.05823  -0.09737  -0.11979  -0.00305
  72        3S         -0.01724   0.05541   0.07509   0.09238   0.02202
  73        4S          0.00176  -0.00565   0.01101   0.01354   0.00008
  74        5PX         0.00236  -0.00407  -0.00506  -0.00969  -0.00185
  75        5PY         0.00095   0.00307   0.00683   0.00242   0.00107
  76        5PZ        -0.00001   0.00002  -0.00177  -0.00218  -0.00269
  77        6PX         0.00199   0.00715   0.01139   0.00322   0.00480
  78        6PY         0.00773  -0.00137   0.00561  -0.01177  -0.00278
  79        6PZ         0.00081  -0.00262   0.00028   0.00036  -0.00102
  80        7PX         0.00082   0.01303   0.03007   0.02641   0.00965
  81        7PY         0.00979  -0.00433  -0.00540  -0.02497  -0.00558
  82        7PZ        -0.00021   0.00066   0.00480   0.00591   0.00814
  83        8D 0       -0.00012   0.00039   0.00086   0.00106   0.00014
  84        8D+1        0.00020  -0.00061  -0.00001  -0.00026  -0.00018
  85        8D-1       -0.00010   0.00036   0.00029  -0.00008   0.00011
  86        8D+2        0.00096  -0.00002   0.00090  -0.00197  -0.00026
  87        8D-2        0.00035   0.00066   0.00192   0.00058   0.00045
  88        9D 0        0.00016  -0.00051   0.00092   0.00114   0.00083
  89        9D+1        0.00012  -0.00296   0.00229   0.00200   0.00176
  90        9D-1       -0.00176   0.00119  -0.00040  -0.00190  -0.00101
  91        9D+2        0.00113   0.00119   0.00277  -0.00054  -0.00054
  92        9D-2        0.00120  -0.00109  -0.00034  -0.00269   0.00093
  93 4   H  1S          0.04579   0.04960   0.14944  -0.02395  -0.03374
  94        2S          0.04137   0.04480   0.15242  -0.02443  -0.00301
  95        3S         -0.03937  -0.04264  -0.11755   0.01884   0.02202
  96        4S          0.00402   0.00435  -0.01723   0.00276   0.00008
  97        5PX        -0.00388  -0.00266  -0.01023   0.00385   0.00185
  98        5PY        -0.00046  -0.00318  -0.00670  -0.00275   0.00106
  99        5PZ        -0.00001  -0.00001   0.00278  -0.00044  -0.00269
 100        6PX         0.00128   0.00731   0.01064   0.00518  -0.00480
 101        6PY         0.00757  -0.00208   0.00366  -0.01252  -0.00278
 102        6PZ         0.00186   0.00202  -0.00045   0.00008  -0.00101
 103        7PX         0.00485   0.01212   0.04003   0.00034  -0.00965
 104        7PY         0.01070  -0.00030   0.02066  -0.01502  -0.00557
 105        7PZ        -0.00047  -0.00051  -0.00753   0.00121   0.00814
 106        8D 0       -0.00028  -0.00030  -0.00134   0.00022   0.00014
 107        8D+1       -0.00044  -0.00047  -0.00018   0.00019   0.00018
 108        8D-1       -0.00024  -0.00029  -0.00016  -0.00025   0.00011
 109        8D+2        0.00088  -0.00040   0.00064  -0.00207  -0.00026
 110        8D-2       -0.00003   0.00074   0.00182   0.00084  -0.00045
 111        9D 0        0.00037   0.00039  -0.00145   0.00023   0.00083
 112        9D+1       -0.00138  -0.00262   0.00304   0.00003  -0.00176
 113        9D-1       -0.00209  -0.00032   0.00157  -0.00115  -0.00101
 114        9D+2        0.00051  -0.00156  -0.00171  -0.00225  -0.00054
 115        9D-2       -0.00155  -0.00046  -0.00204   0.00178  -0.00093
 116 5   Cl 1S          0.00000   0.00000   0.00000   0.00000   0.01035
 117        2S          0.00000   0.00000   0.00000   0.00000  -0.03947
 118        3S          0.00000   0.00000   0.00000   0.00000   0.08171
 119        4S          0.00000   0.00000   0.00000   0.00000   0.01262
 120        5S          0.00000   0.00000   0.00000   0.00000   0.07022
 121        6S          0.00000   0.00000   0.00000   0.00000   0.02032
 122        7PX        -0.00197  -0.00872  -0.04111  -0.01569   0.00010
 123        7PY        -0.00872   0.00197  -0.01569   0.04111  -0.00041
 124        7PZ         0.00000   0.00000   0.00001  -0.00002   0.02453
 125        8PX         0.00466   0.02064   0.09714   0.03707  -0.00023
 126        8PY         0.02064  -0.00466   0.03707  -0.09714   0.00094
 127        8PZ        -0.00001   0.00000  -0.00003   0.00004  -0.05758
 128        9PX         0.00216   0.00958   0.04493   0.01714  -0.00011
 129        9PY         0.00958  -0.00216   0.01714  -0.04493   0.00046
 130        9PZ         0.00000   0.00000  -0.00002   0.00002  -0.02881
 131       10PX         0.00231   0.01021   0.05230   0.01996  -0.00017
 132       10PY         0.01021  -0.00231   0.01996  -0.05230   0.00067
 133       10PZ         0.00000   0.00000  -0.00002   0.00002  -0.06923
 134       11PX         0.00046   0.00204   0.00307   0.00117  -0.00003
 135       11PY         0.00204  -0.00046   0.00117  -0.00307   0.00011
 136       11PZ         0.00000   0.00000   0.00000   0.00000  -0.02361
 137       12D 0        0.00000   0.00000   0.00000   0.00000  -0.00491
 138       12D+1       -0.00043  -0.00190  -0.00593  -0.00226   0.00000
 139       12D-1       -0.00190   0.00043  -0.00226   0.00593   0.00000
 140       12D+2        0.00012  -0.00003   0.00020  -0.00053   0.00000
 141       12D-2        0.00003   0.00011   0.00052   0.00020   0.00000
 142       13D 0        0.00000   0.00000   0.00001  -0.00001  -0.00781
 143       13D+1       -0.00066  -0.00292  -0.01041  -0.00397   0.00000
 144       13D-1       -0.00292   0.00066  -0.00397   0.01041  -0.00001
 145       13D+2        0.00032  -0.00007   0.00023  -0.00061   0.00000
 146       13D-2        0.00007   0.00032   0.00060   0.00023   0.00000
 147       14D 0        0.00000   0.00000   0.00000   0.00000   0.00133
 148       14D+1        0.00002   0.00007   0.00004   0.00002   0.00000
 149       14D-1        0.00007  -0.00002   0.00002  -0.00004  -0.00001
 150       14D+2       -0.00065   0.00015  -0.00002   0.00006   0.00000
 151       14D-2       -0.00015  -0.00065  -0.00006  -0.00002   0.00000
 152       15F 0        0.00000   0.00000   0.00000   0.00000   0.00103
 153       15F+1        0.00020   0.00089   0.00250   0.00096   0.00000
 154       15F-1        0.00088  -0.00020   0.00096  -0.00250   0.00000
 155       15F+2       -0.00011   0.00003  -0.00012   0.00032   0.00000
 156       15F-2       -0.00002  -0.00011  -0.00032  -0.00012   0.00000
 157       15F+3        0.00000   0.00000   0.00000   0.00000   0.00000
 158       15F-3        0.00000   0.00000   0.00000   0.00000  -0.00007
 159       16F 0        0.00000   0.00000   0.00000   0.00000   0.00144
 160       16F+1        0.00013   0.00059   0.00187   0.00071   0.00000
 161       16F-1        0.00059  -0.00013   0.00071  -0.00187   0.00000
 162       16F+2        0.00001   0.00000   0.00007  -0.00018   0.00000
 163       16F-2        0.00000   0.00001   0.00018   0.00007   0.00000
 164       16F+3        0.00000   0.00000   0.00000   0.00000   0.00000
 165       16F-3        0.00000   0.00000   0.00000   0.00000   0.00015
 166 6   F  1S          0.00000   0.00000   0.00000   0.00000  -0.01162
 167        2S          0.00000   0.00000   0.00000   0.00000   0.02557
 168        3S          0.00000   0.00000   0.00000   0.00000   0.00779
 169        4S          0.00000   0.00000   0.00000   0.00000   0.01656
 170        5S          0.00000   0.00000   0.00000   0.00000   0.00452
 171        6PX         0.07309   0.32375  -0.15169  -0.05789   0.00005
 172        6PY         0.32375  -0.07309  -0.05789   0.15169   0.00020
 173        6PZ        -0.00016  -0.00002   0.00005  -0.00006   0.34792
 174        7PX         0.08719   0.38620  -0.17987  -0.06864   0.00006
 175        7PY         0.38620  -0.08719  -0.06864   0.17987   0.00024
 176        7PZ        -0.00019  -0.00003   0.00006  -0.00007   0.41480
 177        8PX         0.07051   0.31231  -0.15133  -0.05775   0.00005
 178        8PY         0.31231  -0.07051  -0.05775   0.15134   0.00020
 179        8PZ        -0.00016  -0.00002   0.00005  -0.00006   0.34184
 180        9PX         0.02223   0.09847  -0.05349  -0.02041   0.00001
 181        9PY         0.09847  -0.02223  -0.02041   0.05349   0.00007
 182        9PZ        -0.00005  -0.00001   0.00002  -0.00002   0.10710
 183       10D 0        0.00000   0.00000   0.00000   0.00000   0.00080
 184       10D+1        0.00013   0.00058   0.00009   0.00003   0.00000
 185       10D-1        0.00058  -0.00013   0.00003  -0.00009   0.00000
 186       10D+2        0.00002   0.00000   0.00001  -0.00003   0.00000
 187       10D-2        0.00001   0.00002   0.00003   0.00001   0.00000
 188       11D 0        0.00000   0.00000   0.00000   0.00000   0.00202
 189       11D+1        0.00053   0.00236   0.00113   0.00043   0.00000
 190       11D-1        0.00236  -0.00053   0.00043  -0.00114   0.00000
 191       11D+2        0.00005  -0.00001   0.00009  -0.00024   0.00000
 192       11D-2        0.00001   0.00005   0.00024   0.00009   0.00000
 193       12D 0        0.00000   0.00000   0.00000   0.00000   0.00958
 194       12D+1        0.00130   0.00577  -0.00333  -0.00127   0.00000
 195       12D-1        0.00577  -0.00130  -0.00127   0.00333   0.00001
 196       12D+2        0.00003  -0.00001  -0.00010   0.00026   0.00000
 197       12D-2        0.00001   0.00003  -0.00026  -0.00010   0.00000
 198       13F 0        0.00000   0.00000   0.00000   0.00000   0.00018
 199       13F+1        0.00005   0.00021   0.00024   0.00009   0.00000
 200       13F-1        0.00021  -0.00005   0.00009  -0.00024   0.00000
 201       13F+2        0.00005  -0.00001   0.00004  -0.00010   0.00000
 202       13F-2        0.00001   0.00005   0.00010   0.00004   0.00000
 203       13F+3        0.00000   0.00000   0.00000   0.00000   0.00000
 204       13F-3        0.00000   0.00000   0.00000   0.00000  -0.00003
 205       14F 0        0.00000   0.00000   0.00000   0.00000   0.00178
 206       14F+1        0.00032   0.00141  -0.00081  -0.00031   0.00000
 207       14F-1        0.00141  -0.00032  -0.00031   0.00081   0.00000
 208       14F+2       -0.00013   0.00003  -0.00008   0.00022   0.00000
 209       14F-2       -0.00003  -0.00013  -0.00022  -0.00008   0.00000
 210       14F+3        0.00000   0.00000   0.00000   0.00000   0.00000
 211       14F-3        0.00000   0.00000   0.00000   0.00000   0.00009
                          16        17        18        19        20
     Eigenvalues --     1.94911   1.94911   1.93544   0.05980   0.02495
   1 1   C  1S          0.00005  -0.00009  -0.01610  -0.02421   0.00000
   2        2S         -0.00015   0.00025   0.05183   0.06700  -0.00001
   3        3S         -0.00004   0.00006   0.01687   0.02413  -0.00001
   4        4S         -0.00029   0.00049   0.09514  -0.22829   0.00003
   5        5S         -0.00006   0.00010   0.04059  -0.02842   0.00001
   6        6PX         0.04956   0.04738  -0.00002   0.00005   0.01753
   7        6PY         0.04738  -0.04956  -0.00006   0.00012   0.15259
   8        6PZ        -0.00008   0.00009  -0.12931   0.27927  -0.00007
   9        7PX         0.06886   0.06583  -0.00003   0.00008   0.03255
  10        7PY         0.06583  -0.06886  -0.00008   0.00019   0.28337
  11        7PZ        -0.00011   0.00013  -0.18152   0.44403  -0.00013
  12        8PX         0.05310   0.05077  -0.00001   0.00004   0.01490
  13        8PY         0.05077  -0.05310  -0.00003   0.00009   0.12971
  14        8PZ        -0.00010   0.00012  -0.07524   0.20252  -0.00006
  15        9PX         0.00898   0.00859   0.00000   0.00000   0.00335
  16        9PY         0.00859  -0.00898   0.00000   0.00000   0.02919
  17        9PZ        -0.00001   0.00000  -0.00152  -0.00009  -0.00001
  18       10D 0        0.00001  -0.00002  -0.01129  -0.00892  -0.00002
  19       10D+1       -0.00275  -0.00263   0.00000   0.00000   0.00291
  20       10D-1       -0.00263   0.00275  -0.00001  -0.00001   0.02538
  21       10D+2        0.00351  -0.00367   0.00000   0.00000   0.00386
  22       10D-2        0.00367   0.00351   0.00000   0.00000   0.00045
  23       11D 0        0.00006  -0.00009  -0.04679   0.06871  -0.00005
  24       11D+1       -0.01125  -0.01075  -0.00001   0.00002   0.00689
  25       11D-1       -0.01075   0.01123  -0.00004   0.00005   0.06015
  26       11D+2        0.01191  -0.01246   0.00000   0.00000   0.06911
  27       11D-2        0.01244   0.01191   0.00000   0.00000   0.00793
  28       12D 0        0.00003  -0.00005  -0.00404  -0.01594  -0.00001
  29       12D+1        0.00097   0.00093   0.00000   0.00000   0.00214
  30       12D-1        0.00094  -0.00098   0.00000  -0.00001   0.01867
  31       12D+2        0.00704  -0.00736   0.00000   0.00000   0.01392
  32       12D-2        0.00736   0.00704   0.00000   0.00000   0.00160
  33       13F 0        0.00000   0.00000  -0.00333  -0.00561   0.00001
  34       13F+1       -0.00164  -0.00157   0.00000   0.00000  -0.00108
  35       13F-1       -0.00157   0.00164   0.00000  -0.00001  -0.00938
  36       13F+2       -0.00023   0.00024   0.00000   0.00000   0.00313
  37       13F-2       -0.00024  -0.00023   0.00000   0.00000   0.00035
  38       13F+3        0.00000   0.00000   0.00000   0.00000   0.00000
  39       13F-3        0.00000   0.00001   0.00120  -0.00054   0.00000
  40       14F 0        0.00000   0.00001  -0.00061   0.01185   0.00000
  41       14F+1       -0.00526  -0.00503   0.00000   0.00001  -0.00025
  42       14F-1       -0.00503   0.00526   0.00000   0.00001  -0.00219
  43       14F+2       -0.00222   0.00232  -0.00001   0.00002  -0.00192
  44       14F-2       -0.00233  -0.00223   0.00000   0.00001  -0.00022
  45       14F+3        0.00000   0.00000   0.00000  -0.00001   0.00000
  46       14F-3       -0.00002   0.00003   0.00969  -0.03842   0.00000
  47 2   H  1S         -0.03270   0.03421   0.02931  -0.00639   0.04012
  48        2S         -0.03226   0.03374   0.02210   0.08251   0.25478
  49        3S          0.00344  -0.00361   0.01952   0.07132   0.16104
  50        4S          0.00079  -0.00082   0.00190   0.00738   0.07216
  51        5PX         0.00077   0.00074   0.00000   0.00000   0.00031
  52        5PY        -0.00251   0.00263   0.00250  -0.00197  -0.00866
  53        5PZ         0.00013  -0.00013  -0.00322   0.01433  -0.01214
  54        6PX         0.00273   0.00261   0.00000   0.00001   0.00085
  55        6PY         0.00390  -0.00409  -0.00177   0.01015   0.05827
  56        6PZ        -0.00077   0.00081  -0.01035   0.02839  -0.00541
  57        7PX         0.00206   0.00197   0.00000   0.00000  -0.00022
  58        7PY         0.00676  -0.00708  -0.00194   0.01320   0.04998
  59        7PZ         0.00204  -0.00214   0.00317  -0.01402   0.00519
  60        8D 0        0.00029  -0.00030  -0.00086   0.00056   0.00255
  61        8D+1       -0.00002  -0.00002   0.00000   0.00000   0.00021
  62        8D-1       -0.00020   0.00021  -0.00173   0.00677  -0.00392
  63        8D+2        0.00037  -0.00038  -0.00060   0.00187   0.00254
  64        8D-2        0.00044   0.00042   0.00000   0.00000   0.00024
  65        9D 0       -0.00009   0.00009  -0.00289   0.00606  -0.00327
  66        9D+1       -0.00085  -0.00081   0.00000   0.00000   0.00051
  67        9D-1       -0.00030   0.00031  -0.00053  -0.00584   0.01544
  68        9D+2       -0.00075   0.00078   0.00033  -0.00110  -0.00940
  69        9D-2        0.00082   0.00079   0.00000   0.00000   0.00014
  70 3   H  1S         -0.01328  -0.04531   0.02931  -0.00639  -0.01607
  71        2S         -0.01309  -0.04480   0.02210   0.08251  -0.10207
  72        3S          0.00141   0.00471   0.01952   0.07131  -0.06452
  73        4S          0.00032   0.00109   0.00190   0.00738  -0.02891
  74        5PX        -0.00037  -0.00316   0.00216  -0.00171   0.00427
  75        5PY         0.00140   0.00148  -0.00125   0.00100   0.00045
  76        5PZ         0.00005   0.00018  -0.00321   0.01433   0.00486
  77        6PX         0.00319   0.00415  -0.00153   0.00878  -0.01680
  78        6PY         0.00235  -0.00362   0.00088  -0.00506   0.01759
  79        6PZ        -0.00032  -0.00107  -0.01035   0.02840   0.00215
  80        7PX         0.00375   0.00770  -0.00168   0.01143  -0.01826
  81        7PY         0.00100  -0.00537   0.00097  -0.00661   0.00843
  82        7PZ         0.00083   0.00282   0.00317  -0.01401  -0.00209
  83        8D 0        0.00012   0.00040  -0.00086   0.00056  -0.00102
  84        8D+1       -0.00009  -0.00023  -0.00150   0.00586   0.00219
  85        8D-1        0.00001   0.00015   0.00086  -0.00338   0.00065
  86        8D+2        0.00043  -0.00040   0.00030  -0.00094   0.00217
  87        8D-2        0.00042   0.00035  -0.00052   0.00163   0.00008
  88        9D 0       -0.00003  -0.00013  -0.00289   0.00605   0.00130
  89        9D+1       -0.00067  -0.00020  -0.00046  -0.00506  -0.00330
  90        9D-1       -0.00091   0.00050   0.00026   0.00293   0.00666
  91        9D+2        0.00110   0.00024  -0.00017   0.00055  -0.00096
  92        9D-2        0.00028  -0.00106   0.00029  -0.00095   0.00379
  93 4   H  1S          0.04588   0.01126   0.02931  -0.00639  -0.02404
  94        2S          0.04534   0.01108   0.02210   0.08251  -0.15271
  95        3S         -0.00478  -0.00121   0.01952   0.07131  -0.09653
  96        4S         -0.00111  -0.00027   0.00190   0.00738  -0.04325
  97        5PX        -0.00318  -0.00023  -0.00216   0.00172  -0.00560
  98        5PY        -0.00154  -0.00133  -0.00125   0.00100  -0.00067
  99        5PZ        -0.00018  -0.00004  -0.00321   0.01433   0.00728
 100        6PX         0.00429   0.00300   0.00153  -0.00877   0.02726
 101        6PY         0.00351  -0.00251   0.00088  -0.00505   0.02264
 102        6PZ         0.00108   0.00027  -0.01035   0.02840   0.00321
 103        7PX         0.00787   0.00341   0.00169  -0.01144   0.02675
 104        7PY         0.00532  -0.00123   0.00097  -0.00660   0.01359
 105        7PZ        -0.00286  -0.00071   0.00317  -0.01401  -0.00313
 106        8D 0       -0.00041  -0.00010  -0.00086   0.00057  -0.00153
 107        8D+1       -0.00024  -0.00008   0.00150  -0.00586  -0.00276
 108        8D-1       -0.00015  -0.00001   0.00086  -0.00338   0.00008
 109        8D+2        0.00038  -0.00045   0.00030  -0.00094   0.00221
 110        8D-2        0.00037   0.00040   0.00052  -0.00163   0.00048
 111        9D 0        0.00013   0.00003  -0.00289   0.00605   0.00195
 112        9D+1       -0.00023  -0.00066   0.00046   0.00507   0.00622
 113        9D-1       -0.00045   0.00094   0.00026   0.00293   0.00776
 114        9D+2       -0.00029  -0.00109  -0.00017   0.00055  -0.00201
 115        9D-2       -0.00105   0.00033  -0.00029   0.00096  -0.00534
 116 5   Cl 1S          0.00001  -0.00002   0.00043  -0.01693   0.00000
 117        2S         -0.00004   0.00007  -0.00140   0.05691   0.00000
 118        3S          0.00008  -0.00014   0.01073  -0.15786   0.00000
 119        4S          0.00001  -0.00002   0.00446  -0.04004   0.00000
 120        5S          0.00007  -0.00012   0.01147  -0.04901   0.00000
 121        6S          0.00002  -0.00003  -0.01310   0.01422   0.00000
 122        7PX         0.16158   0.15448  -0.00004  -0.00003   0.00242
 123        7PY         0.15448  -0.16158  -0.00009  -0.00007   0.02103
 124        7PZ        -0.00007   0.00000  -0.21024  -0.16396  -0.00001
 125        8PX        -0.36976  -0.35351   0.00008   0.00006  -0.00378
 126        8PY        -0.35351   0.36975   0.00020   0.00016  -0.03287
 127        8PZ         0.00016   0.00000   0.46500   0.36295   0.00001
 128        9PX        -0.17859  -0.17074   0.00004   0.00004  -0.00401
 129        9PY        -0.17074   0.17859   0.00010   0.00009  -0.03492
 130        9PZ         0.00008   0.00000   0.21839   0.20709   0.00001
[...]
  81        7PY        -0.63041   4.93389  -9.13523   0.98955  -1.14826
  82        7PZ        -1.52700  -3.38639  -0.04935   0.04943  -0.35203
  83        8D 0       -0.03809   0.01178   0.00024   0.02471   0.00809
  84        8D+1        0.01016  -0.02118  -0.02172   0.00799   0.00799
  85        8D-1       -0.00586   0.01304  -0.03669  -0.00456   0.00103
  86        8D+2        0.06278  -0.00588   0.10341   0.02439   0.01427
  87        8D-2       -0.10868   0.00629   0.05987  -0.04226   0.02822
  88        9D 0       -0.48726   0.47097   0.00757  -0.14818   0.11166
  89        9D+1       -0.22086  -0.17845   0.19414  -0.03236  -0.14349
  90        9D-1        0.12719   0.09543   0.34080   0.01816  -0.01190
  91        9D+2       -0.11253  -0.64989  -1.60920  -0.35728  -0.50700
  92        9D-2        0.19307   1.18605  -0.90309   0.61923  -0.15678
  93 4   H  1S         -0.03459  -0.00570  -0.01022  -0.00875   0.01535
  94        2S          0.20593   1.70093   3.05971  -0.54259  -1.26810
  95        3S          7.35396  13.66549  24.57278  -3.14326 -14.82083
  96        4S          1.55960  -0.90404  -1.62813  -1.95234  -6.37983
  97        5PX        -0.02717   0.09165   0.05490  -0.08127  -0.07901
  98        5PY        -0.01558  -0.05500   0.09168  -0.04690   0.00325
  99        5PZ         0.05926   0.00502   0.00890   0.03092   0.00643
 100        6PX        -0.56421  -1.65935  -1.46152   0.60894   0.86535
 101        6PY        -0.32683   0.53582  -1.67389   0.35147   0.01113
 102        6PZ        -0.32829   0.01547   0.02908  -0.16175  -0.09901
 103        7PX        -1.07759  -8.67705  -4.65971   1.71292   5.11686
 104        7PY        -0.63046   5.73031  -8.65802   0.98912  -0.35551
 105        7PZ        -1.52760   1.64329   2.96420   0.04891  -0.47451
 106        8D 0       -0.03808  -0.00577  -0.01028   0.02472   0.01085
 107        8D+1       -0.01019  -0.02911  -0.00847  -0.00798  -0.00965
 108        8D-1       -0.00589   0.02619  -0.02879  -0.00458  -0.00044
 109        8D+2        0.06285  -0.08837   0.05395   0.02441   0.00918
 110        8D-2        0.10864   0.05585  -0.02270   0.04225  -0.03211
 111        9D 0       -0.48729  -0.22899  -0.41165  -0.14820   0.14959
 112        9D+1        0.22066   0.08626  -0.24903   0.03239   0.17497
 113        9D-1        0.12729  -0.34543   0.07616   0.01836   0.01483
 114        9D+2       -0.11298   1.72535  -0.18522  -0.35755  -0.48545
 115        9D-2       -0.19312  -0.23800   1.47185  -0.61902   0.09836
 116 5   Cl 1S          0.02055   0.00001  -0.00001   0.01228   0.00000
 117        2S          0.28464   0.00014  -0.00014   0.17142   0.00000
 118        3S          0.79313   0.00038  -0.00038   0.48009   0.00000
 119        4S         -0.04283  -0.00002   0.00002  -0.01747   0.00000
 120        5S         -4.44856  -0.00212   0.00210  -3.14463   0.00004
 121        6S         -9.92014  -0.00437   0.00435 -13.51453   0.00005
 122        7PX         0.00000   0.00083   0.00050   0.00000  -0.00026
 123        7PY         0.00000  -0.00050   0.00083  -0.00001  -0.00306
 124        7PZ        -0.00414   0.00000   0.00000  -0.02296   0.00000
 125        8PX        -0.00001   0.01768   0.01060  -0.00006  -0.00508
 126        8PY        -0.00002  -0.01060   0.01769  -0.00015  -0.06034
 127        8PZ        -0.05651  -0.00001   0.00000  -0.31936   0.00003
 128        9PX         0.00000  -0.00400  -0.00240   0.00001   0.00087
 129        9PY         0.00000   0.00240  -0.00400   0.00004   0.01037
 130        9PZ         0.00027   0.00000   0.00000   0.08022   0.00000
 131       10PX         0.00107  -0.05448  -0.03265   0.00093   0.03608
 132       10PY         0.00262   0.03265  -0.05447   0.00227   0.42841
 133       10PZ         5.98857   0.00273  -0.00269   5.20439  -0.00022
 134       11PX         0.00033  -0.98864  -0.59255   0.00060  -0.02097
 135       11PY        -0.00039   0.59254  -0.98859   0.00151  -0.24901
 136       11PZ         0.79509   0.00021   0.00024   3.40187   0.00012
 137       12D 0        0.06804   0.00004  -0.00006   0.00282   0.00000
 138       12D+1        0.00002   0.02649   0.01588   0.00000  -0.00033
 139       12D-1        0.00007  -0.01587   0.02649   0.00000  -0.00394
 140       12D+2       -0.00001   0.00420  -0.00700   0.00000   0.01209
 141       12D-2        0.00000  -0.00698  -0.00418   0.00000   0.00101
 142       13D 0       -0.39322  -0.00020   0.00028  -0.07767  -0.00002
 143       13D+1       -0.00010  -0.09851  -0.05905  -0.00003   0.00223
 144       13D-1       -0.00037   0.05904  -0.09850  -0.00005   0.02630
 145       13D+2        0.00002  -0.00956   0.01593   0.00000  -0.04370
 146       13D-2        0.00000   0.01586   0.00947   0.00000  -0.00366
 147       14D 0       -1.41241  -0.00060   0.00039  -1.26762   0.00026
 148       14D+1       -0.00049   0.26295   0.15761  -0.00039  -0.02755
 149       14D-1       -0.00088  -0.15756   0.26289  -0.00096  -0.32658
 150       14D+2       -0.00004   0.03384  -0.05640   0.00000   0.20244
 151       14D-2        0.00001  -0.05625  -0.03362   0.00000   0.01689
 152       15F 0       -0.04261  -0.00002   0.00001   0.00044   0.00002
 153       15F+1       -0.00002   0.00443   0.00266   0.00000  -0.00149
 154       15F-1       -0.00004  -0.00265   0.00443   0.00000  -0.01759
 155       15F+2        0.00000   0.00485  -0.00810  -0.00001   0.01035
 156       15F-2        0.00000  -0.00810  -0.00485  -0.00001   0.00086
 157       15F+3        0.00000   0.00000   0.00000   0.00001   0.00000
 158       15F-3       -0.01031   0.00000   0.00000   0.02323   0.00001
 159       16F 0        0.23494   0.00010  -0.00009   0.09383  -0.00007
 160       16F+1        0.00011  -0.01338  -0.00803   0.00004   0.00516
 161       16F-1        0.00024   0.00798  -0.01333   0.00010   0.06105
 162       16F+2        0.00001  -0.02361   0.03942   0.00002  -0.04237
 163       16F-2       -0.00001   0.03941   0.02360   0.00001  -0.00353
 164       16F+3        0.00001  -0.00002   0.00000  -0.00002  -0.00001
 165       16F-3        0.02108   0.00001   0.00002  -0.04360  -0.00002
 166 6   F  1S          0.04044   0.00002  -0.00002  -0.02232   0.00000
 167        2S          0.14209   0.00007  -0.00007  -0.08478   0.00000
 168        3S         -0.07278  -0.00004   0.00004   0.03612   0.00000
 169        4S         -0.37079  -0.00019   0.00019  -0.02407   0.00001
 170        5S         -0.00967   0.00004  -0.00004  -5.94055   0.00005
 171        6PX         0.00000  -0.00627  -0.00376   0.00000   0.00014
 172        6PY         0.00000   0.00376  -0.00627   0.00000   0.00170
 173        6PZ         0.00542   0.00000   0.00000   0.00223   0.00000
 174        7PX        -0.00002   0.03227   0.01934   0.00000  -0.00052
 175        7PY         0.00000  -0.01934   0.03226   0.00000  -0.00614
 176        7PZ        -0.06384  -0.00003   0.00001   0.00232   0.00000
 177        8PX         0.00015  -0.22416  -0.13435  -0.00004   0.00007
 178        8PY         0.00011   0.13435  -0.22414  -0.00012   0.00080
 179        8PZ         0.63788   0.00028  -0.00018  -0.24127   0.00001
 180        9PX        -0.00002  -0.71247  -0.42702  -0.00043  -0.01963
 181        9PY        -0.00088   0.42702  -0.71243  -0.00113  -0.23317
 182        9PZ        -0.85618  -0.00042   0.00075  -2.49075   0.00013
 183       10D 0        0.01115   0.00000   0.00001  -0.00785   0.00000
 184       10D+1        0.00001  -0.01255  -0.00752   0.00000   0.00018
 185       10D-1        0.00000   0.00752  -0.01255  -0.00001   0.00215
 186       10D+2        0.00000  -0.00261   0.00435   0.00000   0.00284
 187       10D-2        0.00000   0.00434   0.00260   0.00000   0.00024
 188       11D 0       -0.04120  -0.00001  -0.00002   0.01530   0.00000
 189       11D+1       -0.00002   0.04029   0.02416   0.00000  -0.00030
 190       11D-1        0.00000  -0.02414   0.04029   0.00001  -0.00365
 191       11D+2       -0.00001   0.00886  -0.01477   0.00000  -0.01002
 192       11D-2        0.00000  -0.01474  -0.00882   0.00000  -0.00084
 193       12D 0        0.41551   0.00018  -0.00009  -0.00726   0.00003
 194       12D+1        0.00015  -0.11628  -0.06970   0.00000  -0.00271
 195       12D-1        0.00024   0.06965  -0.11623  -0.00001  -0.03207
 196       12D+2        0.00005  -0.03302   0.05510   0.00000   0.01895
 197       12D-2       -0.00001   0.05500   0.03291   0.00000   0.00158
 198       13F 0       -0.02738  -0.00002   0.00003  -0.00773  -0.00001
 199       13F+1       -0.00001  -0.01591  -0.00953   0.00000   0.00067
 200       13F-1       -0.00004   0.00954  -0.01591  -0.00001   0.00791
 201       13F+2       -0.00001   0.00463  -0.00774   0.00000   0.00254
 202       13F-2        0.00000  -0.00776  -0.00465   0.00000   0.00022
 203       13F+3        0.00000   0.00001   0.00000   0.00000   0.00000
 204       13F-3        0.01280   0.00001  -0.00001  -0.00146   0.00000
 205       14F 0        0.06807   0.00004  -0.00008   0.01236   0.00002
 206       14F+1        0.00002   0.03461   0.02073   0.00001  -0.00148
 207       14F-1        0.00010  -0.02077   0.03463   0.00001  -0.01763
 208       14F+2        0.00002  -0.01291   0.02158   0.00000  -0.00618
 209       14F-2        0.00000   0.02162   0.01296   0.00000  -0.00053
 210       14F+3       -0.00001  -0.00002  -0.00001   0.00000   0.00000
 211       14F-3       -0.01735  -0.00001   0.00002   0.00273   0.00000
                         211
     Eigenvalues --     0.00000
   1 1   C  1S          0.00000
   2        2S          0.00000
   3        3S          0.00000
   4        4S          0.00002
   5        5S          0.00006
   6        6PX         0.00742
   7        6PY        -0.00062
   8        6PZ         0.00000
   9        7PX        -1.53151
  10        7PY         0.12895
  11        7PZ         0.00022
  12        8PX       -17.28441
  13        8PY         1.45542
  14        8PZ         0.00244
  15        9PX        -7.86353
  16        9PY         0.66216
  17        9PZ         0.00111
  18       10D 0        0.00000
  19       10D+1        0.00192
  20       10D-1       -0.00016
  21       10D+2        0.00185
  22       10D-2       -0.02202
  23       11D 0       -0.00005
  24       11D+1        0.20233
  25       11D-1       -0.01693
  26       11D+2        0.03476
  27       11D-2       -0.41416
  28       12D 0       -0.00033
  29       12D+1        1.27877
  30       12D-1       -0.10782
  31       12D+2       -0.04660
  32       12D-2        0.55977
  33       13F 0        0.00001
  34       13F+1       -0.03759
  35       13F-1        0.00317
  36       13F+2        0.00079
  37       13F-2       -0.00962
  38       13F+3        0.00001
  39       13F-3        0.00000
  40       14F 0       -0.00014
  41       14F+1        0.40115
  42       14F-1       -0.03381
  43       14F+2       -0.00619
  44       14F-2        0.07575
  45       14F+3       -0.00005
  46       14F-3        0.00001
  47 2   H  1S         -0.00225
  48        2S          0.18612
  49        3S          2.17529
  50        4S          0.93642
  51        5PX        -0.05135
  52        5PY        -0.00980
  53        5PZ        -0.00093
  54        6PX         0.51325
  55        6PY         0.11076
  56        6PZ         0.01437
  57        7PX         3.47774
  58        7PY         0.62397
  59        7PZ         0.06866
  60        8D 0       -0.00159
  61        8D+1       -0.00537
  62        8D-1       -0.00126
  63        8D+2       -0.00341
  64        8D-2       -0.02914
  65        9D 0       -0.02201
  66        9D+1        0.09014
  67        9D-1        0.02319
  68        9D+2       -0.02300
  69        9D-2        0.56987
  70 3   H  1S          0.02434
  71        2S         -2.01025
  72        3S        -23.49487
  73        4S        -10.11377
  74        5PX         0.08074
  75        5PY        -0.07196
  76        5PZ         0.01019
  77        6PX        -0.92690
  78        6PY         0.78840
  79        6PZ        -0.15688
  80        7PX        -5.09707
  81        7PY         4.65881
  82        7PZ        -0.75219
  83        8D 0        0.01720
  84        8D+1        0.01066
  85        8D-1       -0.00882
  86        8D+2       -0.02916
  87        8D-2        0.02564
  88        9D 0        0.23716
  89        9D+1       -0.19897
  90        9D-1        0.15960
  91        9D+2        0.08576
  92        9D-2        0.33818
  93 4   H  1S         -0.02208
  94        2S          1.82415
  95        3S         21.31949
  96        4S          9.17732
  97        5PX         0.06852
  98        5PY         0.07351
  99        5PZ        -0.00928
 100        6PX        -0.79370
 101        6PY        -0.79751
 102        6PZ         0.14268
 103        7PX        -4.30404
 104        7PY        -4.78403
 105        7PZ         0.68438
 106        8D 0       -0.01562
 107        8D+1        0.00916
 108        8D-1        0.00886
 109        8D+2        0.03115
 110        8D-2        0.02056
 111        9D 0       -0.21508
 112        9D+1       -0.17233
 113        9D-1       -0.15943
 114        9D+2       -0.16909
 115        9D-2        0.35964
 116 5   Cl 1S          0.00000
 117        2S          0.00000
 118        3S          0.00000
 119        4S          0.00000
 120        5S          0.00001
 121        6S          0.00001
 122        7PX         0.00306
 123        7PY        -0.00026
 124        7PZ         0.00000
 125        8PX         0.06034
 126        8PY        -0.00508
 127        8PZ        -0.00001
 128        9PX        -0.01037
 129        9PY         0.00087
 130        9PZ         0.00000
 131       10PX        -0.42841
 132       10PY         0.03607
 133       10PZ         0.00005
 134       11PX         0.24900
 135       11PY        -0.02097
 136       11PZ        -0.00003
 137       12D 0        0.00000
 138       12D+1        0.00395
 139       12D-1       -0.00033
 140       12D+2        0.00101
 141       12D-2       -0.01208
 142       13D 0        0.00001
 143       13D+1       -0.02633
 144       13D-1        0.00221
 145       13D+2       -0.00367
 146       13D-2        0.04368
 147       14D 0       -0.00008
 148       14D+1        0.32675
 149       14D-1       -0.02746
 150       14D+2        0.01703
 151       14D-2       -0.20217
 152       15F 0       -0.00001
 153       15F+1        0.01761
 154       15F-1       -0.00148
 155       15F+2        0.00087
 156       15F-2       -0.01032
 157       15F+3        0.00001
 158       15F-3        0.00000
 159       16F 0        0.00002
 160       16F+1       -0.06111
 161       16F-1        0.00513
 162       16F+2       -0.00357
 163       16F-2        0.04228
 164       16F+3       -0.00002
 165       16F-3        0.00001
 166 6   F  1S          0.00000
 167        2S          0.00000
 168        3S          0.00000
 169        4S          0.00000
 170        5S          0.00000
 171        6PX        -0.00170
 172        6PY         0.00014
 173        6PZ         0.00000
 174        7PX         0.00614
 175        7PY        -0.00052
 176        7PZ         0.00000
 177        8PX        -0.00080
 178        8PY         0.00007
 179        8PZ         0.00000
 180        9PX         0.23317
 181        9PY        -0.01963
 182        9PZ        -0.00003
 183       10D 0        0.00000
 184       10D+1       -0.00214
 185       10D-1        0.00018
 186       10D+2        0.00024
 187       10D-2       -0.00284
 188       11D 0        0.00000
 189       11D+1        0.00364
 190       11D-1       -0.00031
 191       11D+2       -0.00084
 192       11D-2        0.01002
 193       12D 0       -0.00001
 194       12D+1        0.03208
 195       12D-1       -0.00270
 196       12D+2        0.00159
 197       12D-2       -0.01892
 198       13F 0        0.00000
 199       13F+1       -0.00791
 200       13F-1        0.00067
 201       13F+2        0.00021
 202       13F-2       -0.00255
 203       13F+3        0.00000
 204       13F-3        0.00000
 205       14F 0       -0.00001
 206       14F+1        0.01762
 207       14F-1       -0.00149
 208       14F+2       -0.00051
 209       14F-2        0.00621
 210       14F+3        0.00000
 211       14F-3        0.00000
          Condensed to atoms (all electrons):
              1          2          3          4          5          6
     1  C    7.028652  -0.013220  -0.013225  -0.013226  -0.056696  -0.101165
     2  H   -0.013220   0.550816   0.020765   0.020765  -0.018582   0.004168
     3  H   -0.013225   0.020765   0.550819   0.020766  -0.018580   0.004173
     4  H   -0.013226   0.020765   0.020766   0.550819  -0.018581   0.004172
     5  Cl  -0.056696  -0.018582  -0.018580  -0.018581  17.711138   0.026731
     6  F   -0.101165   0.004168   0.004173   0.004172   0.026731   9.911227
 Mulliken atomic charges:
              1
     1  C   -0.831119
     2  H    0.435287
     3  H    0.435282
     4  H    0.435285
     5  Cl  -0.625429
     6  F   -0.849306
 Sum of Mulliken atomic charges =  -1.00000
 Mulliken charges with hydrogens summed into heavy atoms:
              1
     1  C    0.474735
     5  Cl  -0.625429
     6  F   -0.849306
 Sum of Mulliken charges with hydrogens summed into heavy atoms =  -1.00000
 Electronic spatial extent (au):  <R**2>=            488.2760
 Charge=             -1.0000 electrons
 Dipole moment (field-independent basis, Debye):
    X=             -0.0006    Y=              0.0007    Z=              4.1564  Tot=              4.1564
 Quadrupole moment (field-independent basis, Debye-Ang):
   XX=            -28.1727   YY=            -28.1727   ZZ=            -62.7735
   XY=              0.0000   XZ=             -0.0049   YZ=             -0.0144
 Traceless Quadrupole moment (field-independent basis, Debye-Ang):
   XX=             11.5336   YY=             11.5336   ZZ=            -23.0672
   XY=              0.0000   XZ=             -0.0049   YZ=             -0.0144
 Octapole moment (field-independent basis, Debye-Ang**2):
  XXX=             -0.0243  YYY=             -0.9721  ZZZ=             50.8404  XYY=             -0.0086
  XXY=              0.9382  XXZ=             -4.0303  XZZ=             -0.0065  YZZ=              0.0113
  YYZ=             -4.0294  XYZ=             -0.0002
 Hexadecapole moment (field-independent basis, Debye-Ang**3):
 XXXX=            -41.2386 YYYY=            -41.2385 ZZZZ=           -758.9865 XXXY=              0.0004
 XXXZ=             -0.0504 YYYX=             -0.0002 YYYZ=              0.5116 ZZZX=             -0.0653
 ZZZY=             -0.1885 XXYY=            -13.7463 XXZZ=           -102.9081 YYZZ=           -102.9092
 XXYZ=             -0.6740 YYXZ=             -0.0165 ZZXY=              0.0002
 N-N= 8.518694642282D+01 E-N=-1.604594272148D+03  KE= 5.992016154653D+02
 1\1\GINC-TRAPISTA\SP\RQCISD-FC\Aug-CC-pVTZ\C1H3Cl1F1(1-)\BRUNS\24-Aug-
 2020\0\\# QCISD aug-cc-pvtz nosymm density=current output=wfn\\clch3f_
 ts-wavefunction\\-1,1\C,0,0.000175,0.000029,-0.497709\H,0,0.000019,-1.
 05257,-0.620726\H,0,-0.911312,0.526365,-0.621245\H,0,0.91175,0.526132,
 -0.62157\Cl,0,0.000555,0.000962,1.634718\F,0,-0.000186,-0.000921,-2.59
 3468\\Version=EM64L-G09RevB.01\HF=-598.6171143\MP2=-599.2914833\MP3=-5
 99.3101666\MP4D=-599.325044\MP4DQ=-599.3106081\MP4SDQ=-599.319924\QCIS
 D=-599.3192872\RMSD=9.258e-09\Dipole=0.0002763,0.0007358,1.6136087\Qua
 drupole=8.5749313,8.5749304,-17.1498618,-0.0000022,-0.0036749,-0.01073
 45\PG=C01 [X(C1H3Cl1F1)]\\@

 Writing a WFN file to GAUSSIAN.wfn.


 THE WORLD OF CHEMICAL REACTIONS IS LIKE A STAGE,
 ON WHICH SCENE AFTER SCENE IS CEASELESSLY PLAYED.
 THE ACTORS ON IT ARE THE ELEMENTS.
   -- CLEMENS WINKLER   BER. 30,13(1897)
 (DISCOVERER OF GERMANIUM, FEB 6, 1886)
 Job cpu time:  0 days  4 hours  1 minutes 40.5 seconds.
 File lengths (MBytes):  RWF=  29002 Int=      0 D2E=      0 Chk=      4 Scr=      1
 Normal termination of Gaussian 09 at Mon Aug 24 10:55:43 2020.
