 clch3f_ts-wavefunction
GAUSSIAN            211 MOL ORBITALS    339 PRIMITIVES        6 NUCLEI
  C    1    (CENTRE  1)   0.00033070  0.00005480 -0.94053370  CHARGE =  6.0
  H    2    (CENTRE  2)   0.00003590 -1.98906904 -1.17300214  CHARGE =  1.0
  H    3    (CENTRE  3)  -1.72213010  0.99468570 -1.17398291  CHARGE =  1.0
  H    4    (CENTRE  4)   1.72295780  0.97534813 -1.17459707  CHARGE =  1.0
  Cl   5    (CENTRE  5)   0.00104880  0.00181792  3.10806659  CHARGE = 17.0
  F    6    (CENTRE  6)  -0.00035149 -0.00174044 -4.90094425  CHARGE =  9.0
CENTRE ASSIGNMENTS    1  1  1  1  1  1  1  1  1  1  1  1  1  1  1  1  1  1  1  1
CENTRE ASSIGNMENTS    1  1  1  1  1  1  1  1  1  1  1  1  1  1  1  1  1  1  1  1
CENTRE ASSIGNMENTS    1  1  1  1  1  1  1  1  1  1  1  1  1  1  1  1  1  1  1  1
CENTRE ASSIGNMENTS    1  1  1  1  1  1  1  1  1  1  1  1  2  2  2  2  2  2  2  2
CENTRE ASSIGNMENTS    2  2  2  2  2  2  2  2  2  2  2  2  2  2  2  2  2  2  2  3
CENTRE ASSIGNMENTS    3  3  3  3  3  3  3  3  3  3  3  3  3  3  3  3  3  3  3  3
CENTRE ASSIGNMENTS    3  3  3  3  3  3  4  4  4  4  4  4  4  4  4  4  4  4  4  4
CENTRE ASSIGNMENTS    4  4  4  4  4  4  4  4  4  4  4  4  4  5  5  5  5  5  5  5
CENTRE ASSIGNMENTS    5  5  5  5  5  5  5  5  5  5  5  5  5  5  5  5  5  5  5  5
CENTRE ASSIGNMENTS    5  5  5  5  5  5  5  5  5  5  5  5  5  5  5  5  5  5  5  5
CENTRE ASSIGNMENTS    5  5  5  5  5  5  5  5  5  5  5  5  5  5  5  5  5  5  5  5
CENTRE ASSIGNMENTS    5  5  5  5  5  5  5  5  5  5  5  5  5  5  5  5  5  5  5  5
CENTRE ASSIGNMENTS    5  5  5  5  5  5  5  5  5  5  5  5  5  5  5  5  5  5  5  5
CENTRE ASSIGNMENTS    5  5  5  5  5  5  5  6  6  6  6  6  6  6  6  6  6  6  6  6
CENTRE ASSIGNMENTS    6  6  6  6  6  6  6  6  6  6  6  6  6  6  6  6  6  6  6  6
CENTRE ASSIGNMENTS    6  6  6  6  6  6  6  6  6  6  6  6  6  6  6  6  6  6  6  6
CENTRE ASSIGNMENTS    6  6  6  6  6  6  6  6  6  6  6  6  6  6  6  6  6  6  6
TYPE ASSIGNMENTS      1  1  1  1  1  1  1  1  1  1  1  1  1  1  1  1  2  2  2  3
TYPE ASSIGNMENTS      3  3  4  4  4  2  3  4  2  3  4  2  3  4  5  6  7  8  9 10
TYPE ASSIGNMENTS      5  6  7  8  9 10  5  6  7  8  9 10 11 12 13 17 14 15 18 19
TYPE ASSIGNMENTS     16 20 11 12 13 17 14 15 18 19 16 20  1  1  1  1  1  1  2  3
TYPE ASSIGNMENTS      4  2  3  4  2  3  4  5  6  7  8  9 10  5  6  7  8  9 10  1
TYPE ASSIGNMENTS      1  1  1  1  1  2  3  4  2  3  4  2  3  4  5  6  7  8  9 10
TYPE ASSIGNMENTS      5  6  7  8  9 10  1  1  1  1  1  1  2  3  4  2  3  4  2  3
TYPE ASSIGNMENTS      4  5  6  7  8  9 10  5  6  7  8  9 10  1  1  1  1  1  1  1
TYPE ASSIGNMENTS      1  1  1  1  1  1  1  1  1  1  1  1  1  1  1  1  1  1  1  1
TYPE ASSIGNMENTS      1  1  1  1  2  2  2  2  2  2  3  3  3  3  3  3  4  4  4  4
TYPE ASSIGNMENTS      4  4  2  2  2  2  2  2  3  3  3  3  3  3  4  4  4  4  4  4
TYPE ASSIGNMENTS      2  3  4  2  3  4  2  3  4  5  6  7  8  9 10  5  6  7  8  9
TYPE ASSIGNMENTS     10  5  6  7  8  9 10 11 12 13 17 14 15 18 19 16 20 11 12 13
TYPE ASSIGNMENTS     17 14 15 18 19 16 20  1  1  1  1  1  1  1  1  1  1  1  1  1
TYPE ASSIGNMENTS      1  1  1  2  2  2  3  3  3  4  4  4  2  3  4  2  3  4  2  3
TYPE ASSIGNMENTS      4  5  6  7  8  9 10  5  6  7  8  9 10  5  6  7  8  9 10 11
TYPE ASSIGNMENTS     12 13 17 14 15 18 19 16 20 11 12 13 17 14 15 18 19 16 20
EXPONENTS  0.8236000D+04 0.1235000D+04 0.2808000D+03 0.7927000D+02 0.2559000D+02
EXPONENTS  0.8997000D+01 0.3319000D+01 0.2808000D+03 0.7927000D+02 0.2559000D+02
EXPONENTS  0.8997000D+01 0.3319000D+01 0.3643000D+00 0.9059000D+00 0.1285000D+00
EXPONENTS  0.4402000D-01 0.1871000D+02 0.4133000D+01 0.1200000D+01 0.1871000D+02
EXPONENTS  0.4133000D+01 0.1200000D+01 0.1871000D+02 0.4133000D+01 0.1200000D+01
EXPONENTS  0.3827000D+00 0.3827000D+00 0.3827000D+00 0.1209000D+00 0.1209000D+00
EXPONENTS  0.1209000D+00 0.3569000D-01 0.3569000D-01 0.3569000D-01 0.1097000D+01
EXPONENTS  0.1097000D+01 0.1097000D+01 0.1097000D+01 0.1097000D+01 0.1097000D+01
EXPONENTS  0.3180000D+00 0.3180000D+00 0.3180000D+00 0.3180000D+00 0.3180000D+00
EXPONENTS  0.3180000D+00 0.1000000D+00 0.1000000D+00 0.1000000D+00 0.1000000D+00
EXPONENTS  0.1000000D+00 0.1000000D+00 0.7610000D+00 0.7610000D+00 0.7610000D+00
EXPONENTS  0.7610000D+00 0.7610000D+00 0.7610000D+00 0.7610000D+00 0.7610000D+00
EXPONENTS  0.7610000D+00 0.7610000D+00 0.2680000D+00 0.2680000D+00 0.2680000D+00
EXPONENTS  0.2680000D+00 0.2680000D+00 0.2680000D+00 0.2680000D+00 0.2680000D+00
EXPONENTS  0.2680000D+00 0.2680000D+00 0.3387000D+02 0.5095000D+01 0.1159000D+01
EXPONENTS  0.3258000D+00 0.1027000D+00 0.2526000D-01 0.1407000D+01 0.1407000D+01
EXPONENTS  0.1407000D+01 0.3880000D+00 0.3880000D+00 0.3880000D+00 0.1020000D+00
EXPONENTS  0.1020000D+00 0.1020000D+00 0.1057000D+01 0.1057000D+01 0.1057000D+01
EXPONENTS  0.1057000D+01 0.1057000D+01 0.1057000D+01 0.2470000D+00 0.2470000D+00
EXPONENTS  0.2470000D+00 0.2470000D+00 0.2470000D+00 0.2470000D+00 0.3387000D+02
EXPONENTS  0.5095000D+01 0.1159000D+01 0.3258000D+00 0.1027000D+00 0.2526000D-01
EXPONENTS  0.1407000D+01 0.1407000D+01 0.1407000D+01 0.3880000D+00 0.3880000D+00
EXPONENTS  0.3880000D+00 0.1020000D+00 0.1020000D+00 0.1020000D+00 0.1057000D+01
EXPONENTS  0.1057000D+01 0.1057000D+01 0.1057000D+01 0.1057000D+01 0.1057000D+01
EXPONENTS  0.2470000D+00 0.2470000D+00 0.2470000D+00 0.2470000D+00 0.2470000D+00
EXPONENTS  0.2470000D+00 0.3387000D+02 0.5095000D+01 0.1159000D+01 0.3258000D+00
EXPONENTS  0.1027000D+00 0.2526000D-01 0.1407000D+01 0.1407000D+01 0.1407000D+01
EXPONENTS  0.3880000D+00 0.3880000D+00 0.3880000D+00 0.1020000D+00 0.1020000D+00
EXPONENTS  0.1020000D+00 0.1057000D+01 0.1057000D+01 0.1057000D+01 0.1057000D+01
EXPONENTS  0.1057000D+01 0.1057000D+01 0.2470000D+00 0.2470000D+00 0.2470000D+00
EXPONENTS  0.2470000D+00 0.2470000D+00 0.2470000D+00 0.4561000D+06 0.6833000D+05
EXPONENTS  0.1555000D+05 0.4405000D+04 0.1439000D+04 0.5204000D+03 0.2031000D+03
EXPONENTS  0.8396000D+02 0.3620000D+02 0.1583000D+02 0.6334000D+01 0.4405000D+04
EXPONENTS  0.1439000D+04 0.5204000D+03 0.2031000D+03 0.8396000D+02 0.3620000D+02
EXPONENTS  0.1583000D+02 0.6334000D+01 0.2694000D+01 0.1439000D+04 0.2031000D+03
EXPONENTS  0.8396000D+02 0.3620000D+02 0.1583000D+02 0.6334000D+01 0.2694000D+01
EXPONENTS  0.4313000D+00 0.9768000D+00 0.1625000D+00 0.5910000D-01 0.6633000D+03
EXPONENTS  0.1568000D+03 0.4998000D+02 0.1842000D+02 0.7240000D+01 0.2922000D+01
EXPONENTS  0.6633000D+03 0.1568000D+03 0.4998000D+02 0.1842000D+02 0.7240000D+01
EXPONENTS  0.2922000D+01 0.6633000D+03 0.1568000D+03 0.4998000D+02 0.1842000D+02
EXPONENTS  0.7240000D+01 0.2922000D+01 0.1568000D+03 0.4998000D+02 0.1842000D+02
EXPONENTS  0.7240000D+01 0.2922000D+01 0.3818000D+00 0.1568000D+03 0.4998000D+02
EXPONENTS  0.1842000D+02 0.7240000D+01 0.2922000D+01 0.3818000D+00 0.1568000D+03
EXPONENTS  0.4998000D+02 0.1842000D+02 0.7240000D+01 0.2922000D+01 0.3818000D+00
EXPONENTS  0.1022000D+01 0.1022000D+01 0.1022000D+01 0.1301000D+00 0.1301000D+00
EXPONENTS  0.1301000D+00 0.4190000D-01 0.4190000D-01 0.4190000D-01 0.1046000D+01
EXPONENTS  0.1046000D+01 0.1046000D+01 0.1046000D+01 0.1046000D+01 0.1046000D+01
EXPONENTS  0.3440000D+00 0.3440000D+00 0.3440000D+00 0.3440000D+00 0.3440000D+00
EXPONENTS  0.3440000D+00 0.1350000D+00 0.1350000D+00 0.1350000D+00 0.1350000D+00
EXPONENTS  0.1350000D+00 0.1350000D+00 0.7060000D+00 0.7060000D+00 0.7060000D+00
EXPONENTS  0.7060000D+00 0.7060000D+00 0.7060000D+00 0.7060000D+00 0.7060000D+00
EXPONENTS  0.7060000D+00 0.7060000D+00 0.3120000D+00 0.3120000D+00 0.3120000D+00
EXPONENTS  0.3120000D+00 0.3120000D+00 0.3120000D+00 0.3120000D+00 0.3120000D+00
EXPONENTS  0.3120000D+00 0.3120000D+00 0.1950000D+05 0.2923000D+04 0.6645000D+03
EXPONENTS  0.1875000D+03 0.6062000D+02 0.2142000D+02 0.7950000D+01 0.6645000D+03
EXPONENTS  0.1875000D+03 0.6062000D+02 0.2142000D+02 0.7950000D+01 0.8815000D+00
EXPONENTS  0.2257000D+01 0.3041000D+00 0.9158000D-01 0.4388000D+02 0.9926000D+01
EXPONENTS  0.2930000D+01 0.4388000D+02 0.9926000D+01 0.2930000D+01 0.4388000D+02
EXPONENTS  0.9926000D+01 0.2930000D+01 0.9132000D+00 0.9132000D+00 0.9132000D+00
EXPONENTS  0.2672000D+00 0.2672000D+00 0.2672000D+00 0.7361000D-01 0.7361000D-01
EXPONENTS  0.7361000D-01 0.3107000D+01 0.3107000D+01 0.3107000D+01 0.3107000D+01
EXPONENTS  0.3107000D+01 0.3107000D+01 0.8550000D+00 0.8550000D+00 0.8550000D+00
EXPONENTS  0.8550000D+00 0.8550000D+00 0.8550000D+00 0.2920000D+00 0.2920000D+00
EXPONENTS  0.2920000D+00 0.2920000D+00 0.2920000D+00 0.2920000D+00 0.1917000D+01
EXPONENTS  0.1917000D+01 0.1917000D+01 0.1917000D+01 0.1917000D+01 0.1917000D+01
EXPONENTS  0.1917000D+01 0.1917000D+01 0.1917000D+01 0.1917000D+01 0.7240000D+00
EXPONENTS  0.7240000D+00 0.7240000D+00 0.7240000D+00 0.7240000D+00 0.7240000D+00
EXPONENTS  0.7240000D+00 0.7240000D+00 0.7240000D+00 0.7240000D+00
MO    1     MO 0.0        OCC NO =    2.0000300  ORB. ENERGY =    0.000000
  0.87815614D-05  0.16370600D-04  0.27668544D-04  0.41590981D-04  0.51087071D-04
  0.43115686D-04  0.16212624D-04 -0.13038919D-07 -0.97457839D-07 -0.36422220D-06
 -0.10161232D-05 -0.13613250D-05  0.16074709D-05  0.36096686D-05 -0.15169154D-04
 -0.51410390D-06  0.30924415D-05  0.28993604D-05  0.20645173D-05  0.11083207D-03
  0.10391211D-03  0.73991616D-04 -0.42475227D-06 -0.39823225D-06 -0.28356508D-06
  0.10288915D-04  0.36134009D-03  0.10796797D-05  0.11992956D-04  0.46233109D-03
  0.34391725D-06  0.30358789D-06  0.94587333D-05  0.23175632D-08  0.65384295D-04
 -0.64222918D-04 -0.11613761D-05  0.27854653D-05 -0.12370164D-04 -0.50867248D-03
  0.19289904D-03 -0.19564865D-03  0.27496077D-05  0.61017660D-05  0.34279240D-05
  0.98673790D-04  0.41388003D-04 -0.40661288D-04 -0.72671520D-06  0.10713742D-05
 -0.15340746D-05 -0.65909221D-04  0.31442718D-05  0.92387221D-04 -0.16404596D-06
 -0.59770191D-06  0.92561562D-04  0.26310082D-04 -0.88351135D-05 -0.36972322D-03
 -0.25817944D-04  0.34907780D-05 -0.12027133D-06 -0.25505491D-04 -0.12551522D-06
 -0.20283932D-05 -0.30221402D-04  0.50993604D-04  0.23892072D-05  0.10673787D-03
 -0.50617058D-04  0.16580306D-05 -0.39931674D-04 -0.72018418D-04 -0.10619112D-03
  0.37595908D-03  0.11255947D-02 -0.11889612D-04  0.26458656D-06  0.71669720D-04
  0.23809275D-04  0.30299245D-05  0.28934946D-03  0.27281848D-03  0.13452016D-05
  0.17299120D-03  0.22146062D-04 -0.11028339D-03  0.42261843D-04  0.68021548D-04
  0.13235348D-05 -0.11727694D-05  0.29838603D-03 -0.43967866D-04 -0.12216054D-04
  0.56183920D-04  0.69747319D-06  0.11978317D-05  0.31296526D-04  0.19333014D-04
  0.34867886D-04  0.51412678D-04 -0.16696889D-03 -0.53869413D-03  0.58247094D-05
 -0.27156763D-04  0.20859205D-04 -0.11067933D-04 -0.83668398D-04  0.12858509D-03
 -0.12991468D-03 -0.38184837D-04  0.97500977D-04 -0.10910545D-04  0.82124228D-05
  0.24218968D-04 -0.32431391D-04  0.75252541D-04 -0.14408350D-03  0.35339024D-04
  0.20114744D-04  0.57265761D-05 -0.25841320D-04  0.25155355D-04  0.13736242D-04
  0.53803746D-04  0.20628224D-04  0.37203851D-04  0.54857057D-04 -0.18270644D-03
 -0.58540970D-03  0.61246929D-05  0.30327488D-04  0.21314674D-04 -0.12644279D-04
  0.91885131D-04  0.13688001D-03 -0.14268068D-03  0.45060807D-04  0.99903694D-04
 -0.12049202D-04  0.94028536D-05  0.26292711D-04 -0.35695564D-04 -0.80032297D-04
  0.15532503D-03  0.41338116D-04  0.20627728D-04  0.72925295D-05 -0.27920257D-04
 -0.26232748D-04 -0.11955157D-04  0.54076280D-04 -0.46513628D-05 -0.87022035D-05
 -0.15035478D-04 -0.24374276D-04 -0.37014676D-04 -0.51446918D-04 -0.61166443D-04
 -0.54489193D-04 -0.27060485D-04 -0.43565092D-05 -0.45963746D-07 -0.20798840D-07
 -0.69381447D-06 -0.24178045D-05 -0.87069056D-05 -0.19193290D-04 -0.27017957D-04
  0.12888446D-05  0.35357689D-04  0.20906780D-04 -0.22912595D-08 -0.27752748D-07
 -0.57875430D-07 -0.16597666D-06 -0.86189366D-08  0.71577184D-06  0.18494170D-05
 -0.15068179D-05  0.15731980D-05  0.35240313D-05  0.70697447D-06  0.29598297D+00
  0.38987881D+00  0.43009735D+00  0.35722953D+00  0.18969879D+00  0.48943280D-01
  0.11606976D+02  0.15289103D+02  0.16866274D+02  0.14008761D+02  0.74390410D+01
  0.19193114D+01 -0.47686447D-02 -0.62814206D-02 -0.69293902D-02 -0.57554011D-02
 -0.30562777D-02 -0.78853562D-03 -0.11692039D-04  0.11303111D-03  0.15938566D-03
  0.22796366D-03 -0.11543759D-05 -0.20906418D-03 -0.45936989D-03  0.44408926D-02
  0.62621221D-02  0.89564911D-02 -0.45354410D-04 -0.82139471D-02  0.14178695D-06
 -0.13707050D-05 -0.19328372D-05 -0.27644685D-05  0.13998879D-07  0.25352784D-05
  0.19534332D-02  0.76625660D-01 -0.30774687D-04 -0.16634445D-04 -0.64380421D-03
 -0.63628838D-06 -0.14964689D-05 -0.57964837D-04 -0.21106690D-07  0.12407514D-04
 -0.13124907D-04  0.71739296D-06  0.71044184D-06 -0.24591425D-04 -0.98065224D-03
 -0.43572781D-05  0.46031512D-05 -0.24587311D-06 -0.15066356D-06  0.87847786D-05
  0.35583045D-03  0.12683909D-05 -0.13100429D-05  0.41651994D-07  0.49983910D-07
 -0.14231628D-05 -0.60855698D-04 -0.25813006D-07  0.20398398D-05 -0.40834589D-07
  0.57301380D-07  0.27306948D-05  0.35080676D-04  0.20137637D-07 -0.88502142D-05
 -0.34958172D-04  0.11870010D-05  0.38742976D-06  0.14762452D-04  0.13999803D-06
  0.38357746D-06  0.14536374D-04 -0.72988325D-05 -0.15458667D-05 -0.58823731D-04
  0.68788384D-05 -0.28745643D-06 -0.12372036D-05 -0.23061497D-05 -0.39094374D-05
 -0.59194170D-05 -0.74005750D-05 -0.63658216D-05 -0.24414296D-05  0.47808273D-08
  0.63289201D-07  0.22987789D-06  0.68192844D-06  0.78578480D-06 -0.95445268D-06
  0.26895515D-07  0.23555962D-05  0.13261100D-05 -0.63744265D-05 -0.62340499D-05
 -0.41191003D-05 -0.29022158D-03 -0.28383036D-03 -0.18753872D-03  0.21757504D-05
  0.21278363D-05  0.14059514D-05 -0.59413992D-08 -0.83689389D-05  0.96883596D-06
 -0.14695885D-05 -0.66544788D-04  0.69192861D-06 -0.50890213D-06 -0.19603852D-04
  0.14159978D-06  0.71138069D-04 -0.70692127D-04 -0.44594202D-06  0.23525740D-05
 -0.43473336D-05 -0.13340625D-03 -0.35762304D-04  0.35406540D-04  0.35576390D-06
 -0.11897819D-05  0.29794429D-05  0.10222378D-03  0.18185501D-04 -0.17910606D-04
 -0.27489539D-06  0.64752756D-06 -0.18269348D-05 -0.73949205D-04 -0.16039711D-05
 -0.71361663D-04  0.11621735D-05 -0.14660455D-05 -0.69921795D-04 -0.19091583D-03
  0.62779588D-05  0.28400678D-03  0.18742931D-03 -0.73971683D-05  0.55697354D-06
  0.25311035D-04 -0.41646771D-06  0.51680052D-06  0.24892214D-04  0.60705413D-04
 -0.21877211D-05 -0.10082532D-03 -0.59456010D-04  0.23696380D-05
MO    2     MO 0.0        OCC NO =    2.0000300  ORB. ENERGY =    0.000000
 -0.13756305D-04 -0.25644525D-04 -0.43342740D-04 -0.65152223D-04 -0.80027836D-04
 -0.67540671D-04 -0.25397056D-04 -0.32331714D-08 -0.24165953D-07 -0.90313686D-07
 -0.25196112D-06 -0.33755844D-06  0.39859357D-06 -0.17198450D-05  0.22964053D-04
  0.59512105D-06  0.11244439D-03  0.10542377D-03  0.75068002D-04 -0.26307384D-05
 -0.24664845D-05 -0.17562839D-05  0.24742760D-06  0.23197911D-06  0.16518294D-06
  0.37119913D-03 -0.83104064D-05  0.17297019D-05  0.46785150D-03 -0.11716299D-04
 -0.14407237D-05  0.91887027D-05 -0.17192497D-06 -0.16157887D-07 -0.11178789D-05
  0.43382099D-06  0.68405788D-06  0.13010769D-03 -0.50869721D-03  0.13546749D-04
 -0.24277716D-05  0.45421741D-05 -0.21144026D-05  0.39193024D-03  0.98379914D-04
 -0.16049286D-05 -0.10815811D-05  0.63509085D-06  0.44649028D-06  0.82732368D-04
 -0.66584332D-04  0.18412399D-05  0.94237277D-04 -0.24864443D-05 -0.27470042D-06
  0.90267641D-04 -0.26406970D-05  0.13141772D-05 -0.37297947D-03  0.10100030D-04
 -0.49007594D-06  0.48541552D-04 -0.26410536D-04 -0.14262196D-06 -0.12027338D-06
 -0.28660909D-04  0.35041463D-05 -0.69917104D-06  0.10789252D-03 -0.30762804D-05
  0.10599912D-05  0.10131315D-03  0.89191796D-06  0.16086108D-05  0.23718956D-05
 -0.17033718D-04 -0.27760653D-04  0.34211050D-06  0.40178963D-05 -0.24889753D-05
 -0.81203792D-06  0.87516508D-04 -0.78917336D-05 -0.62793963D-05  0.76544538D-04
 -0.46195573D-05 -0.23121070D-06  0.28937209D-05 -0.96998067D-06 -0.19237402D-05
  0.33338975D-04 -0.46642479D-04 -0.66245507D-05  0.15269473D-05  0.55446521D-06
 -0.20814125D-05  0.29560655D-04  0.61828189D-04 -0.70990658D-06 -0.35315087D-04
 -0.63692214D-04 -0.93914132D-04  0.31933385D-03  0.99358233D-03 -0.10904004D-04
  0.56077295D-04 -0.29923918D-04  0.21037461D-04  0.24027931D-03 -0.94803339D-04
  0.23726600D-03  0.15010825D-03 -0.44662615D-04  0.19542614D-04  0.10259860D-04
 -0.69098897D-04  0.58839037D-04 -0.11141410D-03  0.21487713D-03 -0.14968380D-03
 -0.11160055D-04 -0.37151519D-04  0.48311575D-04 -0.17237257D-04  0.38568244D-04
  0.11814364D-04  0.33908692D-04  0.61155722D-04  0.90174076D-04 -0.33052874D-03
 -0.97669518D-03  0.10462532D-04  0.56332456D-04  0.29989848D-04 -0.22102658D-04
  0.23941649D-03  0.85337476D-04 -0.23495570D-03  0.15008877D-03  0.38454682D-04
 -0.18929396D-04 -0.10679113D-04  0.69785982D-04 -0.59106869D-04 -0.10366458D-03
  0.21131583D-03  0.14713895D-03  0.10655507D-04  0.37882141D-04 -0.48537648D-04
 -0.15598872D-04  0.39402132D-04 -0.15241926D-04  0.36855737D-04  0.68953151D-04
  0.11913575D-03  0.19313305D-03  0.29329107D-03  0.40764699D-03  0.48466104D-03
  0.43175289D-03  0.21441762D-03  0.34519422D-04  0.36420030D-06  0.17250362D-06
  0.57544319D-05  0.20053043D-04  0.72214256D-04  0.15918734D-03  0.22408440D-03
 -0.10689556D-04 -0.29325335D-03 -0.17339887D-03  0.44070756D-08  0.53380448D-07
  0.11131930D-06  0.31924436D-06  0.16577915D-07 -0.13767365D-05 -0.35572227D-05
  0.28982577D-05 -0.10916380D-04 -0.77924606D-06 -0.44206180D-06  0.11606961D+02
  0.15289083D+02  0.16866251D+02  0.14008742D+02  0.74390310D+01  0.19193089D+01
 -0.29597971D+00 -0.38987452D+00 -0.43009262D+00 -0.35722560D+00 -0.18969670D+00
 -0.48942741D-01  0.58530400D-03  0.77098229D-03  0.85051415D-03  0.70641860D-03
  0.37512788D-03  0.96784953D-04 -0.45941633D-03  0.44413415D-02  0.62627551D-02
  0.89573965D-02 -0.45358995D-04 -0.82147774D-02  0.11737185D-04 -0.11346755D-03
 -0.16000109D-03 -0.22884389D-03  0.11588332D-05  0.20987143D-03 -0.14349033D-07
  0.13871722D-06  0.19560576D-06  0.27976798D-06 -0.14167057D-08 -0.25657362D-06
  0.76629742D-01 -0.19546260D-02  0.39680042D-05 -0.64280278D-03  0.16178105D-04
  0.31579988D-06 -0.57881172D-04  0.14577134D-05  0.28208333D-07  0.15693831D-06
  0.28584071D-06 -0.44277902D-06  0.24017392D-04 -0.98158423D-03  0.25447893D-04
 -0.28184228D-07 -0.17309773D-06  0.20128196D-06 -0.84531285D-05  0.35708124D-03
 -0.93939361D-05 -0.14271676D-07  0.19539441D-07 -0.52677649D-08  0.24149869D-05
 -0.61275693D-04  0.16899144D-05  0.24600344D-05 -0.75420112D-07 -0.29016398D-08
  0.25863867D-05 -0.27013601D-06 -0.57584818D-06 -0.99664900D-05  0.49639635D-06
  0.58455310D-06  0.69554410D-04  0.14685537D-04 -0.38061260D-06 -0.75696490D-07
  0.14685171D-04 -0.31064920D-06  0.20712120D-06 -0.58741783D-04  0.14524870D-05
  0.19968266D-07 -0.14160441D-04 -0.62232582D-06 -0.11600164D-05 -0.19664862D-05
 -0.29775261D-05 -0.37225635D-05 -0.32020721D-05 -0.12280636D-05 -0.38504280D-08
 -0.50972457D-07 -0.18514124D-06 -0.54921800D-06 -0.63286281D-06  0.76870615D-06
 -0.18463233D-06 -0.16986516D-05 -0.69637601D-06 -0.28972429D-03 -0.28334403D-03
 -0.18721738D-03  0.84132734D-05  0.82279976D-05  0.54365859D-05  0.13436144D-05
  0.13140256D-05  0.86823225D-06 -0.87984667D-05  0.42682549D-06  0.19646450D-06
 -0.66598229D-04  0.19282419D-05 -0.69058591D-06 -0.19480951D-04  0.48819973D-06
 -0.33579501D-07 -0.13473901D-05  0.10714393D-05  0.27595074D-06  0.14160310D-03
 -0.13073002D-03  0.23917745D-05  0.69797522D-06 -0.50529136D-06 -0.19268386D-06
 -0.71053904D-04  0.10102812D-03 -0.22066557D-05 -0.29571620D-06  0.26751734D-06
  0.28198865D-07  0.35964341D-04 -0.73877588D-04  0.19450935D-05 -0.71834008D-04
  0.22921998D-05 -0.51109588D-06 -0.70845563D-04  0.14018077D-05  0.34021955D-05
  0.28634759D-03 -0.82784072D-05 -0.18689079D-05 -0.37590886D-03  0.25510565D-04
 -0.81424531D-06  0.17627903D-06  0.25213612D-04 -0.53875067D-06 -0.10904963D-05
 -0.10174531D-03  0.29814866D-05  0.56165920D-06  0.11933763D-03
MO    3     MO 0.0        OCC NO =    2.0000210  ORB. ENERGY =    0.000000
 -0.14447076D-01 -0.26932260D-01 -0.45519189D-01 -0.68423831D-01 -0.84046421D-01
 -0.70932214D-01 -0.26672365D-01 -0.38098275D-05 -0.28476100D-04 -0.10642169D-03
 -0.29689994D-03 -0.39776406D-03  0.46968519D-03 -0.87252374D-03 -0.19387288D-02
 -0.82422998D-04  0.20142731D-05  0.18885091D-05  0.13447310D-05  0.18597899D-05
  0.17436712D-05  0.12415978D-05  0.11681525D-02  0.10952172D-02  0.77985990D-03
 -0.67031898D-05 -0.19118283D-05  0.60871897D-03 -0.38960102D-05  0.16428964D-05
 -0.37982125D-03  0.25303016D-07 -0.57585789D-07  0.46637124D-05 -0.10677991D-03
 -0.10521839D-03  0.21199830D-03 -0.18805269D-05  0.12021907D-06  0.83281661D-06
 -0.24705490D-04 -0.22758603D-04  0.47464093D-04 -0.23965337D-05  0.18674200D-05
 -0.67665958D-07  0.11602501D-04  0.11188565D-04 -0.22791066D-04 -0.47669108D-06
 -0.38314629D-06  0.29852528D-06 -0.46203951D-06  0.36308549D-04  0.78321027D-05
  0.79890080D-06 -0.10879357D-03 -0.11315015D-04  0.58721774D-06 -0.13207382D-06
 -0.12181293D-04  0.29660637D-06 -0.35206114D-06  0.51734075D-04 -0.85780901D-04
  0.14271878D-05 -0.15508245D-03  0.12886084D-03 -0.37100436D-06 -0.11977475D-06
  0.12848186D-03  0.51334046D-06 -0.49843597D-05 -0.89894979D-05 -0.13255009D-04
  0.75121300D-03  0.23987873D-03  0.49501404D-05  0.92723694D-06  0.95909278D-04
  0.28092116D-04 -0.26717939D-05  0.19775278D-03 -0.43365154D-05 -0.72879233D-06
  0.44434893D-04  0.39263383D-04 -0.73727768D-04  0.53781881D-04  0.19945888D-04
 -0.67477085D-06 -0.86840664D-06  0.75826482D-04 -0.95494835D-05 -0.12238818D-04
  0.21788301D-04 -0.55845301D-06  0.14863428D-06 -0.34667010D-04 -0.48006399D-05
 -0.86581517D-05 -0.12766440D-04  0.74772362D-03  0.22774107D-03  0.51260102D-05
  0.82484884D-04 -0.47828611D-04  0.28374035D-04  0.17107824D-03 -0.97264439D-04
 -0.39626337D-05  0.37088159D-04 -0.21131719D-04  0.38106871D-04  0.22039357D-04
 -0.42130818D-04  0.20091461D-04 -0.10975441D-03  0.66220126D-04 -0.37524409D-04
 -0.11487091D-04 -0.10097297D-04  0.21584388D-04  0.23568840D-05 -0.29741234D-04
  0.17347535D-04 -0.43055028D-05 -0.77651517D-05 -0.11449712D-04  0.76057664D-03
  0.24401988D-03  0.51947076D-05 -0.84476215D-04 -0.49075624D-04  0.30034953D-04
 -0.17616574D-03 -0.95043860D-04 -0.54557759D-05 -0.39822414D-04 -0.21413147D-04
  0.39312530D-04  0.23335388D-04 -0.43746416D-04  0.20411029D-04  0.10899044D-03
 -0.67357306D-04 -0.36402550D-04 -0.11071938D-04 -0.10487670D-04  0.21559608D-04
 -0.19914391D-05  0.30441323D-04  0.17233576D-04 -0.15457541D+00 -0.28919410D+00
 -0.49966326D+00 -0.81001284D+00 -0.12300822D+01 -0.17096986D+01 -0.20327006D+01
 -0.18108003D+01 -0.89928173D+00 -0.14477675D+00 -0.15274802D-02 -0.72271522D-03
 -0.24108570D-01 -0.84013540D-01 -0.30254636D+00 -0.66692580D+00 -0.93881628D+00
  0.44784596D-01  0.12286041D+01  0.72646593D+00 -0.15530206D-04 -0.18810873D-03
 -0.39228092D-03 -0.11249934D-02 -0.58419339D-04  0.48515170D-02  0.12535388D-01
 -0.10213244D-01  0.46591212D-01 -0.38384738D-03 -0.13187886D-03  0.17642197D-02
  0.23238900D-02  0.25636144D-02  0.21292825D-02  0.11307081D-02  0.29172860D-03
  0.21565516D-02  0.28406830D-02  0.31337180D-02  0.26027981D-02  0.13821580D-02
  0.35660400D-03  0.59443433D+01  0.78300907D+01  0.86378157D+01  0.71743823D+01
  0.38097961D+01  0.98294730D+00 -0.63066258D-07  0.60968401D-06  0.85971809D-06
  0.12296243D-05 -0.62266444D-08 -0.11276815D-05 -0.89485673D-07  0.86508991D-06
  0.12198671D-05  0.17447326D-05 -0.88350804D-08 -0.16000844D-05 -0.21093711D-03
  0.20392043D-02  0.28754909D-02  0.41127127D-02 -0.20826198D-04 -0.37717454D-02
  0.11915250D-04  0.15540321D-04  0.41674912D-01  0.46611628D-07 -0.35906977D-06
 -0.48431059D-03 -0.25922880D-07  0.25941600D-07 -0.98484789D-05 -0.67349316D-05
 -0.69776872D-05  0.13712619D-04  0.13985417D-06  0.53014656D-07 -0.66089567D-06
 -0.11167185D-03 -0.11159675D-03  0.22326860D-03 -0.27609669D-07 -0.73268879D-07
  0.68662637D-06 -0.14371215D-04 -0.14319535D-04  0.28690750D-04  0.67811532D-08
 -0.56922596D-07  0.49211031D-07  0.85370340D-07 -0.71949684D-05  0.54292314D-05
 -0.16458369D-06  0.21575240D-04 -0.84642642D-05 -0.91527327D-07  0.96647413D-08
 -0.78234300D-05  0.93834462D-07 -0.29695041D-07  0.20890615D-05 -0.33820553D-04
  0.41771529D-07 -0.61009665D-05  0.50867699D-04  0.47313594D-07 -0.16621808D-06
  0.50593961D-04  0.27810294D-08 -0.87982713D-03 -0.16399993D-02 -0.27801642D-02
 -0.42095445D-02 -0.52628578D-02 -0.45270015D-02 -0.17362025D-02 -0.68592207D-06
 -0.90803238D-05 -0.32981388D-04 -0.97838667D-04 -0.11273930D-03  0.13693867D-03
 -0.96041994D-04 -0.15997343D-03  0.12305350D-04  0.28890540D-06  0.28254317D-06
  0.18668822D-06  0.11936717D-05  0.11673848D-05  0.77134052D-06  0.39032951D-02
  0.38173374D-02  0.25222762D-02  0.29133415D-06 -0.16973563D-06  0.87950148D-03
 -0.10596000D-06  0.13237884D-06  0.21181759D-04 -0.44477126D-07  0.23283687D-07
  0.93348484D-05 -0.35703886D-04 -0.35586624D-04  0.71290509D-04  0.44980254D-06
 -0.35147125D-06  0.96971707D-06  0.21155169D-04  0.21092269D-04 -0.42247438D-04
 -0.20753574D-06  0.16969950D-06 -0.44576950D-06  0.18094635D-04  0.18141794D-04
 -0.36236429D-04  0.92385582D-07  0.11565753D-07  0.44518519D-07  0.20261304D-06
 -0.30666293D-05  0.46195822D-04  0.10097477D-06  0.83606251D-05 -0.68662898D-04
 -0.70881390D-06  0.83926284D-06 -0.69924568D-04 -0.69438623D-06 -0.77890898D-07
  0.98284117D-06 -0.25321864D-04 -0.45697301D-07 -0.26326414D-05  0.37800759D-04
  0.27936999D-06 -0.31588211D-06  0.38164834D-04  0.22015846D-06
MO    4     MO 0.0        OCC NO =    2.0000123  ORB. ENERGY =    0.000000
  0.27012963D-01  0.50357606D-01  0.85111214D-01  0.12793803D+00  0.15714895D+00
  0.13262817D+00  0.49871657D-01 -0.14226451D-05 -0.10633391D-04 -0.39739410D-04
 -0.11086677D-03 -0.14853090D-03  0.17538730D-03  0.26610025D-02 -0.36213527D-02
 -0.43148742D-04 -0.25266658D-05 -0.23689098D-05 -0.16868049D-05  0.29202647D-06
  0.27379338D-06  0.19495720D-06  0.36702753D-02  0.34411164D-02  0.24502799D-02
 -0.96035444D-05 -0.50295901D-05  0.13073146D-02 -0.67937648D-05  0.57002386D-06
 -0.41814205D-03  0.96387012D-08 -0.64548825D-07  0.36771212D-05 -0.31941306D-03
 -0.31867167D-03  0.63808473D-03 -0.18589138D-05 -0.18739509D-06  0.16009276D-05
  0.66514330D-05  0.13121488D-04 -0.19772921D-04 -0.25439523D-05  0.33484102D-05
  0.33782790D-06 -0.18169477D-04 -0.17557318D-04  0.35726795D-04 -0.31025526D-06
 -0.49584605D-06  0.36768575D-06  0.32212823D-06 -0.42562272D-04  0.22833745D-04
 -0.11155505D-05  0.12773914D-03 -0.33882964D-04  0.14916582D-06 -0.52325983D-07
 -0.34618270D-04  0.62968675D-06 -0.50927073D-06  0.82002697D-04 -0.16388817D-03
  0.23133072D-05 -0.24585225D-03  0.24672427D-03 -0.78549496D-06 -0.15583795D-06
  0.24494024D-03  0.33451387D-06 -0.90429591D-04 -0.16309349D-03 -0.24048126D-03
  0.10189555D-02  0.68240015D-03  0.41705709D-05  0.13482995D-05 -0.58303533D-04
  0.32624534D-04 -0.33179960D-05  0.30108478D-03 -0.42424968D-04 -0.66260005D-06
  0.11078499D-03  0.76197653D-04 -0.14185573D-03  0.23207182D-04  0.11864855D-03
  0.38450491D-06 -0.14851078D-05  0.14234174D-03 -0.14611591D-04 -0.21443687D-04
  0.36055278D-04 -0.70089236D-06  0.81737686D-07 -0.62837218D-04 -0.90480683D-04
 -0.16318564D-03 -0.24061713D-03  0.10198889D-02  0.67598092D-03  0.43087280D-05
 -0.51132045D-04  0.28951821D-04  0.33297252D-04  0.26226122D-03 -0.15043091D-03
 -0.42796007D-04  0.94419761D-04 -0.55119184D-04  0.75082304D-04 -0.18486174D-04
 -0.10023077D-03  0.11871694D-03 -0.14266541D-03  0.12397571D-03 -0.70607962D-04
 -0.19695133D-04 -0.16031658D-04  0.35726791D-04  0.54967891D-05 -0.53921188D-04
  0.31685186D-04 -0.90802353D-04 -0.16376578D-03 -0.24147255D-03  0.10376120D-02
  0.70166441D-03  0.44552351D-05  0.48359194D-04  0.25220704D-04  0.36350190D-04
 -0.26885749D-03 -0.14726311D-03 -0.45740721D-04 -0.98512452D-04 -0.55594506D-04
  0.76887197D-04 -0.15585628D-04 -0.10253469D-03  0.11812031D-03  0.14656761D-03
 -0.12672635D-03 -0.69045869D-04 -0.19342319D-04 -0.16533291D-04  0.35875610D-04
 -0.51759241D-05  0.55239712D-04  0.31723946D-04  0.91351463D-01  0.17090884D+00
  0.29529257D+00  0.47870394D+00  0.72695787D+00  0.10104030D+01  0.12012918D+01
  0.10701525D+01  0.53146035D+00  0.85560620D-01  0.90271508D-03  0.42770620D-03
  0.14267563D-01  0.49719600D-01  0.17904833D+00  0.39468976D+00  0.55559579D+00
 -0.26503730D-01 -0.72709358D+00 -0.42992588D+00  0.62804757D-05  0.76071897D-04
  0.15863992D-03  0.45495168D-03  0.23625007D-04 -0.19619723D-02 -0.50693596D-02
  0.41302756D-02 -0.28556848D-01  0.14195565D-02 -0.18109270D-03 -0.15552047D-02
 -0.20485684D-02 -0.22598916D-02 -0.18770169D-02 -0.99674809D-03 -0.25716622D-03
  0.42328803D-02  0.55756936D-02  0.61508628D-02  0.51087732D-02  0.27129003D-02
  0.69994246D-03  0.99125784D+01  0.13057185D+02  0.14404119D+02  0.11963748D+02
  0.63530823D+01  0.16391285D+01  0.51998835D-07 -0.50269128D-06 -0.70884718D-06
 -0.10138390D-05  0.51339379D-08  0.92978596D-06 -0.16448661D-06  0.15901507D-05
  0.22422785D-05  0.32070514D-05 -0.16240057D-07 -0.29411686D-05 -0.33687932D-03
  0.32567325D-02  0.45923328D-02  0.65682508D-02 -0.33260698D-04 -0.60237055D-02
 -0.11263025D-04  0.31584208D-04  0.72543015D-01  0.24781485D-06 -0.26830691D-06
 -0.30726772D-03 -0.15038626D-07  0.36846267D-07 -0.39813792D-05  0.45484808D-03
  0.45478807D-03 -0.90963615D-03  0.22336634D-06  0.63374784D-06 -0.21413158D-05
 -0.30997241D-03 -0.30989563D-03  0.61986804D-03 -0.42544829D-07 -0.33072743D-06
  0.14211282D-05  0.42401220D-05  0.42877324D-05 -0.85278544D-05 -0.25552506D-07
 -0.78485393D-07 -0.35720880D-07  0.17659125D-06 -0.14446951D-04 -0.46930647D-04
 -0.32856858D-06  0.43553394D-04  0.69882665D-04 -0.20120517D-06 -0.21254156D-06
  0.70909277D-04 -0.14284347D-06 -0.63000445D-07  0.42363236D-05 -0.62715981D-04
  0.82789156D-07 -0.12432530D-04  0.94313809D-04  0.10621218D-06 -0.27644089D-06
  0.93834135D-04  0.10193644D-06 -0.63636944D-02 -0.11861937D-01 -0.20108626D-01