 clch3f_ts-wavefunction
GAUSSIAN            211 MOL ORBITALS    339 PRIMITIVES        6 NUCLEI
  C    1    (CENTRE  1)   0.00033070  0.00005480 -0.94053370  CHARGE =  6.0
  H    2    (CENTRE  2)   0.00003590 -1.98906904 -1.17300214  CHARGE =  1.0
  H    3    (CENTRE  3)  -1.72213010  0.99468570 -1.17398291  CHARGE =  1.0
  H    4    (CENTRE  4)   1.74185506  0.99424539 -1.17459707  CHARGE =  1.0
  Cl   5    (CENTRE  5)   0.00104880  0.00181792  3.10806659  CHARGE = 17.0
  F    6    (CENTRE  6)  -0.00035149 -0.00174044 -4.90094425  CHARGE =  9.0
CENTRE ASSIGNMENTS    1  1  1  1  1  1  1  1  1  1  1  1  1  1  1  1  1  1  1  1
CENTRE ASSIGNMENTS    1  1  1  1  1  1  1  1  1  1  1  1  1  1  1  1  1  1  1  1
CENTRE ASSIGNMENTS    1  1  1  1  1  1  1  1  1  1  1  1  1  1  1  1  1  1  1  1
CENTRE ASSIGNMENTS    1  1  1  1  1  1  1  1  1  1  1  1  2  2  2  2  2  2  2  2
CENTRE ASSIGNMENTS    2  2  2  2  2  2  2  2  2  2  2  2  2  2  2  2  2  2  2  3
CENTRE ASSIGNMENTS    3  3  3  3  3  3  3  3  3  3  3  3  3  3  3  3  3  3  3  3
CENTRE ASSIGNMENTS    3  3  3  3  3  3  4  4  4  4  4  4  4  4  4  4  4  4  4  4
CENTRE ASSIGNMENTS    4  4  4  4  4  4  4  4  4  4  4  4  4  5  5  5  5  5  5  5
CENTRE ASSIGNMENTS    5  5  5  5  5  5  5  5  5  5  5  5  5  5  5  5  5  5  5  5
CENTRE ASSIGNMENTS    5  5  5  5  5  5  5  5  5  5  5  5  5  5  5  5  5  5  5  5
CENTRE ASSIGNMENTS    5  5  5  5  5  5  5  5  5  5  5  5  5  5  5  5  5  5  5  5
CENTRE ASSIGNMENTS    5  5  5  5  5  5  5  5  5  5  5  5  5  5  5  5  5  5  5  5
CENTRE ASSIGNMENTS    5  5  5  5  5  5  5  5  5  5  5  5  5  5  5  5  5  5  5  5
CENTRE ASSIGNMENTS    5  5  5  5  5  5  5  6  6  6  6  6  6  6  6  6  6  6  6  6
CENTRE ASSIGNMENTS    6  6  6  6  6  6  6  6  6  6  6  6  6  6  6  6  6  6  6  6
CENTRE ASSIGNMENTS    6  6  6  6  6  6  6  6  6  6  6  6  6  6  6  6  6  6  6  6
CENTRE ASSIGNMENTS    6  6  6  6  6  6  6  6  6  6  6  6  6  6  6  6  6  6  6
TYPE ASSIGNMENTS      1  1  1  1  1  1  1  1  1  1  1  1  1  1  1  1  2  2  2  3
TYPE ASSIGNMENTS      3  3  4  4  4  2  3  4  2  3  4  2  3  4  5  6  7  8  9 10
TYPE ASSIGNMENTS      5  6  7  8  9 10  5  6  7  8  9 10 11 12 13 17 14 15 18 19
TYPE ASSIGNMENTS     16 20 11 12 13 17 14 15 18 19 16 20  1  1  1  1  1  1  2  3
TYPE ASSIGNMENTS      4  2  3  4  2  3  4  5  6  7  8  9 10  5  6  7  8  9 10  1
TYPE ASSIGNMENTS      1  1  1  1  1  2  3  4  2  3  4  2  3  4  5  6  7  8  9 10
TYPE ASSIGNMENTS      5  6  7  8  9 10  1  1  1  1  1  1  2  3  4  2  3  4  2  3
TYPE ASSIGNMENTS      4  5  6  7  8  9 10  5  6  7  8  9 10  1  1  1  1  1  1  1
TYPE ASSIGNMENTS      1  1  1  1  1  1  1  1  1  1  1  1  1  1  1  1  1  1  1  1
TYPE ASSIGNMENTS      1  1  1  1  2  2  2  2  2  2  3  3  3  3  3  3  4  4  4  4
TYPE ASSIGNMENTS      4  4  2  2  2  2  2  2  3  3  3  3  3  3  4  4  4  4  4  4
TYPE ASSIGNMENTS      2  3  4  2  3  4  2  3  4  5  6  7  8  9 10  5  6  7  8  9
TYPE ASSIGNMENTS     10  5  6  7  8  9 10 11 12 13 17 14 15 18 19 16 20 11 12 13
TYPE ASSIGNMENTS     17 14 15 18 19 16 20  1  1  1  1  1  1  1  1  1  1  1  1  1
TYPE ASSIGNMENTS      1  1  1  2  2  2  3  3  3  4  4  4  2  3  4  2  3  4  2  3
TYPE ASSIGNMENTS      4  5  6  7  8  9 10  5  6  7  8  9 10  5  6  7  8  9 10 11
TYPE ASSIGNMENTS     12 13 17 14 15 18 19 16 20 11 12 13 17 14 15 18 19 16 20
EXPONENTS  0.8236000D+04 0.1235000D+04 0.2808000D+03 0.7927000D+02 0.2559000D+02
EXPONENTS  0.8997000D+01 0.3319000D+01 0.2808000D+03 0.7927000D+02 0.2559000D+02
EXPONENTS  0.8997000D+01 0.3319000D+01 0.3643000D+00 0.9059000D+00 0.1285000D+00
EXPONENTS  0.4402000D-01 0.1871000D+02 0.4133000D+01 0.1200000D+01 0.1871000D+02
EXPONENTS  0.4133000D+01 0.1200000D+01 0.1871000D+02 0.4133000D+01 0.1200000D+01
EXPONENTS  0.3827000D+00 0.3827000D+00 0.3827000D+00 0.1209000D+00 0.1209000D+00
EXPONENTS  0.1209000D+00 0.3569000D-01 0.3569000D-01 0.3569000D-01 0.1097000D+01
EXPONENTS  0.1097000D+01 0.1097000D+01 0.1097000D+01 0.1097000D+01 0.1097000D+01
EXPONENTS  0.3180000D+00 0.3180000D+00 0.3180000D+00 0.3180000D+00 0.3180000D+00
EXPONENTS  0.3180000D+00 0.1000000D+00 0.1000000D+00 0.1000000D+00 0.1000000D+00
EXPONENTS  0.1000000D+00 0.1000000D+00 0.7610000D+00 0.7610000D+00 0.7610000D+00
EXPONENTS  0.7610000D+00 0.7610000D+00 0.7610000D+00 0.7610000D+00 0.7610000D+00
EXPONENTS  0.7610000D+00 0.7610000D+00 0.2680000D+00 0.2680000D+00 0.2680000D+00
EXPONENTS  0.2680000D+00 0.2680000D+00 0.2680000D+00 0.2680000D+00 0.2680000D+00
EXPONENTS  0.2680000D+00 0.2680000D+00 0.3387000D+02 0.5095000D+01 0.1159000D+01
EXPONENTS  0.3258000D+00 0.1027000D+00 0.2526000D-01 0.1407000D+01 0.1407000D+01
EXPONENTS  0.1407000D+01 0.3880000D+00 0.3880000D+00 0.3880000D+00 0.1020000D+00
EXPONENTS  0.1020000D+00 0.1020000D+00 0.1057000D+01 0.1057000D+01 0.1057000D+01
EXPONENTS  0.1057000D+01 0.1057000D+01 0.1057000D+01 0.2470000D+00 0.2470000D+00
EXPONENTS  0.2470000D+00 0.2470000D+00 0.2470000D+00 0.2470000D+00 0.3387000D+02
EXPONENTS  0.5095000D+01 0.1159000D+01 0.3258000D+00 0.1027000D+00 0.2526000D-01
EXPONENTS  0.1407000D+01 0.1407000D+01 0.1407000D+01 0.3880000D+00 0.3880000D+00
EXPONENTS  0.3880000D+00 0.1020000D+00 0.1020000D+00 0.1020000D+00 0.1057000D+01
EXPONENTS  0.1057000D+01 0.1057000D+01 0.1057000D+01 0.1057000D+01 0.1057000D+01
EXPONENTS  0.2470000D+00 0.2470000D+00 0.2470000D+00 0.2470000D+00 0.2470000D+00
EXPONENTS  0.2470000D+00 0.3387000D+02 0.5095000D+01 0.1159000D+01 0.3258000D+00
EXPONENTS  0.1027000D+00 0.2526000D-01 0.1407000D+01 0.1407000D+01 0.1407000D+01
EXPONENTS  0.3880000D+00 0.3880000D+00 0.3880000D+00 0.1020000D+00 0.1020000D+00
EXPONENTS  0.1020000D+00 0.1057000D+01 0.1057000D+01 0.1057000D+01 0.1057000D+01
EXPONENTS  0.1057000D+01 0.1057000D+01 0.2470000D+00 0.2470000D+00 0.2470000D+00
EXPONENTS  0.2470000D+00 0.2470000D+00 0.2470000D+00 0.4561000D+06 0.6833000D+05
EXPONENTS  0.1555000D+05 0.4405000D+04 0.1439000D+04 0.5204000D+03 0.2031000D+03
EXPONENTS  0.8396000D+02 0.3620000D+02 0.1583000D+02 0.6334000D+01 0.4405000D+04
EXPONENTS  0.1439000D+04 0.5204000D+03 0.2031000D+03 0.8396000D+02 0.3620000D+02
EXPONENTS  0.1583000D+02 0.6334000D+01 0.2694000D+01 0.1439000D+04 0.2031000D+03
EXPONENTS  0.8396000D+02 0.3620000D+02 0.1583000D+02 0.6334000D+01 0.2694000D+01
EXPONENTS  0.4313000D+00 0.9768000D+00 0.1625000D+00 0.5910000D-01 0.6633000D+03
EXPONENTS  0.1568000D+03 0.4998000D+02 0.1842000D+02 0.7240000D+01 0.2922000D+01
EXPONENTS  0.6633000D+03 0.1568000D+03 0.4998000D+02 0.1842000D+02 0.7240000D+01
EXPONENTS  0.2922000D+01 0.6633000D+03 0.1568000D+03 0.4998000D+02 0.1842000D+02
EXPONENTS  0.7240000D+01 0.2922000D+01 0.1568000D+03 0.4998000D+02 0.1842000D+02
EXPONENTS  0.7240000D+01 0.2922000D+01 0.3818000D+00 0.1568000D+03 0.4998000D+02
EXPONENTS  0.1842000D+02 0.7240000D+01 0.2922000D+01 0.3818000D+00 0.1568000D+03
EXPONENTS  0.4998000D+02 0.1842000D+02 0.7240000D+01 0.2922000D+01 0.3818000D+00
EXPONENTS  0.1022000D+01 0.1022000D+01 0.1022000D+01 0.1301000D+00 0.1301000D+00
EXPONENTS  0.1301000D+00 0.4190000D-01 0.4190000D-01 0.4190000D-01 0.1046000D+01
EXPONENTS  0.1046000D+01 0.1046000D+01 0.1046000D+01 0.1046000D+01 0.1046000D+01
EXPONENTS  0.3440000D+00 0.3440000D+00 0.3440000D+00 0.3440000D+00 0.3440000D+00
EXPONENTS  0.3440000D+00 0.1350000D+00 0.1350000D+00 0.1350000D+00 0.1350000D+00
EXPONENTS  0.1350000D+00 0.1350000D+00 0.7060000D+00 0.7060000D+00 0.7060000D+00
EXPONENTS  0.7060000D+00 0.7060000D+00 0.7060000D+00 0.7060000D+00 0.7060000D+00
EXPONENTS  0.7060000D+00 0.7060000D+00 0.3120000D+00 0.3120000D+00 0.3120000D+00
EXPONENTS  0.3120000D+00 0.3120000D+00 0.3120000D+00 0.3120000D+00 0.3120000D+00
EXPONENTS  0.3120000D+00 0.3120000D+00 0.1950000D+05 0.2923000D+04 0.6645000D+03
EXPONENTS  0.1875000D+03 0.6062000D+02 0.2142000D+02 0.7950000D+01 0.6645000D+03
EXPONENTS  0.1875000D+03 0.6062000D+02 0.2142000D+02 0.7950000D+01 0.8815000D+00
EXPONENTS  0.2257000D+01 0.3041000D+00 0.9158000D-01 0.4388000D+02 0.9926000D+01
EXPONENTS  0.2930000D+01 0.4388000D+02 0.9926000D+01 0.2930000D+01 0.4388000D+02
EXPONENTS  0.9926000D+01 0.2930000D+01 0.9132000D+00 0.9132000D+00 0.9132000D+00
EXPONENTS  0.2672000D+00 0.2672000D+00 0.2672000D+00 0.7361000D-01 0.7361000D-01
EXPONENTS  0.7361000D-01 0.3107000D+01 0.3107000D+01 0.3107000D+01 0.3107000D+01
EXPONENTS  0.3107000D+01 0.3107000D+01 0.8550000D+00 0.8550000D+00 0.8550000D+00
EXPONENTS  0.8550000D+00 0.8550000D+00 0.8550000D+00 0.2920000D+00 0.2920000D+00
EXPONENTS  0.2920000D+00 0.2920000D+00 0.2920000D+00 0.2920000D+00 0.1917000D+01
EXPONENTS  0.1917000D+01 0.1917000D+01 0.1917000D+01 0.1917000D+01 0.1917000D+01
EXPONENTS  0.1917000D+01 0.1917000D+01 0.1917000D+01 0.1917000D+01 0.7240000D+00
EXPONENTS  0.7240000D+00 0.7240000D+00 0.7240000D+00 0.7240000D+00 0.7240000D+00
EXPONENTS  0.7240000D+00 0.7240000D+00 0.7240000D+00 0.7240000D+00
MO    1     MO 0.0        OCC NO =    2.0000300  ORB. ENERGY =    0.000000
  0.14896079D-04  0.27769292D-04  0.46933887D-04  0.70550386D-04  0.86658513D-04
  0.73136728D-04  0.27501320D-04  0.14296768D-07  0.10685948D-06  0.39935829D-06
  0.11141474D-05  0.14926504D-05 -0.17625418D-05  0.13775265D-06 -0.23660693D-04
 -0.55467376D-06  0.75689144D-04  0.70963383D-04  0.50530157D-04  0.78299328D-04
  0.73410597D-04  0.52272718D-04 -0.12896907D-06 -0.12091670D-06 -0.86099892D-07
  0.24392732D-03  0.25280949D-03 -0.36310166D-05  0.31897146D-03  0.32866251D-03
  0.14229643D-05  0.65116426D-05  0.67950363D-05  0.13100853D-07  0.45318942D-04
 -0.45663499D-04  0.34455755D-06  0.86095678D-04 -0.35722306D-03 -0.36671605D-03
  0.13742970D-03 -0.13857848D-03  0.11487752D-05  0.26601422D-03  0.65723160D-04
  0.69303264D-04  0.29429504D-04 -0.29367670D-04 -0.61834457D-07  0.56931775D-04
 -0.46060959D-04 -0.47118328D-04  0.65024392D-04  0.66105818D-04  0.88656261D-06
  0.62704171D-04  0.66089142D-04  0.16724757D-04 -0.25777735D-03 -0.26440660D-03
 -0.19384445D-04  0.30233587D-04 -0.18313694D-04 -0.18589433D-04  0.16188262D-06
 -0.19650556D-04 -0.20620974D-04  0.35756852D-04  0.74591639D-04  0.76389274D-04
 -0.36242500D-04  0.69579104D-04 -0.28719113D-04 -0.51796102D-04 -0.76373323D-04
  0.26430367D-03  0.80122026D-03 -0.85232230D-05  0.32281429D-05  0.51203255D-04
  0.17529418D-04  0.59370188D-04  0.20411476D-03  0.19406330D-03  0.52422023D-04
  0.12257958D-03  0.15911001D-04 -0.78603753D-04  0.29277407D-04  0.49326346D-04
  0.22650623D-04 -0.32695625D-04  0.21352261D-03 -0.31073922D-04 -0.89840129D-05
  0.40057935D-04  0.20077376D-04  0.42587090D-04  0.22205600D-04 -0.97482812D-05
 -0.17581427D-04 -0.25923803D-04  0.93639388D-04  0.27266025D-03 -0.29825457D-05
  0.17985958D-04 -0.49191880D-05  0.60765244D-05  0.99533000D-04  0.33165350D-04
  0.65475602D-04  0.72415640D-04  0.41932383D-04  0.51637848D-05  0.12914850D-04
 -0.29980977D-04  0.17066127D-04 -0.17790305D-04  0.39466533D-04 -0.75423098D-04
  0.68499256D-05 -0.20810641D-04  0.13960715D-04  0.73471360D-05  0.35979207D-04
  0.47352404D-04  0.39210606D-04  0.70717943D-04  0.10427357D-03 -0.33416509D-03
 -0.10584930D-02  0.11617399D-04  0.55978791D-04  0.33954563D-04 -0.21024101D-04
  0.22563578D-03  0.15461477D-03 -0.25430436D-03  0.13218876D-03  0.98276037D-04
 -0.21415246D-04 -0.23819119D-05  0.65828715D-04 -0.63446803D-04 -0.13219224D-03
  0.25188212D-03  0.12869394D-03  0.21916262D-04  0.30551516D-04 -0.52467777D-04
 -0.29819294D-04  0.17694372D-04  0.28680304D-04 -0.52895004D-04 -0.98960907D-04
 -0.17098250D-03 -0.27718272D-03 -0.42092856D-03 -0.58505109D-03 -0.69558092D-03
 -0.61964765D-03 -0.30773013D-03 -0.49541947D-04 -0.52269680D-06 -0.24825915D-06
 -0.82815098D-05 -0.28859404D-04 -0.10392739D-03 -0.22909499D-03 -0.32249180D-03
  0.15383910D-04  0.42203653D-03  0.24954756D-03 -0.50977626D-08 -0.61746353D-07
 -0.12876551D-06 -0.36927707D-06 -0.19176044D-07  0.15925018D-05  0.41147188D-05
 -0.33524792D-05  0.15528173D-04 -0.13942009D-05  0.15909500D-06  0.80908978D+01
  0.10657605D+02  0.11757007D+02  0.97651147D+01  0.51855469D+01  0.13378982D+01
  0.83274618D+01  0.10969215D+02  0.12100762D+02  0.10050630D+02  0.53371634D+01
  0.13770160D+01 -0.89798680D-02 -0.11828587D-01 -0.13048783D-01 -0.10838036D-01
 -0.57552978D-02 -0.14848969D-02 -0.32021500D-03  0.30956326D-02  0.43651650D-02
  0.62433408D-02 -0.31615399D-04 -0.57257323D-02 -0.32954518D-03  0.31858307D-02
  0.44923539D-02  0.64252545D-02 -0.32536584D-04 -0.58925643D-02  0.37651695D-06
 -0.36399236D-05 -0.51326722D-05 -0.73410790D-05  0.37174191D-07  0.67324618D-05
  0.53414984D-01  0.54975931D-01 -0.59942162D-04 -0.44850132D-03 -0.46193495D-03
  0.60949638D-06 -0.40408864D-04 -0.41617279D-04  0.30392399D-07  0.85805175D-05
 -0.96923276D-05  0.11118100D-05  0.16296531D-04 -0.68349311D-03 -0.70284340D-03
 -0.29549947D-05  0.34318566D-05 -0.47686192D-06 -0.58251517D-05  0.24805438D-03
  0.25487777D-03  0.92493886D-06 -0.96800617D-06  0.43067313D-07  0.17566078D-05
 -0.42607069D-04 -0.43660215D-04  0.16437646D-05  0.16376306D-05  0.49937344D-07
  0.17138986D-05  0.15013298D-05  0.25301654D-04 -0.66451925D-05 -0.64142217D-05
 -0.25451466D-04  0.48779736D-04  0.10184321D-04  0.10492152D-04  0.69366469D-07
  0.10186579D-04  0.10537584D-04 -0.53216999D-05 -0.40739543D-04 -0.42014039D-04
  0.51136005D-05 -0.10096892D-04  0.17736592D-05  0.33061038D-05  0.56045826D-05
  0.84860959D-05  0.10609489D-04  0.91260631D-05  0.35000416D-05  0.22657409D-08
  0.29994167D-07  0.10894427D-06  0.32318113D-06  0.37240098D-06 -0.45233646D-06
  0.25002514D-06  0.83259390D-06  0.67941854D-07 -0.20585621D-03 -0.20132288D-03
 -0.13302254D-03 -0.21031953D-03 -0.20568791D-03 -0.13590670D-03 -0.31907361D-05
 -0.31204702D-05 -0.20618266D-05 -0.61647731D-05 -0.60405889D-05 -0.96065076D-06
 -0.47082450D-04 -0.48118083D-04  0.60630032D-06 -0.13663464D-04 -0.14075707D-04
 -0.34343845D-07  0.51053480D-04 -0.51110783D-04  0.57303694D-07  0.98188964D-04
 -0.91877025D-04 -0.95808525D-04 -0.25565818D-04  0.25645772D-04 -0.79953271D-07
 -0.49174413D-04  0.70971326D-04  0.73520594D-04  0.12830467D-04 -0.13064688D-04
  0.23422165D-06  0.24782249D-04 -0.51924332D-04 -0.53320016D-04 -0.50438675D-04
 -0.51271521D-04 -0.35717593D-06 -0.49701764D-04 -0.51306203D-04 -0.13522776D-03
  0.20101779D-03  0.20512076D-03  0.13629929D-03 -0.25907203D-03  0.17908248D-04
  0.18207260D-04  0.13692998D-06  0.17686136D-04  0.18202016D-04  0.42876337D-04
 -0.71410881D-04 -0.72823795D-04 -0.43287126D-04  0.82158027D-04
MO    2     MO 0.0        OCC NO =    2.0000300  ORB. ENERGY =    0.000000
  0.45291250D-05  0.84432013D-05  0.14270161D-04  0.21450713D-04  0.26348359D-04
  0.22237085D-04  0.83617248D-05 -0.96788608D-08 -0.72343488D-07 -0.27036413D-06
 -0.75427383D-06 -0.10105190D-05  0.11932345D-05  0.23113253D-05 -0.75266384D-05
 -0.25918253D-06 -0.79497284D-04 -0.74533757D-04 -0.53072475D-04  0.77582883D-04
  0.72738884D-04  0.51794419D-04 -0.25174339D-06 -0.23602543D-06 -0.16806416D-06
 -0.25959532D-03  0.25403238D-03  0.10094917D-05 -0.33240524D-03  0.32333315D-03
  0.11606014D-06 -0.66219951D-05  0.65243051D-05  0.12691464D-08  0.45209607D-04
 -0.44384537D-04 -0.82507012D-06 -0.91641135D-04  0.36660513D-03 -0.35530484D-03
  0.13271327D-03 -0.13439115D-03  0.16778763D-05 -0.27820383D-03 -0.69352873D-04
  0.68993765D-04  0.28508358D-04 -0.28031266D-04 -0.47709251D-06 -0.59203557D-04
  0.47528213D-04 -0.45902761D-04 -0.67309945D-04  0.64471015D-04 -0.20398298D-06
 -0.64573535D-04  0.64647833D-04  0.19165965D-04  0.26650337D-03 -0.25806088D-03
 -0.18554016D-04 -0.34522178D-04  0.18957292D-04 -0.17931573D-04 -0.87125674D-07
  0.20261038D-04 -0.20784272D-04  0.34447306D-04 -0.77132913D-04  0.74578989D-04
 -0.34185929D-04 -0.71701922D-04 -0.27836216D-04 -0.50203762D-04 -0.74025418D-04
  0.25987845D-03  0.78136402D-03 -0.84042328D-05 -0.28981484D-05  0.49979084D-04
  0.17412559D-04 -0.62132060D-04  0.20106759D-03  0.18785572D-03 -0.54646421D-04
  0.12037792D-03  0.15404268D-04 -0.76578418D-04  0.29492067D-04  0.47086352D-04
 -0.23682070D-04  0.33531681D-04  0.20748141D-03 -0.30648811D-04 -0.83993742D-05
  0.39048185D-04 -0.20999272D-04 -0.43932189D-04  0.21611476D-04  0.38975484D-04
  0.70293890D-04  0.10364830D-03 -0.34940627D-03 -0.10878380D-02  0.11864717D-04
 -0.59561152D-04  0.35701226D-04 -0.23940250D-04 -0.23026901D-03  0.15713883D-03
 -0.26070295D-03 -0.13521385D-03  0.98878954D-04 -0.21709467D-04 -0.84595842D-06
  0.66447844D-04 -0.65601886D-04  0.13181211D-03 -0.25539100D-03  0.13407620D-03
  0.22165794D-04  0.31186539D-04 -0.53352332D-04  0.29742477D-04 -0.18768635D-04
  0.27585721D-04 -0.11187550D-04 -0.20177207D-04 -0.29751279D-04  0.10423562D-03
  0.30588945D-03 -0.34348994D-05 -0.19604590D-04 -0.51616666D-05  0.63942907D-05
 -0.10752116D-03  0.26592999D-04  0.72599525D-04 -0.76934701D-04  0.38260378D-04
  0.58359219D-05  0.14281081D-04 -0.32495858D-04  0.18214778D-04  0.22724651D-04
 -0.48040876D-04 -0.78752646D-04  0.62080041D-05 -0.21950623D-04  0.15742619D-04
 -0.60914144D-05 -0.35840310D-04  0.45736245D-04  0.13301776D-05  0.24886203D-05
  0.42997839D-05  0.69704548D-05  0.10585305D-04  0.14712577D-04  0.17492127D-04
  0.15582595D-04  0.77386460D-05  0.12458565D-05  0.13144522D-07  0.69218603D-08
  0.23090167D-06  0.80464610D-06  0.28976609D-05  0.63875329D-05  0.89915847D-05
 -0.42892790D-06 -0.11767050D-04 -0.69577830D-05 -0.10845164D-08 -0.13136142D-07
 -0.27394039D-07 -0.78561334D-07 -0.40795807D-08  0.33879457D-06  0.87538011D-06
 -0.71321851D-06 -0.25319864D-06  0.24240657D-05  0.44206749D-06 -0.83274545D+01
 -0.10969206D+02 -0.12100751D+02 -0.10050621D+02 -0.53371587D+01 -0.13770148D+01
  0.80908928D+01  0.10657599D+02  0.11757000D+02  0.97651086D+01  0.51855437D+01
  0.13378974D+01 -0.14796661D-02 -0.19490664D-02 -0.21501254D-02 -0.17858475D-02
 -0.94833456D-03 -0.24467527D-03  0.32957292D-03 -0.31860989D-02 -0.44927321D-02
 -0.64257954D-02  0.32539323D-04  0.58930604D-02 -0.32017935D-03  0.30952880D-02
  0.43646792D-02  0.62426458D-02 -0.31611880D-04 -0.57250950D-02  0.26187512D-07
 -0.25316402D-06 -0.35698769D-06 -0.51058684D-06  0.25855399D-08  0.46825629D-06
 -0.54978632D-01  0.53416040D-01 -0.92509384D-05  0.46129620D-03 -0.44849897D-03
 -0.51379843D-06  0.41563862D-04 -0.40409249D-04 -0.20344078D-07  0.89263012D-05
 -0.92287189D-05  0.30241765D-06 -0.17554908D-04  0.70340213D-03 -0.68280179D-03
 -0.30599254D-05  0.31540934D-05 -0.94168053D-07  0.61332308D-05 -0.25567558D-03
  0.24799632D-03  0.88736150D-06 -0.90573664D-06  0.18375138D-07 -0.17971354D-05
  0.43921136D-04 -0.42488126D-04 -0.17487546D-05  0.15115164D-05 -0.33355372D-07
 -0.18659063D-05  0.19679101D-05  0.24313862D-04  0.71121701D-05 -0.65024592D-05
 -0.24213795D-04 -0.50417379D-04 -0.10498515D-04  0.10251980D-04  0.81381160D-07
 -0.10474563D-04  0.10101568D-04 -0.50900728D-05  0.41970109D-04 -0.40857508D-04
  0.48459293D-05  0.10390608D-04 -0.96808116D-06 -0.18045049D-05 -0.30590379D-05
 -0.46317971D-05 -0.57907665D-05 -0.49810976D-05 -0.19103581D-05  0.29331594D-08
  0.38829539D-07  0.14103595D-06  0.41838049D-06  0.48209901D-06 -0.58558105D-06
 -0.33501790D-08  0.14642358D-05  0.86510535D-06  0.20980847D-03  0.20518810D-03
  0.13557646D-03 -0.20233697D-03 -0.19788114D-03 -0.13074843D-03  0.17035407D-05
  0.16660256D-05  0.11008135D-05  0.62854056D-05 -0.58171804D-05  0.71567043D-06
  0.48124306D-04 -0.46421695D-04  0.39497427D-06  0.13993738D-04 -0.13607912D-04
  0.95257395D-07  0.49248090D-04 -0.48939203D-04 -0.30888729D-06 -0.10202119D-03
  0.94124404D-04 -0.92656898D-04 -0.24760259D-04  0.24512959D-04  0.24730039D-06
  0.51149107D-04 -0.72760493D-04  0.71151100D-04  0.12585336D-04 -0.12380005D-04
 -0.20533138D-06 -0.25826805D-04  0.53259934D-04 -0.51625584D-04  0.51399000D-04
 -0.49963444D-04  0.80628888D-06  0.52283042D-04 -0.48992705D-04 -0.13220486D-03
 -0.20648004D-03  0.19888304D-03  0.12978599D-03  0.27019854D-03 -0.18272300D-04
  0.17725912D-04 -0.28949203D-06 -0.18546634D-04  0.17444235D-04  0.42018373D-04
  0.73363533D-04 -0.70621970D-04 -0.41149897D-04 -0.85717408D-04
MO    3     MO 0.0        OCC NO =    2.0000210  ORB. ENERGY =    0.000000
 -0.14468427D-01 -0.26972063D-01 -0.45586461D-01 -0.68524953D-01 -0.84170631D-01
 -0.71037043D-01 -0.26711783D-01 -0.38216081D-05 -0.28564153D-04 -0.10675076D-03
 -0.29781800D-03 -0.39899401D-03  0.47113753D-03 -0.87126226D-03 -0.19265637D-02
 -0.81452977D-04 -0.32338053D-05 -0.30318980D-05 -0.21588920D-05 -0.13052546D-05
 -0.12237591D-05 -0.87138940D-06  0.11656642D-02  0.10928842D-02  0.77819868D-03
  0.10178044D-04  0.70608158D-05  0.60458980D-03  0.26462272D-05  0.36527177D-05
 -0.37827903D-03  0.34966297D-07 -0.20223872D-07  0.46746965D-05 -0.10385291D-03
 -0.10576020D-03  0.20961311D-03  0.36862707D-05 -0.43809113D-06  0.26667583D-06
 -0.23367640D-04 -0.25842480D-04  0.49210119D-04  0.48147261D-05 -0.19736259D-05
 -0.17437144D-05  0.11721892D-04  0.11248017D-04 -0.22969909D-04  0.15881030D-06
  0.88901007D-07  0.32857438D-06 -0.43395387D-07  0.36395439D-04  0.75458007D-05
  0.68888539D-06 -0.10859003D-03 -0.11414852D-04 -0.55869923D-06 -0.59628761D-06
 -0.11222550D-04 -0.10351118D-05 -0.29972220D-06  0.51987300D-04 -0.85486347D-04
  0.76879958D-06 -0.15601082D-03  0.12807059D-03  0.13036701D-06  0.48922708D-07
  0.12838845D-03 -0.71685606D-06 -0.47696729D-05 -0.86023014D-05 -0.12684088D-04
  0.75913662D-03  0.24297984D-03  0.50626283D-05 -0.29291705D-06  0.96392281D-04
  0.28734742D-04  0.53579559D-07  0.20311578D-03 -0.44547041D-05  0.19551676D-06
  0.45318675D-04  0.39170373D-04 -0.74375338D-04  0.55279350D-04  0.19095988D-04
 -0.33418148D-06 -0.38094214D-07  0.76022484D-04 -0.99732985D-05 -0.11772689D-04
  0.21745987D-04  0.33610864D-06 -0.21235405D-06 -0.34685389D-04 -0.46650001D-05
 -0.84135198D-05 -0.12405730D-04  0.75714486D-03  0.23615437D-03  0.51614549D-05
  0.82725221D-04 -0.48842340D-04  0.28918153D-04  0.17657785D-03 -0.99255240D-04
 -0.42174095D-05  0.38751132D-04 -0.21523856D-04  0.38534674D-04  0.22932598D-04
 -0.42142891D-04  0.19210293D-04 -0.11185844D-03  0.66391212D-04 -0.37385430D-04
 -0.10993624D-04 -0.10632581D-04  0.21626204D-04  0.18857496D-05 -0.30037318D-04
  0.17121321D-04 -0.57260988D-05 -0.10327255D-04 -0.15227532D-04  0.73884737D-03
  0.22187243D-03  0.48320462D-05 -0.80010437D-04 -0.46390486D-04  0.25855529D-04
 -0.17299224D-03 -0.96156212D-04 -0.18370134D-05 -0.36684421D-04 -0.20312961D-04
  0.37862015D-04  0.23615768D-04 -0.42228325D-04  0.18612557D-04  0.10994483D-03
 -0.65671605D-04 -0.36493422D-04 -0.11539931D-04 -0.10296246D-04  0.21836176D-04
 -0.26990579D-05  0.29492465D-04  0.16850186D-04 -0.15464876D+00 -0.28933132D+00
 -0.49990035D+00 -0.81039721D+00 -0.12306659D+01 -0.17105098D+01 -0.20336651D+01
 -0.18116596D+01 -0.89970845D+00 -0.14484545D+00 -0.15282050D-02 -0.72305741D-03
 -0.24119985D-01 -0.84053318D-01 -0.30268961D+00 -0.66724157D+00 -0.93926078D+00
  0.44805800D-01  0.12291858D+01  0.72680990D+00 -0.15534289D-04 -0.18815817D-03
 -0.39238403D-03 -0.11252891D-02 -0.58434695D-04  0.48527922D-02  0.12538683D-01
 -0.10215929D-01  0.46615048D-01 -0.38502659D-03 -0.13206417D-03  0.58250951D-03
  0.76730129D-03  0.84645343D-03  0.70304585D-03  0.37333686D-03  0.96322860D-04
  0.18024758D-02  0.23742823D-02  0.26192050D-02  0.21754548D-02  0.11552269D-02
  0.29805458D-03  0.59363699D+01  0.78195878D+01  0.86262294D+01  0.71647589D+01
  0.38046858D+01  0.98162882D+00 -0.74679165D-08  0.72195012D-07  0.10180250D-06
  0.14560451D-06 -0.73732074D-09 -0.13353307D-06 -0.63758095D-07  0.61637224D-06
  0.86914920D-06  0.12431133D-05 -0.62949507D-08 -0.11400521D-05 -0.21055827D-03
  0.20355419D-02  0.28703265D-02  0.41053262D-02 -0.20788794D-04 -0.37649713D-02
  0.42084591D-05  0.13100415D-04  0.41618377D-01 -0.94642338D-07 -0.33652990D-06
 -0.48336549D-03 -0.38365361D-08  0.19754837D-07 -0.98321005D-05 -0.76770215D-05
 -0.75281451D-05  0.15205167D-04 -0.40411906D-06  0.61706216D-06 -0.31666284D-07
 -0.11105005D-03 -0.11107963D-03  0.22212968D-03  0.10603574D-06 -0.46268208D-07
  0.48089705D-06 -0.14293486D-04 -0.14287076D-04  0.28580562D-04  0.43604664D-07
  0.89921457D-07  0.10837420D-06  0.54782877D-08 -0.72629345D-05  0.54632993D-05
 -0.14036604D-06  0.21681237D-04 -0.82479336D-05  0.12393118D-06  0.10756626D-06
 -0.81419644D-05  0.50974455D-06  0.42663247D-08  0.20989593D-05 -0.33605435D-04
  0.45347039D-07 -0.61267341D-05  0.50407951D-04 -0.58146014D-07 -0.17014383D-06
  0.50408353D-04 -0.26958667D-06 -0.87874496D-03 -0.16379821D-02 -0.27767446D-02
 -0.42043668D-02 -0.52563846D-02 -0.45214333D-02 -0.17340670D-02 -0.68139160D-06
 -0.90203490D-05 -0.32763549D-04 -0.97192450D-04 -0.11199467D-03  0.13603421D-03
 -0.95825823D-04 -0.15846746D-03  0.12657181D-04  0.16774721D-05  0.16405311D-05
  0.10839682D-05  0.21343159D-05  0.20873144D-05  0.13791769D-05  0.38994432D-02
  0.38135703D-02  0.25197871D-02  0.54577787D-06  0.25817778D-06  0.87864803D-03
  0.10280480D-07  0.11556456D-06  0.21716992D-04  0.36308253D-07  0.49961067D-07
  0.93483246D-05 -0.35860703D-04 -0.35414429D-04  0.71275133D-04 -0.38348820D-06
 -0.36582654D-06  0.48924443D-06  0.21148547D-04  0.20944323D-04 -0.42092870D-04
  0.16601542D-06  0.13480598D-06 -0.25060706D-06  0.18073845D-04  0.18162383D-04
 -0.36236228D-04 -0.52631461D-07 -0.14385791D-06 -0.78817087D-07 -0.39577498D-07
 -0.33739989D-05  0.46780468D-04 -0.10158217D-06  0.92445391D-05 -0.69863951D-04
  0.22031466D-06  0.87745747D-06 -0.70477452D-04 -0.55679452D-06  0.29396988D-07
  0.10816055D-05 -0.25509190D-04  0.48761217D-07 -0.28717916D-05  0.38166606D-04
 -0.13695218D-06 -0.37302492D-06  0.38360964D-04  0.14058299D-06
MO    4     MO 0.0        OCC NO =    2.0000123  ORB. ENERGY =    0.000000
  0.26501008D-01  0.49403217D-01  0.83498167D-01  0.12551332D+00  0.15417063D+00
  0.13011457D+00  0.48926478D-01 -0.15156377D-05 -0.11328453D-04 -0.42337014D-04
 -0.11811368D-03 -0.15823976D-03  0.18685165D-03  0.26204340D-02 -0.35921948D-02
 -0.40758490D-04  0.55261406D-05  0.51811081D-05  0.36892576D-05  0.46965985D-05
  0.44033597D-05  0.31354544D-05  0.36687505D-02  0.34396868D-02  0.24492619D-02
  0.16989650D-04  0.10206075D-04  0.13017851D-02  0.70674497D-05  0.64984688D-05
 -0.41531312D-03  0.58903701D-07 -0.62595650D-08  0.37455682D-05 -0.31860206D-03
 -0.32036896D-03  0.63897102D-03  0.26606145D-05  0.26705183D-06  0.13928698D-05
  0.10598049D-04  0.78465523D-05 -0.18444601D-04  0.95228150D-05 -0.42620808D-05
 -0.33123636D-05 -0.17680940D-04 -0.18022661D-04  0.35703601D-04  0.10189752D-05
  0.29650219D-06  0.55173983D-06  0.23288602D-06 -0.41521852D-04  0.22126217D-04
 -0.64758639D-06  0.12466497D-03 -0.33590534D-04 -0.51071686D-07 -0.99416066D-07
 -0.32788119D-04 -0.16295634D-05 -0.48722349D-06  0.81897698D-04 -0.16348803D-03
  0.11934437D-05 -0.24586099D-03  0.24519781D-03  0.26822676D-06  0.16790035D-06
  0.24526627D-03 -0.17886636D-05 -0.90067080D-04 -0.16243969D-03 -0.23951723D-03
  0.10285355D-02  0.69485350D-03  0.42788683D-05 -0.18320488D-06 -0.56342514D-04
  0.34341518D-04  0.96346310D-06  0.30927874D-03 -0.44089229D-04  0.11013026D-05
  0.11312039D-03  0.76495014D-04 -0.14362657D-03  0.26378775D-04  0.11724779D-03
  0.57222626D-06  0.34124154D-06  0.14272034D-03 -0.15140018D-04 -0.20634349D-04
  0.35774367D-04  0.86479911D-06 -0.52692461D-06 -0.63147808D-04 -0.90097579D-04
 -0.16249469D-03 -0.23959833D-03  0.10290346D-02  0.69123895D-03  0.43585650D-05
 -0.49633215D-04  0.27235605D-04  0.34718218D-04  0.27012232D-03 -0.15208221D-03
 -0.44264021D-04  0.97819087D-04 -0.55130811D-04  0.75895387D-04 -0.16253701D-04
 -0.10108083D-03  0.11733453D-03 -0.14687056D-03  0.12456194D-03 -0.69956848D-04
 -0.18685945D-04 -0.16894329D-04  0.35580274D-04  0.51251238D-05 -0.54710777D-04
  0.31269673D-04 -0.89485968D-04 -0.16139163D-03 -0.23797186D-03  0.99746515D-03
  0.65422702D-03  0.39407560D-05  0.55477426D-04  0.30477025D-04  0.28609481D-04
 -0.26301832D-03 -0.14740141D-03 -0.38377451D-04 -0.93236901D-04 -0.53117850D-04
  0.74244131D-04 -0.18760195D-04 -0.99633237D-04  0.11839343D-03  0.13789725D-03
 -0.12169687D-03 -0.67870170D-04 -0.19432410D-04 -0.16155479D-04  0.35587889D-04
 -0.58681607D-05  0.53263125D-04  0.30673455D-04  0.91249493D-01  0.17071806D+00
  0.29496295D+00  0.47816959D+00  0.72614641D+00  0.10092752D+01  0.11999509D+01
  0.10689579D+01  0.53086711D+00  0.85465114D-01  0.90170744D-03  0.42722892D-03
  0.14251642D-01  0.49664118D-01  0.17884853D+00  0.39424933D+00  0.55497581D+00
 -0.26474155D-01 -0.72628223D+00 -0.42944613D+00  0.62736552D-05  0.75989284D-04
  0.15846764D-03  0.45445761D-03  0.23599351D-04 -0.19598416D-02 -0.50638543D-02
  0.41257901D-02 -0.28525097D-01  0.14160880D-02 -0.18280146D-03  0.56568834D-02
  0.74514388D-02  0.82201034D-02  0.68274395D-02  0.36255598D-02  0.93541339D-03
  0.75496060D-02  0.99445972D-02  0.10970447D-01  0.91118155D-02  0.48386269D-02
  0.12483910D-02  0.99181793D+01  0.13064562D+02  0.14412257D+02  0.11970508D+02
  0.63566720D+01  0.16400546D+01 -0.17128303D-06  0.16558542D-05  0.23349272D-05
  0.33395636D-05 -0.16911080D-07 -0.30626948D-05 -0.25594501D-06  0.24743117D-05
  0.34890378D-05  0.49902470D-05 -0.25269908D-07 -0.45765272D-05 -0.33685015D-03
  0.32564505D-02  0.45919351D-02  0.65676819D-02 -0.33257817D-04 -0.60231838D-02
  0.40678270D-04  0.55143144D-04  0.72582069D-01 -0.28336514D-06 -0.43599428D-06
 -0.30498354D-03 -0.22612018D-07  0.12404993D-07 -0.39169797D-05  0.45369203D-03
  0.45392106D-03 -0.90761309D-03 -0.31450257D-06 -0.86203062D-06 -0.22993847D-05
 -0.30920506D-03 -0.30924965D-03  0.61845471D-03  0.12320263D-06  0.50588426D-06
  0.14643474D-05  0.44581522D-05  0.44328689D-05 -0.88910211D-05  0.75449776D-07
  0.11085784D-06  0.64196046D-07  0.17867825D-07 -0.14567684D-04 -0.46994763D-04
 -0.27460113D-06  0.43673256D-04  0.70548164D-04  0.22099766D-06  0.29795267D-07
  0.70436125D-04  0.11305826D-05  0.20157649D-07  0.42641200D-05 -0.62360506D-04
  0.10340693D-06 -0.12455072D-04  0.93492966D-04 -0.16387987D-06 -0.33728840D-06
  0.93588553D-04 -0.57730832D-06 -0.63455903D-02 -0.11828191D-01 -0.20051419D-01