 clch3f_ts-wavefunction
GAUSSIAN            211 MOL ORBITALS    339 PRIMITIVES        6 NUCLEI
  C    1    (CENTRE  1)   0.00033070  0.00005480 -0.94053370  CHARGE =  6.0
  H    2    (CENTRE  2)   0.00003590 -1.98906904 -1.17300214  CHARGE =  1.0
  H    3    (CENTRE  3)  -1.72213010  1.01358296 -1.17398291  CHARGE =  1.0
  H    4    (CENTRE  4)   1.72295780  0.99424539 -1.17459707  CHARGE =  1.0
  Cl   5    (CENTRE  5)   0.00104880  0.00181792  3.10806659  CHARGE = 17.0
  F    6    (CENTRE  6)  -0.00035149 -0.00174044 -4.90094425  CHARGE =  9.0
CENTRE ASSIGNMENTS    1  1  1  1  1  1  1  1  1  1  1  1  1  1  1  1  1  1  1  1
CENTRE ASSIGNMENTS    1  1  1  1  1  1  1  1  1  1  1  1  1  1  1  1  1  1  1  1
CENTRE ASSIGNMENTS    1  1  1  1  1  1  1  1  1  1  1  1  1  1  1  1  1  1  1  1
CENTRE ASSIGNMENTS    1  1  1  1  1  1  1  1  1  1  1  1  2  2  2  2  2  2  2  2
CENTRE ASSIGNMENTS    2  2  2  2  2  2  2  2  2  2  2  2  2  2  2  2  2  2  2  3
CENTRE ASSIGNMENTS    3  3  3  3  3  3  3  3  3  3  3  3  3  3  3  3  3  3  3  3
CENTRE ASSIGNMENTS    3  3  3  3  3  3  4  4  4  4  4  4  4  4  4  4  4  4  4  4
CENTRE ASSIGNMENTS    4  4  4  4  4  4  4  4  4  4  4  4  4  5  5  5  5  5  5  5
CENTRE ASSIGNMENTS    5  5  5  5  5  5  5  5  5  5  5  5  5  5  5  5  5  5  5  5
CENTRE ASSIGNMENTS    5  5  5  5  5  5  5  5  5  5  5  5  5  5  5  5  5  5  5  5
CENTRE ASSIGNMENTS    5  5  5  5  5  5  5  5  5  5  5  5  5  5  5  5  5  5  5  5
CENTRE ASSIGNMENTS    5  5  5  5  5  5  5  5  5  5  5  5  5  5  5  5  5  5  5  5
CENTRE ASSIGNMENTS    5  5  5  5  5  5  5  5  5  5  5  5  5  5  5  5  5  5  5  5
CENTRE ASSIGNMENTS    5  5  5  5  5  5  5  6  6  6  6  6  6  6  6  6  6  6  6  6
CENTRE ASSIGNMENTS    6  6  6  6  6  6  6  6  6  6  6  6  6  6  6  6  6  6  6  6
CENTRE ASSIGNMENTS    6  6  6  6  6  6  6  6  6  6  6  6  6  6  6  6  6  6  6  6
CENTRE ASSIGNMENTS    6  6  6  6  6  6  6  6  6  6  6  6  6  6  6  6  6  6  6
TYPE ASSIGNMENTS      1  1  1  1  1  1  1  1  1  1  1  1  1  1  1  1  2  2  2  3
TYPE ASSIGNMENTS      3  3  4  4  4  2  3  4  2  3  4  2  3  4  5  6  7  8  9 10
TYPE ASSIGNMENTS      5  6  7  8  9 10  5  6  7  8  9 10 11 12 13 17 14 15 18 19
TYPE ASSIGNMENTS     16 20 11 12 13 17 14 15 18 19 16 20  1  1  1  1  1  1  2  3
TYPE ASSIGNMENTS      4  2  3  4  2  3  4  5  6  7  8  9 10  5  6  7  8  9 10  1
TYPE ASSIGNMENTS      1  1  1  1  1  2  3  4  2  3  4  2  3  4  5  6  7  8  9 10
TYPE ASSIGNMENTS      5  6  7  8  9 10  1  1  1  1  1  1  2  3  4  2  3  4  2  3
TYPE ASSIGNMENTS      4  5  6  7  8  9 10  5  6  7  8  9 10  1  1  1  1  1  1  1
TYPE ASSIGNMENTS      1  1  1  1  1  1  1  1  1  1  1  1  1  1  1  1  1  1  1  1
TYPE ASSIGNMENTS      1  1  1  1  2  2  2  2  2  2  3  3  3  3  3  3  4  4  4  4
TYPE ASSIGNMENTS      4  4  2  2  2  2  2  2  3  3  3  3  3  3  4  4  4  4  4  4
TYPE ASSIGNMENTS      2  3  4  2  3  4  2  3  4  5  6  7  8  9 10  5  6  7  8  9
TYPE ASSIGNMENTS     10  5  6  7  8  9 10 11 12 13 17 14 15 18 19 16 20 11 12 13
TYPE ASSIGNMENTS     17 14 15 18 19 16 20  1  1  1  1  1  1  1  1  1  1  1  1  1
TYPE ASSIGNMENTS      1  1  1  2  2  2  3  3  3  4  4  4  2  3  4  2  3  4  2  3
TYPE ASSIGNMENTS      4  5  6  7  8  9 10  5  6  7  8  9 10  5  6  7  8  9 10 11
TYPE ASSIGNMENTS     12 13 17 14 15 18 19 16 20 11 12 13 17 14 15 18 19 16 20
EXPONENTS  0.8236000D+04 0.1235000D+04 0.2808000D+03 0.7927000D+02 0.2559000D+02
EXPONENTS  0.8997000D+01 0.3319000D+01 0.2808000D+03 0.7927000D+02 0.2559000D+02
EXPONENTS  0.8997000D+01 0.3319000D+01 0.3643000D+00 0.9059000D+00 0.1285000D+00
EXPONENTS  0.4402000D-01 0.1871000D+02 0.4133000D+01 0.1200000D+01 0.1871000D+02
EXPONENTS  0.4133000D+01 0.1200000D+01 0.1871000D+02 0.4133000D+01 0.1200000D+01
EXPONENTS  0.3827000D+00 0.3827000D+00 0.3827000D+00 0.1209000D+00 0.1209000D+00
EXPONENTS  0.1209000D+00 0.3569000D-01 0.3569000D-01 0.3569000D-01 0.1097000D+01
EXPONENTS  0.1097000D+01 0.1097000D+01 0.1097000D+01 0.1097000D+01 0.1097000D+01
EXPONENTS  0.3180000D+00 0.3180000D+00 0.3180000D+00 0.3180000D+00 0.3180000D+00
EXPONENTS  0.3180000D+00 0.1000000D+00 0.1000000D+00 0.1000000D+00 0.1000000D+00
EXPONENTS  0.1000000D+00 0.1000000D+00 0.7610000D+00 0.7610000D+00 0.7610000D+00
EXPONENTS  0.7610000D+00 0.7610000D+00 0.7610000D+00 0.7610000D+00 0.7610000D+00
EXPONENTS  0.7610000D+00 0.7610000D+00 0.2680000D+00 0.2680000D+00 0.2680000D+00
EXPONENTS  0.2680000D+00 0.2680000D+00 0.2680000D+00 0.2680000D+00 0.2680000D+00
EXPONENTS  0.2680000D+00 0.2680000D+00 0.3387000D+02 0.5095000D+01 0.1159000D+01
EXPONENTS  0.3258000D+00 0.1027000D+00 0.2526000D-01 0.1407000D+01 0.1407000D+01
EXPONENTS  0.1407000D+01 0.3880000D+00 0.3880000D+00 0.3880000D+00 0.1020000D+00
EXPONENTS  0.1020000D+00 0.1020000D+00 0.1057000D+01 0.1057000D+01 0.1057000D+01
EXPONENTS  0.1057000D+01 0.1057000D+01 0.1057000D+01 0.2470000D+00 0.2470000D+00
EXPONENTS  0.2470000D+00 0.2470000D+00 0.2470000D+00 0.2470000D+00 0.3387000D+02
EXPONENTS  0.5095000D+01 0.1159000D+01 0.3258000D+00 0.1027000D+00 0.2526000D-01
EXPONENTS  0.1407000D+01 0.1407000D+01 0.1407000D+01 0.3880000D+00 0.3880000D+00
EXPONENTS  0.3880000D+00 0.1020000D+00 0.1020000D+00 0.1020000D+00 0.1057000D+01
EXPONENTS  0.1057000D+01 0.1057000D+01 0.1057000D+01 0.1057000D+01 0.1057000D+01
EXPONENTS  0.2470000D+00 0.2470000D+00 0.2470000D+00 0.2470000D+00 0.2470000D+00
EXPONENTS  0.2470000D+00 0.3387000D+02 0.5095000D+01 0.1159000D+01 0.3258000D+00
EXPONENTS  0.1027000D+00 0.2526000D-01 0.1407000D+01 0.1407000D+01 0.1407000D+01
EXPONENTS  0.3880000D+00 0.3880000D+00 0.3880000D+00 0.1020000D+00 0.1020000D+00
EXPONENTS  0.1020000D+00 0.1057000D+01 0.1057000D+01 0.1057000D+01 0.1057000D+01
EXPONENTS  0.1057000D+01 0.1057000D+01 0.2470000D+00 0.2470000D+00 0.2470000D+00
EXPONENTS  0.2470000D+00 0.2470000D+00 0.2470000D+00 0.4561000D+06 0.6833000D+05
EXPONENTS  0.1555000D+05 0.4405000D+04 0.1439000D+04 0.5204000D+03 0.2031000D+03
EXPONENTS  0.8396000D+02 0.3620000D+02 0.1583000D+02 0.6334000D+01 0.4405000D+04
EXPONENTS  0.1439000D+04 0.5204000D+03 0.2031000D+03 0.8396000D+02 0.3620000D+02
EXPONENTS  0.1583000D+02 0.6334000D+01 0.2694000D+01 0.1439000D+04 0.2031000D+03
EXPONENTS  0.8396000D+02 0.3620000D+02 0.1583000D+02 0.6334000D+01 0.2694000D+01
EXPONENTS  0.4313000D+00 0.9768000D+00 0.1625000D+00 0.5910000D-01 0.6633000D+03
EXPONENTS  0.1568000D+03 0.4998000D+02 0.1842000D+02 0.7240000D+01 0.2922000D+01
EXPONENTS  0.6633000D+03 0.1568000D+03 0.4998000D+02 0.1842000D+02 0.7240000D+01
EXPONENTS  0.2922000D+01 0.6633000D+03 0.1568000D+03 0.4998000D+02 0.1842000D+02
EXPONENTS  0.7240000D+01 0.2922000D+01 0.1568000D+03 0.4998000D+02 0.1842000D+02
EXPONENTS  0.7240000D+01 0.2922000D+01 0.3818000D+00 0.1568000D+03 0.4998000D+02
EXPONENTS  0.1842000D+02 0.7240000D+01 0.2922000D+01 0.3818000D+00 0.1568000D+03
EXPONENTS  0.4998000D+02 0.1842000D+02 0.7240000D+01 0.2922000D+01 0.3818000D+00
EXPONENTS  0.1022000D+01 0.1022000D+01 0.1022000D+01 0.1301000D+00 0.1301000D+00
EXPONENTS  0.1301000D+00 0.4190000D-01 0.4190000D-01 0.4190000D-01 0.1046000D+01
EXPONENTS  0.1046000D+01 0.1046000D+01 0.1046000D+01 0.1046000D+01 0.1046000D+01
EXPONENTS  0.3440000D+00 0.3440000D+00 0.3440000D+00 0.3440000D+00 0.3440000D+00
EXPONENTS  0.3440000D+00 0.1350000D+00 0.1350000D+00 0.1350000D+00 0.1350000D+00
EXPONENTS  0.1350000D+00 0.1350000D+00 0.7060000D+00 0.7060000D+00 0.7060000D+00
EXPONENTS  0.7060000D+00 0.7060000D+00 0.7060000D+00 0.7060000D+00 0.7060000D+00
EXPONENTS  0.7060000D+00 0.7060000D+00 0.3120000D+00 0.3120000D+00 0.3120000D+00
EXPONENTS  0.3120000D+00 0.3120000D+00 0.3120000D+00 0.3120000D+00 0.3120000D+00
EXPONENTS  0.3120000D+00 0.3120000D+00 0.1950000D+05 0.2923000D+04 0.6645000D+03
EXPONENTS  0.1875000D+03 0.6062000D+02 0.2142000D+02 0.7950000D+01 0.6645000D+03
EXPONENTS  0.1875000D+03 0.6062000D+02 0.2142000D+02 0.7950000D+01 0.8815000D+00
EXPONENTS  0.2257000D+01 0.3041000D+00 0.9158000D-01 0.4388000D+02 0.9926000D+01
EXPONENTS  0.2930000D+01 0.4388000D+02 0.9926000D+01 0.2930000D+01 0.4388000D+02
EXPONENTS  0.9926000D+01 0.2930000D+01 0.9132000D+00 0.9132000D+00 0.9132000D+00
EXPONENTS  0.2672000D+00 0.2672000D+00 0.2672000D+00 0.7361000D-01 0.7361000D-01
EXPONENTS  0.7361000D-01 0.3107000D+01 0.3107000D+01 0.3107000D+01 0.3107000D+01
EXPONENTS  0.3107000D+01 0.3107000D+01 0.8550000D+00 0.8550000D+00 0.8550000D+00
EXPONENTS  0.8550000D+00 0.8550000D+00 0.8550000D+00 0.2920000D+00 0.2920000D+00
EXPONENTS  0.2920000D+00 0.2920000D+00 0.2920000D+00 0.2920000D+00 0.1917000D+01
EXPONENTS  0.1917000D+01 0.1917000D+01 0.1917000D+01 0.1917000D+01 0.1917000D+01
EXPONENTS  0.1917000D+01 0.1917000D+01 0.1917000D+01 0.1917000D+01 0.7240000D+00
EXPONENTS  0.7240000D+00 0.7240000D+00 0.7240000D+00 0.7240000D+00 0.7240000D+00
EXPONENTS  0.7240000D+00 0.7240000D+00 0.7240000D+00 0.7240000D+00
MO    1     MO 0.0        OCC NO =    2.0000300  ORB. ENERGY =    0.000000
 -0.13956105D-04 -0.26016991D-04 -0.43972259D-04 -0.66098507D-04 -0.81190177D-04
 -0.68521645D-04 -0.25765928D-04 -0.34006509D-08 -0.25417759D-07 -0.94991969D-07
 -0.26501280D-06 -0.35504409D-06  0.41924087D-06 -0.17481889D-05  0.22687212D-04
  0.60151224D-06  0.10960776D-03  0.10276424D-03  0.73174260D-04  0.14315900D-05
  0.13422067D-05  0.95573110D-06  0.22116275D-06  0.20735414D-06  0.14764850D-06
  0.35488509D-03  0.49005137D-05  0.16932819D-05  0.45933566D-03  0.50699852D-05
 -0.14023495D-05  0.94798220D-05  0.16262525D-06 -0.15969602D-07  0.12208440D-05
 -0.18935481D-05  0.67270414D-06  0.12679648D-03 -0.51069318D-03 -0.48097016D-05
  0.45541726D-05 -0.24479202D-05 -0.21062525D-05  0.38440037D-03  0.96949994D-04
  0.19148033D-05  0.40999328D-06 -0.83653317D-06  0.42653989D-06  0.81611683D-04
 -0.65795162D-04 -0.54866085D-06  0.91255401D-04  0.84047357D-06 -0.26802380D-06
  0.95148886D-04  0.78426582D-06  0.21871253D-05 -0.36891509D-03 -0.33056865D-05
 -0.13830539D-05  0.50213738D-04 -0.27173826D-04 -0.11058395D-05 -0.12079000D-06
 -0.24938254D-04  0.25091904D-05  0.11011631D-05  0.10645973D-03  0.80832813D-06
 -0.73879315D-06  0.10052431D-03 -0.55919979D-06 -0.10085398D-05 -0.14870914D-05
 -0.36520413D-05  0.12870146D-04 -0.95905346D-07  0.50334406D-05  0.81708809D-07
  0.65214297D-07  0.79470264D-04  0.25687803D-05  0.34494061D-05  0.74475738D-04
  0.16328263D-05  0.56385270D-06 -0.10943697D-05  0.57834376D-06  0.51602593D-06
  0.27726708D-04 -0.47083116D-04  0.40832083D-05 -0.50213955D-07  0.11875153D-06
 -0.68537572D-07  0.28442060D-04  0.60695576D-04  0.41975266D-06 -0.34792815D-04
 -0.62750275D-04 -0.92525243D-04  0.29930839D-03  0.95175226D-03 -0.10307015D-04
  0.52509340D-04 -0.27454581D-04  0.19310498D-04  0.23164201D-03 -0.86823642D-04
  0.22941752D-03  0.14492828D-03 -0.41880523D-04  0.19280622D-04  0.10329635D-04
 -0.67581308D-04  0.57251673D-04 -0.10719345D-03  0.20641842D-03 -0.14950142D-03
 -0.10495802D-04 -0.36135879D-04  0.46631681D-04 -0.16155458D-04  0.38448364D-04
  0.12941210D-04  0.34842630D-04  0.62840118D-04  0.92657717D-04 -0.32360764D-03
 -0.97546187D-03  0.10302261D-04  0.54919667D-04  0.29051449D-04 -0.21224288D-04
  0.23715377D-03  0.87455753D-04 -0.23684876D-03  0.14790031D-03  0.42915619D-04
 -0.19489062D-04 -0.10060530D-04  0.69991718D-04 -0.59931188D-04 -0.10534719D-03
  0.21358049D-03  0.14984051D-03  0.11484815D-04  0.37332725D-04 -0.48817540D-04
 -0.16420199D-04  0.38349135D-04 -0.12480098D-04  0.37403457D-04  0.69977877D-04
  0.12090625D-03  0.19600324D-03  0.29764973D-03  0.41370511D-03  0.49186368D-03
  0.43816926D-03  0.21760412D-03  0.35032422D-04  0.36961275D-06  0.17506523D-06
  0.58398829D-05  0.20350823D-04  0.73286607D-04  0.16155121D-03  0.22741196D-03
 -0.10848292D-04 -0.29760804D-03 -0.17597377D-03  0.44716307D-08  0.54162368D-07
  0.11294991D-06  0.32392067D-06  0.16820750D-07 -0.13969030D-05 -0.36093292D-05
  0.29407115D-05 -0.11078269D-04 -0.72581545D-06 -0.43723020D-06  0.11610099D+02
  0.15293216D+02  0.16870812D+02  0.14012530D+02  0.74410423D+01  0.19198278D+01
  0.12253144D+00  0.16140257D+00  0.17805230D+00  0.14788638D+00  0.78531769D-01
  0.20261607D-01  0.35028000D-03  0.46140071D-03  0.50899721D-03  0.42276203D-03
  0.22449837D-03  0.57921753D-04 -0.45945915D-03  0.44417555D-02  0.62633389D-02
  0.89582315D-02 -0.45363223D-04 -0.82155432D-02 -0.48273832D-05  0.46668034D-04
  0.65806800D-04  0.94121132D-04 -0.47661617D-06 -0.86317956D-04 -0.59423683D-08
  0.57446993D-07  0.81006257D-07  0.11586038D-06 -0.58670064D-09 -0.10625489D-06
  0.76646806D-01  0.80837227D-03  0.24208439D-05 -0.64404510D-03 -0.70109979D-05
  0.32906623D-06 -0.58014136D-04 -0.63041466D-06  0.28825527D-07  0.60089320D-06
 -0.18681140D-06 -0.41408180D-06  0.24714848D-04 -0.98014597D-03 -0.99327270D-05
 -0.18398917D-06 -0.76057572D-08  0.19159493D-06 -0.86292913D-05  0.35547166D-03
  0.34686454D-05  0.32281806D-07 -0.25518804D-07 -0.67630020D-08  0.25700642D-05
 -0.60856616D-04 -0.51498843D-06  0.22502892D-05  0.96168502D-08 -0.69654357D-08
  0.21851136D-05 -0.17706388D-06  0.68486581D-06 -0.89359811D-05  0.14821333D-06
 -0.66396950D-06  0.70294514D-04  0.14663381D-04  0.14994867D-06 -0.72181053D-07
  0.14651337D-04  0.21625957D-06 -0.52034059D-07 -0.58641479D-04 -0.66610557D-06
  0.26857722D-06 -0.14508689D-04 -0.61348635D-06 -0.11435396D-05 -0.19385544D-05
 -0.29352335D-05 -0.36696884D-05 -0.31565901D-05 -0.12106202D-05 -0.37118376D-08
 -0.49137780D-07 -0.17847736D-06 -0.52944972D-06 -0.61008386D-06  0.74103772D-06
 -0.17952958D-06 -0.16450499D-05 -0.66294448D-06 -0.29235486D-03 -0.28591667D-03
 -0.18891723D-03 -0.20369501D-05 -0.19920927D-05 -0.13162599D-05  0.13045106D-05
  0.12757829D-05  0.84296369D-06 -0.83729117D-05  0.12120892D-06  0.18776821D-06
 -0.66934380D-04 -0.48048083D-06 -0.67059176D-06 -0.19622447D-04 -0.21571682D-06
 -0.29924479D-07  0.12056053D-05 -0.14646104D-05  0.25900513D-06  0.14163677D-03
 -0.13376931D-03 -0.23344362D-05 -0.58218526D-06  0.76495195D-06 -0.18276668D-06
 -0.70990841D-04  0.10254136D-03  0.14443488D-05  0.34936049D-06 -0.37568153D-06
  0.26321041D-07  0.35912963D-04 -0.74272347D-04 -0.72544540D-06 -0.71090378D-04
 -0.28361356D-06 -0.50499241D-06 -0.72417099D-04 -0.12059303D-05 -0.33318724D-05
  0.28568823D-03  0.20567710D-05  0.48468497D-05 -0.37665996D-03  0.25251910D-04
  0.10150228D-06  0.17476163D-06  0.25655795D-04  0.38685047D-06  0.10459201D-05
 -0.10141152D-03 -0.69135729D-06 -0.15702050D-05  0.11953315D-03
MO    2     MO 0.0        OCC NO =    2.0000300  ORB. ENERGY =    0.000000
 -0.87756768D-05 -0.16359630D-04 -0.27650003D-04 -0.41563111D-04 -0.51052838D-04
 -0.43086794D-04 -0.16201760D-04  0.12895686D-07  0.96387263D-07  0.36022121D-06
  0.10049611D-05  0.13463708D-05 -0.15898128D-05 -0.35390494D-05  0.14513156D-04
  0.44826322D-06 -0.92974884D-06 -0.87169864D-06 -0.62070136D-06  0.11126821D-03
  0.10432102D-03  0.74282778D-04  0.33198834D-06  0.31126017D-06  0.22163579D-06
 -0.26136206D-05  0.36450324D-03 -0.13788242D-05 -0.46699171D-05  0.46472393D-03
 -0.69054111D-06 -0.34585357D-07  0.92097995D-05 -0.10500566D-07  0.63333813D-04
 -0.64933898D-04  0.16000856D-05 -0.17245419D-05  0.59393218D-05 -0.51050429D-03
  0.19516232D-03 -0.19239419D-03 -0.27681327D-05 -0.76806597D-05 -0.13769115D-06
  0.97325800D-04  0.40797231D-04 -0.41577027D-04  0.77979550D-06 -0.19007946D-05
  0.84185567D-06 -0.66316222D-04 -0.19396509D-06  0.93066071D-04  0.47352475D-06
 -0.39248888D-05  0.92834124D-04  0.23524421D-04  0.45067841D-05 -0.37203234D-03
 -0.24944995D-04  0.16988285D-05  0.86895663D-06 -0.28108279D-04  0.35822582D-07
 -0.11626512D-05 -0.23439851D-04  0.49812838D-04 -0.14442187D-05  0.10776469D-03
 -0.49920305D-04 -0.19831621D-05 -0.40244859D-04 -0.72583260D-04 -0.10702397D-03
  0.35899532D-03  0.11244009D-02 -0.12341161D-04  0.48439913D-07  0.71879802D-04
  0.24405999D-04  0.24388925D-06  0.28760761D-03  0.26868793D-03 -0.13884817D-05
  0.17199874D-03  0.22264750D-04 -0.11035597D-03  0.43030288D-04  0.67325684D-04
  0.32175978D-06  0.56783311D-06  0.29692303D-03 -0.43030704D-04 -0.11793374D-04
  0.54824079D-04 -0.32734687D-06 -0.10004213D-05  0.31137096D-04  0.20710641D-04
  0.37352494D-04  0.55076230D-04 -0.19566432D-03 -0.57441570D-03  0.63724252D-05
 -0.29810074D-04  0.22349385D-04 -0.12274613D-04 -0.93989959D-04  0.13559961D-03
 -0.13678200D-03 -0.44237989D-04  0.10102504D-03 -0.11027042D-04  0.88540238D-05
  0.25404753D-04 -0.34258777D-04  0.82483482D-04 -0.15073365D-03  0.42399283D-04
  0.21370072D-04  0.79753914D-05 -0.29345464D-04  0.26715139D-04  0.12690116D-04
  0.52853294D-04  0.19509701D-04  0.35186548D-04  0.51882545D-04 -0.18872692D-03
 -0.55110488D-03  0.59175545D-05  0.29055476D-04  0.20706456D-04 -0.12348309D-04
  0.85255737D-04  0.13754501D-03 -0.13257214D-03  0.40480041D-04  0.10046441D-03
 -0.10754651D-04  0.10726219D-04  0.22540730D-04 -0.33266949D-04 -0.79582733D-04
  0.14668389D-03  0.37735001D-04  0.21088004D-04  0.68763335D-05 -0.27964337D-04
 -0.26622965D-04 -0.13713116D-04  0.54088128D-04  0.49101330D-05  0.91863349D-05
  0.15871949D-04  0.25730294D-04  0.39073921D-04  0.54309074D-04  0.64569328D-04
  0.57520601D-04  0.28565947D-04  0.45988757D-05  0.48520856D-07  0.22014376D-07
  0.73436274D-06  0.25591071D-05  0.92157591D-05  0.20314994D-04  0.28596955D-04
 -0.13641680D-05 -0.37424082D-04 -0.22128625D-04  0.23099724D-08  0.27979407D-07
  0.58348104D-07  0.16733220D-06  0.86893284D-08 -0.72161762D-06 -0.18645213D-05
  0.15191242D-05 -0.16436536D-05 -0.35064848D-05 -0.68771715D-06 -0.12252864D+00
 -0.16139888D+00 -0.17804823D+00 -0.14788300D+00 -0.78529976D-01 -0.20261144D-01
  0.11610082D+02  0.15293194D+02  0.16870787D+02  0.14012509D+02  0.74410312D+01
  0.19198250D+01 -0.53812770D-02 -0.70884007D-02 -0.78196155D-02 -0.64948029D-02
 -0.34489206D-02 -0.88983954D-03  0.48710181D-05 -0.47089869D-04 -0.66401630D-04
 -0.94971897D-04  0.48092432D-06  0.87098187D-04 -0.45950481D-03  0.44421969D-02
  0.62639613D-02  0.89591217D-02 -0.45367731D-04 -0.82163596D-02  0.26026809D-06
 -0.25161044D-05 -0.35479699D-05 -0.50745355D-05  0.25696734D-07  0.46538277D-05
 -0.80949192D-03  0.76650840D-01 -0.36242277D-04  0.65760424D-05 -0.64305499D-03
  0.11915398D-05  0.59329262D-06 -0.57931278D-04  0.70412208D-07  0.12398662D-04
 -0.12539523D-04  0.14086067D-06 -0.16583484D-06  0.10767118D-04 -0.98101942D-03
 -0.43387850D-05  0.44086333D-05 -0.69848332D-07  0.15764364D-06 -0.40470359D-05
  0.35669021D-03  0.12512000D-05 -0.12632855D-05  0.12085526D-07 -0.38903558D-07
  0.77259023D-06 -0.61267627D-04 -0.10938692D-06  0.26365106D-05  0.52159097D-07
 -0.15576062D-07  0.20131339D-05  0.34842176D-04  0.34373683D-06 -0.99226656D-05
 -0.34998654D-04 -0.13260535D-05 -0.14111664D-06  0.14592448D-04 -0.87420863D-07
 -0.14853060D-06  0.14804504D-04 -0.69852669D-05  0.57188053D-06 -0.58581847D-04
  0.72475295D-05  0.22614022D-06  0.12004921D-05  0.22377193D-05  0.37934327D-05
  0.57437701D-05  0.71809778D-05  0.61769286D-05  0.23689851D-05 -0.46629670D-08
 -0.61728952D-07 -0.22421079D-06 -0.66511707D-06 -0.76641309D-06  0.93092285D-06
 -0.28411636D-07 -0.23031690D-05 -0.12905839D-05  0.41267521D-05  0.40358734D-05
  0.26666722D-05 -0.29188165D-03 -0.28545388D-03 -0.18861145D-03 -0.19158413D-05
 -0.18736509D-05 -0.12380004D-05  0.29731890D-06 -0.88097095D-05 -0.96997609D-06
  0.93612227D-06 -0.66984180D-04 -0.59092943D-06  0.19762026D-06 -0.19499908D-04
 -0.12099116D-06  0.70539743D-04 -0.71093847D-04  0.55410398D-06 -0.27452259D-05
  0.46135913D-06 -0.13084855D-03 -0.35305335D-04  0.35746971D-04 -0.44163623D-06
  0.13670117D-05 -0.70882745D-06  0.10122248D-03  0.17783508D-04 -0.18130414D-04
  0.34690598D-06 -0.64525569D-06  0.84301595D-06 -0.74131338D-04  0.96471245D-06
 -0.71392740D-04 -0.14129081D-05  0.11036326D-05 -0.73136446D-04 -0.18564085D-03
 -0.39977700D-05  0.28731467D-03  0.18987957D-03  0.61615781D-05 -0.35462808D-06
  0.25396794D-04  0.50703857D-06 -0.39449373D-06  0.25912143D-04  0.58825292D-04
  0.14583780D-05 -0.10210252D-03 -0.60346408D-04 -0.19337012D-05
MO    3     MO 0.0        OCC NO =    2.0000210  ORB. ENERGY =    0.000000
 -0.14462356D-01 -0.26960745D-01 -0.45567332D-01 -0.68496198D-01 -0.84135311D-01
 -0.71007234D-01 -0.26700574D-01 -0.38184860D-05 -0.28540817D-04 -0.10666355D-03
 -0.29757470D-03 -0.39866805D-03  0.47075264D-03 -0.87152581D-03 -0.19298570D-02
 -0.81709715D-04  0.20391576D-05  0.19118399D-05  0.13613439D-05 -0.85764073D-06
 -0.80409270D-06 -0.57256190D-06  0.11663504D-02  0.10935276D-02  0.77865679D-03
 -0.67522546D-05  0.25083887D-05  0.60569340D-03 -0.39227382D-05 -0.18834862D-05
 -0.37868405D-03  0.22925691D-07  0.62246762D-07  0.46718525D-05 -0.10437341D-03
 -0.10588676D-03  0.21026017D-03 -0.19084722D-05  0.12145214D-06 -0.27658942D-06
 -0.23394946D-04 -0.25371397D-04  0.48766343D-04 -0.24939312D-05  0.18541085D-05
  0.16755797D-06  0.11263652D-04  0.11658691D-04 -0.22922343D-04 -0.47847475D-06
 -0.37276329D-06 -0.34833951D-06 -0.46544312D-06  0.36222100D-04  0.76198931D-05
  0.77254650D-06 -0.10882984D-03 -0.11759702D-04  0.62378288D-06  0.16353912D-06
 -0.11099978D-04  0.33110167D-06 -0.35553285D-06  0.52004229D-04 -0.85566329D-04
  0.14344976D-05 -0.15568961D-03  0.12829491D-03 -0.36789904D-06 -0.32308170D-06
  0.12840408D-03  0.50972334D-06 -0.46735197D-05 -0.84288853D-05 -0.12428386D-04
  0.75415674D-03  0.23208833D-03  0.51782609D-05  0.92103894D-06  0.95807618D-04
  0.28762886D-04 -0.26862332D-05  0.20088889D-03 -0.42004753D-05 -0.72591900D-06
  0.43646317D-04  0.38221572D-04 -0.74110713D-04  0.54690727D-04  0.19419986D-04
 -0.66620819D-06 -0.86537048D-06  0.76178809D-04 -0.97607723D-05 -0.11844160D-04
  0.21604932D-04 -0.55922067D-06  0.14137577D-06 -0.34461477D-04 -0.53558874D-05
 -0.96595636D-05 -0.14243021D-04  0.74463348D-03  0.22771851D-03  0.49285438D-05
  0.81493102D-04 -0.46684215D-04  0.26932517D-04  0.16907241D-03 -0.10410860D-03
 -0.28480018D-05  0.36427163D-04 -0.22511850D-04  0.38230587D-04  0.21003255D-04
 -0.40053903D-04  0.19050648D-04 -0.11271598D-03  0.64389803D-04 -0.39447694D-04
 -0.11791060D-04 -0.99841777D-05  0.21775238D-04  0.21110443D-05 -0.29471142D-04
  0.17395812D-04 -0.48548969D-05 -0.87560065D-05 -0.12910726D-04  0.75762553D-03
  0.24403722D-03  0.50064906D-05 -0.83530426D-04 -0.47990797D-04  0.28609003D-04
 -0.17417841D-03 -0.10206713D-03 -0.43027012D-05 -0.39156710D-04 -0.22829101D-04
  0.39408199D-04  0.22319001D-04 -0.41679166D-04  0.19360165D-04  0.11211845D-03
 -0.65581046D-04 -0.38397526D-04 -0.11372808D-04 -0.10383928D-04  0.21756736D-04
 -0.17357337D-05  0.30169580D-04  0.17295825D-04 -0.15462883D+00 -0.28929404D+00
 -0.49983593D+00 -0.81029278D+00 -0.12305073D+01 -0.17102894D+01 -0.20334031D+01
 -0.18114261D+01 -0.89959251D+00 -0.14482678D+00 -0.15280081D-02 -0.72296444D-03
 -0.24116883D-01 -0.84042510D-01 -0.30265069D+00 -0.66715578D+00 -0.93914001D+00
  0.44800039D-01  0.12290278D+01  0.72671644D+00 -0.15533177D-04 -0.18814470D-03
 -0.39235594D-03 -0.11252085D-02 -0.58430512D-04  0.48524449D-02  0.12537786D-01
 -0.10215198D-01  0.46608582D-01 -0.38469578D-03 -0.13201522D-03  0.18278486D-02
  0.24077042D-02  0.26560746D-02  0.22060780D-02  0.11714886D-02  0.30225018D-03
  0.30267133D-02  0.39868895D-02  0.43981632D-02  0.36530189D-02  0.19398544D-02
  0.50049258D-03  0.59385375D+01  0.78224432D+01  0.86293793D+01  0.71673752D+01
  0.38060751D+01  0.98198727D+00 -0.65073148D-07  0.62908532D-06  0.88707597D-06
  0.12687533D-05 -0.64247881D-08 -0.11635664D-05 -0.94370112D-07  0.91230952D-06
  0.12864517D-05  0.18399662D-05 -0.93173298D-08 -0.16874225D-05 -0.21066110D-03
  0.20365359D-02  0.28717283D-02  0.41073311D-02 -0.20798946D-04 -0.37668100D-02
  0.12347958D-04  0.20802713D-04  0.41633745D-01  0.41721138D-07 -0.70317630D-07
 -0.48362326D-03 -0.25852256D-07 -0.34381259D-07 -0.98365812D-05 -0.75191252D-05
 -0.72820767D-05  0.14801202D-04  0.14989061D-06  0.57791227D-07  0.69233733D-06
 -0.11118147D-03 -0.11125449D-03  0.22243596D-03 -0.29834518D-07 -0.74265101D-07
 -0.98482181D-07 -0.14279578D-04 -0.14330642D-04  0.28610220D-04  0.61500688D-08
 -0.56661343D-07  0.28404629D-07  0.83976165D-07 -0.72300221D-05  0.54540137D-05
 -0.16244140D-06  0.21668217D-04 -0.78801527D-05 -0.89487100D-07  0.21848781D-07
 -0.84818883D-05  0.75593991D-07 -0.29407994D-07  0.20572656D-05 -0.33662748D-04
  0.40359591D-07 -0.61590116D-05  0.50363666D-04  0.47864391D-07 -0.12785124D-07
  0.50624579D-04  0.94869882D-08 -0.87907226D-03 -0.16385922D-02 -0.27777788D-02
 -0.42059328D-02 -0.52583424D-02 -0.45231174D-02 -0.17347129D-02 -0.68260626D-06
 -0.90364288D-05 -0.32821953D-04 -0.97365707D-04 -0.11219431D-03  0.13627670D-03
 -0.95886974D-04 -0.15886549D-03  0.12559912D-04  0.30916512D-06  0.30235673D-06
  0.19977988D-06  0.23799689D-05  0.23275576D-05  0.15379157D-05  0.39004923D-02
  0.38145963D-02  0.25204650D-02  0.29366425D-06  0.97167952D-06  0.87888458D-03
 -0.10287614D-06 -0.11187917D-06  0.21572493D-04 -0.44258210D-07 -0.13646853D-07
  0.93443139D-05 -0.35579368D-04 -0.35702901D-04  0.71282269D-04  0.44405450D-06
 -0.35457755D-06 -0.76160271D-06  0.21034582D-04  0.21100982D-04 -0.42135564D-04
 -0.20329742D-06  0.17177193D-06  0.32549473D-06  0.18143496D-04  0.18094054D-04
 -0.36237550D-04  0.88584173D-07  0.10330384D-07 -0.14655477D-06  0.19967772D-06
 -0.29412580D-05  0.46628498D-04  0.96806218D-07  0.93645348D-05 -0.70598760D-04
 -0.69583939D-06 -0.54076071D-06 -0.69286735D-04 -0.62537587D-06 -0.76892824D-07
  0.92609412D-06 -0.25461159D-04 -0.44624404D-07 -0.29386786D-05  0.38381685D-04
  0.27530288D-06  0.16039623D-06  0.38001793D-04  0.19860452D-06
MO    4     MO 0.0        OCC NO =    2.0000123  ORB. ENERGY =    0.000000
  0.26635371D-01  0.49653698D-01  0.83921515D-01  0.12614969D+00  0.15495230D+00
  0.13077427D+00  0.49174542D-01 -0.14915255D-05 -0.11148229D-04 -0.41663478D-04
 -0.11623462D-03 -0.15572234D-03  0.18387905D-03  0.26311393D-02 -0.35999986D-02
 -0.41400406D-04 -0.24932406D-05 -0.23375716D-05 -0.16644902D-05  0.29249902D-05
  0.27423643D-05  0.19527267D-05  0.36691334D-02  0.34400458D-02  0.24495176D-02
 -0.95369549D-05  0.62239137D-05  0.13032486D-02 -0.68274217D-05 -0.78174439D-06
 -0.41604878D-03  0.83761658D-08  0.68549907D-07  0.37276370D-05 -0.31904338D-03
 -0.31969639D-03  0.63873977D-03 -0.17824536D-05 -0.20917156D-06  0.10725689D-06
  0.12589214D-04  0.61700407D-05 -0.18759255D-04 -0.27764253D-05  0.33124122D-05
 -0.45993205D-06 -0.17541672D-04 -0.18170750D-04  0.35712421D-04 -0.35042041D-06
 -0.48921873D-06 -0.25948209D-06  0.32290909D-06 -0.41847664D-04  0.22312739D-04
 -0.11436282D-05  0.12537212D-03 -0.33929984D-04  0.17490090D-06  0.17087385D-06
 -0.33008231D-04  0.65427066D-06 -0.51129825D-06  0.82120028D-04 -0.16359736D-03
  0.23111142D-05 -0.24567884D-03  0.24472245D-03 -0.77721943D-06 -0.68123803D-06
  0.24606962D-03  0.37095266D-06 -0.90206694D-04 -0.16269149D-03 -0.23988850D-03
  0.10268200D-02  0.68624981D-03  0.43655715D-05  0.13427529D-05 -0.57209892D-04
  0.34476112D-04 -0.33806472D-05  0.30814744D-03 -0.44109807D-04 -0.68666032D-06
  0.11132407D-03  0.75445385D-04 -0.14292484D-03  0.25311812D-04  0.11761303D-03
  0.35170469D-06 -0.14648282D-05  0.14296026D-03 -0.14972060D-04 -0.20635347D-04
  0.35607407D-04 -0.71079940D-06  0.83082569D-07 -0.62784004D-04 -0.89834993D-04
 -0.16202111D-03 -0.23890003D-03  0.10081206D-02  0.66673848D-03  0.40782848D-05
 -0.51629604D-04  0.32528018D-04  0.30676876D-04  0.25884602D-03 -0.15724713D-03
 -0.40415666D-04  0.93774785D-04 -0.55302367D-04  0.74901462D-04 -0.19242647D-04
 -0.99053840D-04  0.11829649D-03 -0.14178690D-03  0.12030079D-03 -0.73039085D-04
 -0.19572230D-04 -0.16112280D-04  0.35684510D-04  0.55477966D-05 -0.53617730D-04
  0.31200723D-04 -0.90153600D-04 -0.16259573D-03 -0.23974731D-03  0.10259691D-02
  0.69259185D-03  0.42302206D-05  0.48934208D-04  0.28849209D-04  0.33743523D-04
 -0.26544758D-03 -0.15424572D-03 -0.43314802D-04 -0.97882834D-04 -0.55795430D-04
  0.76682739D-04 -0.16401484D-04 -0.10132701D-03  0.11772849D-03  0.14576015D-03
 -0.12312853D-03 -0.71577186D-04 -0.19207396D-04 -0.16633127D-04  0.35840523D-04
 -0.52477617D-05  0.54941882D-04  0.31249740D-04  0.91277468D-01  0.17077040D+00
  0.29505338D+00  0.47831619D+00  0.72636903D+00  0.10095846D+01  0.12003188D+01
  0.10692857D+01  0.53102987D+00  0.85491316D-01  0.90198388D-03  0.42735988D-03
  0.14256010D-01  0.49679341D-01  0.17890335D+00  0.39437017D+00  0.55514592D+00
 -0.26482270D-01 -0.72650485D+00 -0.42957777D+00  0.62755487D-05  0.76012220D-04
  0.15851547D-03  0.45459477D-03  0.23606474D-04 -0.19604331D-02 -0.50653827D-02
  0.41270354D-02 -0.28533800D-01  0.14170217D-02 -0.18234451D-03 -0.15259868D-02
 -0.20100815D-02 -0.22174346D-02 -0.18417530D-02 -0.97802198D-03 -0.25233478D-03
  0.44509232D-02  0.58629071D-02  0.64677043D-02  0.53719348D-02  0.28526464D-02
  0.73599769D-03  0.99166696D+01  0.13062574D+02  0.14410064D+02  0.11968686D+02
  0.63557044D+01  0.16398050D+01  0.51313786D-07 -0.49606867D-06 -0.69950860D-06
 -0.10004823D-05  0.50663018D-08  0.91753667D-06 -0.13068927D-06  0.12634198D-05
  0.17815538D-05  0.25480931D-05 -0.12903185D-07 -0.23368417D-05 -0.33685803D-03
  0.32565267D-02  0.45920426D-02  0.65678357D-02 -0.33258596D-04 -0.60233248D-02
 -0.11058497D-04  0.31970476D-04  0.72571516D-01  0.24970233D-06 -0.11750779D-07
 -0.30559593D-03 -0.14925513D-07 -0.40271464D-07 -0.39343711D-05  0.45404785D-03
  0.45410038D-03 -0.90814823D-03  0.22940933D-06  0.64308503D-06 -0.26027325D-06
 -0.30937834D-03 -0.30945148D-03  0.61882981D-03 -0.44906943D-07 -0.33500512D-06
  0.21555570D-06  0.44200910D-05  0.43737256D-05 -0.87938165D-05 -0.25576536D-07
 -0.80108344D-07  0.17408493D-07  0.17460344D-06 -0.14537218D-04 -0.46977332D-04
 -0.32054112D-06  0.43639275D-04  0.70937652D-04 -0.20326921D-06 -0.27622488D-07
  0.69994344D-04 -0.16991202D-06 -0.62753280D-07  0.41906446D-05 -0.62454504D-04
  0.78869030D-07 -0.12514908D-04  0.93455645D-04  0.10939081D-06 -0.57025867D-07
  0.93907868D-04  0.11307344D-06 -0.63503013D-02 -0.11836973D-01 -0.20066306D-01