 clch3f_ts-wavefunction
GAUSSIAN            211 MOL ORBITALS    339 PRIMITIVES        6 NUCLEI
  C    1    (CENTRE  1)   0.00033070  0.00005480 -0.94053370  CHARGE =  6.0
  H    2    (CENTRE  2)   0.00003590 -1.98906904 -1.17300214  CHARGE =  1.0
  H    3    (CENTRE  3)  -1.72213010  0.99468570 -1.19288017  CHARGE =  1.0
  H    4    (CENTRE  4)   1.72295780  0.99424539 -1.17459707  CHARGE =  1.0
  Cl   5    (CENTRE  5)   0.00104880  0.00181792  3.10806659  CHARGE = 17.0
  F    6    (CENTRE  6)  -0.00035149 -0.00174044 -4.90094425  CHARGE =  9.0
CENTRE ASSIGNMENTS    1  1  1  1  1  1  1  1  1  1  1  1  1  1  1  1  1  1  1  1
CENTRE ASSIGNMENTS    1  1  1  1  1  1  1  1  1  1  1  1  1  1  1  1  1  1  1  1
CENTRE ASSIGNMENTS    1  1  1  1  1  1  1  1  1  1  1  1  1  1  1  1  1  1  1  1
CENTRE ASSIGNMENTS    1  1  1  1  1  1  1  1  1  1  1  1  2  2  2  2  2  2  2  2
CENTRE ASSIGNMENTS    2  2  2  2  2  2  2  2  2  2  2  2  2  2  2  2  2  2  2  3
CENTRE ASSIGNMENTS    3  3  3  3  3  3  3  3  3  3  3  3  3  3  3  3  3  3  3  3
CENTRE ASSIGNMENTS    3  3  3  3  3  3  4  4  4  4  4  4  4  4  4  4  4  4  4  4
CENTRE ASSIGNMENTS    4  4  4  4  4  4  4  4  4  4  4  4  4  5  5  5  5  5  5  5
CENTRE ASSIGNMENTS    5  5  5  5  5  5  5  5  5  5  5  5  5  5  5  5  5  5  5  5
CENTRE ASSIGNMENTS    5  5  5  5  5  5  5  5  5  5  5  5  5  5  5  5  5  5  5  5
CENTRE ASSIGNMENTS    5  5  5  5  5  5  5  5  5  5  5  5  5  5  5  5  5  5  5  5
CENTRE ASSIGNMENTS    5  5  5  5  5  5  5  5  5  5  5  5  5  5  5  5  5  5  5  5
CENTRE ASSIGNMENTS    5  5  5  5  5  5  5  5  5  5  5  5  5  5  5  5  5  5  5  5
CENTRE ASSIGNMENTS    5  5  5  5  5  5  5  6  6  6  6  6  6  6  6  6  6  6  6  6
CENTRE ASSIGNMENTS    6  6  6  6  6  6  6  6  6  6  6  6  6  6  6  6  6  6  6  6
CENTRE ASSIGNMENTS    6  6  6  6  6  6  6  6  6  6  6  6  6  6  6  6  6  6  6  6
CENTRE ASSIGNMENTS    6  6  6  6  6  6  6  6  6  6  6  6  6  6  6  6  6  6  6
TYPE ASSIGNMENTS      1  1  1  1  1  1  1  1  1  1  1  1  1  1  1  1  2  2  2  3
TYPE ASSIGNMENTS      3  3  4  4  4  2  3  4  2  3  4  2  3  4  5  6  7  8  9 10
TYPE ASSIGNMENTS      5  6  7  8  9 10  5  6  7  8  9 10 11 12 13 17 14 15 18 19
TYPE ASSIGNMENTS     16 20 11 12 13 17 14 15 18 19 16 20  1  1  1  1  1  1  2  3
TYPE ASSIGNMENTS      4  2  3  4  2  3  4  5  6  7  8  9 10  5  6  7  8  9 10  1
TYPE ASSIGNMENTS      1  1  1  1  1  2  3  4  2  3  4  2  3  4  5  6  7  8  9 10
TYPE ASSIGNMENTS      5  6  7  8  9 10  1  1  1  1  1  1  2  3  4  2  3  4  2  3
TYPE ASSIGNMENTS      4  5  6  7  8  9 10  5  6  7  8  9 10  1  1  1  1  1  1  1
TYPE ASSIGNMENTS      1  1  1  1  1  1  1  1  1  1  1  1  1  1  1  1  1  1  1  1
TYPE ASSIGNMENTS      1  1  1  1  2  2  2  2  2  2  3  3  3  3  3  3  4  4  4  4
TYPE ASSIGNMENTS      4  4  2  2  2  2  2  2  3  3  3  3  3  3  4  4  4  4  4  4
TYPE ASSIGNMENTS      2  3  4  2  3  4  2  3  4  5  6  7  8  9 10  5  6  7  8  9
TYPE ASSIGNMENTS     10  5  6  7  8  9 10 11 12 13 17 14 15 18 19 16 20 11 12 13
TYPE ASSIGNMENTS     17 14 15 18 19 16 20  1  1  1  1  1  1  1  1  1  1  1  1  1
TYPE ASSIGNMENTS      1  1  1  2  2  2  3  3  3  4  4  4  2  3  4  2  3  4  2  3
TYPE ASSIGNMENTS      4  5  6  7  8  9 10  5  6  7  8  9 10  5  6  7  8  9 10 11
TYPE ASSIGNMENTS     12 13 17 14 15 18 19 16 20 11 12 13 17 14 15 18 19 16 20
EXPONENTS  0.8236000D+04 0.1235000D+04 0.2808000D+03 0.7927000D+02 0.2559000D+02
EXPONENTS  0.8997000D+01 0.3319000D+01 0.2808000D+03 0.7927000D+02 0.2559000D+02
EXPONENTS  0.8997000D+01 0.3319000D+01 0.3643000D+00 0.9059000D+00 0.1285000D+00
EXPONENTS  0.4402000D-01 0.1871000D+02 0.4133000D+01 0.1200000D+01 0.1871000D+02
EXPONENTS  0.4133000D+01 0.1200000D+01 0.1871000D+02 0.4133000D+01 0.1200000D+01
EXPONENTS  0.3827000D+00 0.3827000D+00 0.3827000D+00 0.1209000D+00 0.1209000D+00
EXPONENTS  0.1209000D+00 0.3569000D-01 0.3569000D-01 0.3569000D-01 0.1097000D+01
EXPONENTS  0.1097000D+01 0.1097000D+01 0.1097000D+01 0.1097000D+01 0.1097000D+01
EXPONENTS  0.3180000D+00 0.3180000D+00 0.3180000D+00 0.3180000D+00 0.3180000D+00
EXPONENTS  0.3180000D+00 0.1000000D+00 0.1000000D+00 0.1000000D+00 0.1000000D+00
EXPONENTS  0.1000000D+00 0.1000000D+00 0.7610000D+00 0.7610000D+00 0.7610000D+00
EXPONENTS  0.7610000D+00 0.7610000D+00 0.7610000D+00 0.7610000D+00 0.7610000D+00
EXPONENTS  0.7610000D+00 0.7610000D+00 0.2680000D+00 0.2680000D+00 0.2680000D+00
EXPONENTS  0.2680000D+00 0.2680000D+00 0.2680000D+00 0.2680000D+00 0.2680000D+00
EXPONENTS  0.2680000D+00 0.2680000D+00 0.3387000D+02 0.5095000D+01 0.1159000D+01
EXPONENTS  0.3258000D+00 0.1027000D+00 0.2526000D-01 0.1407000D+01 0.1407000D+01
EXPONENTS  0.1407000D+01 0.3880000D+00 0.3880000D+00 0.3880000D+00 0.1020000D+00
EXPONENTS  0.1020000D+00 0.1020000D+00 0.1057000D+01 0.1057000D+01 0.1057000D+01
EXPONENTS  0.1057000D+01 0.1057000D+01 0.1057000D+01 0.2470000D+00 0.2470000D+00
EXPONENTS  0.2470000D+00 0.2470000D+00 0.2470000D+00 0.2470000D+00 0.3387000D+02
EXPONENTS  0.5095000D+01 0.1159000D+01 0.3258000D+00 0.1027000D+00 0.2526000D-01
EXPONENTS  0.1407000D+01 0.1407000D+01 0.1407000D+01 0.3880000D+00 0.3880000D+00
EXPONENTS  0.3880000D+00 0.1020000D+00 0.1020000D+00 0.1020000D+00 0.1057000D+01
EXPONENTS  0.1057000D+01 0.1057000D+01 0.1057000D+01 0.1057000D+01 0.1057000D+01
EXPONENTS  0.2470000D+00 0.2470000D+00 0.2470000D+00 0.2470000D+00 0.2470000D+00
EXPONENTS  0.2470000D+00 0.3387000D+02 0.5095000D+01 0.1159000D+01 0.3258000D+00
EXPONENTS  0.1027000D+00 0.2526000D-01 0.1407000D+01 0.1407000D+01 0.1407000D+01
EXPONENTS  0.3880000D+00 0.3880000D+00 0.3880000D+00 0.1020000D+00 0.1020000D+00
EXPONENTS  0.1020000D+00 0.1057000D+01 0.1057000D+01 0.1057000D+01 0.1057000D+01
EXPONENTS  0.1057000D+01 0.1057000D+01 0.2470000D+00 0.2470000D+00 0.2470000D+00
EXPONENTS  0.2470000D+00 0.2470000D+00 0.2470000D+00 0.4561000D+06 0.6833000D+05
EXPONENTS  0.1555000D+05 0.4405000D+04 0.1439000D+04 0.5204000D+03 0.2031000D+03
EXPONENTS  0.8396000D+02 0.3620000D+02 0.1583000D+02 0.6334000D+01 0.4405000D+04
EXPONENTS  0.1439000D+04 0.5204000D+03 0.2031000D+03 0.8396000D+02 0.3620000D+02
EXPONENTS  0.1583000D+02 0.6334000D+01 0.2694000D+01 0.1439000D+04 0.2031000D+03
EXPONENTS  0.8396000D+02 0.3620000D+02 0.1583000D+02 0.6334000D+01 0.2694000D+01
EXPONENTS  0.4313000D+00 0.9768000D+00 0.1625000D+00 0.5910000D-01 0.6633000D+03
EXPONENTS  0.1568000D+03 0.4998000D+02 0.1842000D+02 0.7240000D+01 0.2922000D+01
EXPONENTS  0.6633000D+03 0.1568000D+03 0.4998000D+02 0.1842000D+02 0.7240000D+01
EXPONENTS  0.2922000D+01 0.6633000D+03 0.1568000D+03 0.4998000D+02 0.1842000D+02
EXPONENTS  0.7240000D+01 0.2922000D+01 0.1568000D+03 0.4998000D+02 0.1842000D+02
EXPONENTS  0.7240000D+01 0.2922000D+01 0.3818000D+00 0.1568000D+03 0.4998000D+02
EXPONENTS  0.1842000D+02 0.7240000D+01 0.2922000D+01 0.3818000D+00 0.1568000D+03
EXPONENTS  0.4998000D+02 0.1842000D+02 0.7240000D+01 0.2922000D+01 0.3818000D+00
EXPONENTS  0.1022000D+01 0.1022000D+01 0.1022000D+01 0.1301000D+00 0.1301000D+00
EXPONENTS  0.1301000D+00 0.4190000D-01 0.4190000D-01 0.4190000D-01 0.1046000D+01
EXPONENTS  0.1046000D+01 0.1046000D+01 0.1046000D+01 0.1046000D+01 0.1046000D+01
EXPONENTS  0.3440000D+00 0.3440000D+00 0.3440000D+00 0.3440000D+00 0.3440000D+00
EXPONENTS  0.3440000D+00 0.1350000D+00 0.1350000D+00 0.1350000D+00 0.1350000D+00
EXPONENTS  0.1350000D+00 0.1350000D+00 0.7060000D+00 0.7060000D+00 0.7060000D+00
EXPONENTS  0.7060000D+00 0.7060000D+00 0.7060000D+00 0.7060000D+00 0.7060000D+00
EXPONENTS  0.7060000D+00 0.7060000D+00 0.3120000D+00 0.3120000D+00 0.3120000D+00
EXPONENTS  0.3120000D+00 0.3120000D+00 0.3120000D+00 0.3120000D+00 0.3120000D+00
EXPONENTS  0.3120000D+00 0.3120000D+00 0.1950000D+05 0.2923000D+04 0.6645000D+03
EXPONENTS  0.1875000D+03 0.6062000D+02 0.2142000D+02 0.7950000D+01 0.6645000D+03
EXPONENTS  0.1875000D+03 0.6062000D+02 0.2142000D+02 0.7950000D+01 0.8815000D+00
EXPONENTS  0.2257000D+01 0.3041000D+00 0.9158000D-01 0.4388000D+02 0.9926000D+01
EXPONENTS  0.2930000D+01 0.4388000D+02 0.9926000D+01 0.2930000D+01 0.4388000D+02
EXPONENTS  0.9926000D+01 0.2930000D+01 0.9132000D+00 0.9132000D+00 0.9132000D+00
EXPONENTS  0.2672000D+00 0.2672000D+00 0.2672000D+00 0.7361000D-01 0.7361000D-01
EXPONENTS  0.7361000D-01 0.3107000D+01 0.3107000D+01 0.3107000D+01 0.3107000D+01
EXPONENTS  0.3107000D+01 0.3107000D+01 0.8550000D+00 0.8550000D+00 0.8550000D+00
EXPONENTS  0.8550000D+00 0.8550000D+00 0.8550000D+00 0.2920000D+00 0.2920000D+00
EXPONENTS  0.2920000D+00 0.2920000D+00 0.2920000D+00 0.2920000D+00 0.1917000D+01
EXPONENTS  0.1917000D+01 0.1917000D+01 0.1917000D+01 0.1917000D+01 0.1917000D+01
EXPONENTS  0.1917000D+01 0.1917000D+01 0.1917000D+01 0.1917000D+01 0.7240000D+00
EXPONENTS  0.7240000D+00 0.7240000D+00 0.7240000D+00 0.7240000D+00 0.7240000D+00
EXPONENTS  0.7240000D+00 0.7240000D+00 0.7240000D+00 0.7240000D+00
MO    1     MO 0.0        OCC NO =    2.0000300  ORB. ENERGY =    0.000000
 -0.38215053D-07 -0.71240557D-07 -0.12040625D-06 -0.18099305D-06 -0.22231754D-06
 -0.18762816D-06 -0.70553088D-07  0.67688664D-13  0.50593083D-12  0.18907790D-11
  0.52749791D-11  0.70670176D-11 -0.83448301D-11 -0.50361399D-08  0.25316574D-07
 -0.44014908D-08  0.55905443D-04  0.52414906D-04  0.37322536D-04  0.96752913D-04
  0.90712006D-04  0.64592352D-04 -0.48280880D-07 -0.45266394D-07 -0.32232369D-07
  0.18039913D-03  0.31220536D-03 -0.17252467D-06  0.23087899D-03  0.39956653D-03
 -0.20609494D-06  0.47128557D-05  0.81557667D-05 -0.43101941D-08  0.56204305D-04
 -0.56444889D-04  0.24058337D-06  0.64761469D-04 -0.25506634D-03 -0.44130904D-03
  0.16604072D-03 -0.16599309D-03 -0.47635971D-07  0.19173845D-03  0.49302198D-04
  0.85685671D-04  0.35051535D-04 -0.35081778D-04  0.30243477D-07  0.40452201D-04
 -0.33207415D-04 -0.57393142D-04  0.46404794D-04  0.80517230D-04  0.17078539D-06
  0.46924014D-04  0.80538277D-04  0.20692249D-04 -0.18613840D-03 -0.32208997D-03
 -0.21204606D-04  0.23685774D-04 -0.13587501D-04 -0.23409487D-04 -0.48829022D-07
 -0.13259363D-04 -0.23357549D-04  0.44604563D-04  0.54021867D-04  0.93586010D-04
 -0.44458076D-04  0.51561131D-04 -0.34766265D-04 -0.62702391D-04 -0.92454639D-04
  0.31315020D-03  0.96751644D-03 -0.10332053D-04  0.28000911D-05  0.61961072D-04
  0.20505366D-04  0.40116576D-04  0.24813535D-03  0.23546028D-03  0.36961971D-04
  0.14853290D-03  0.18923210D-04 -0.95608442D-04  0.36982930D-04  0.58625512D-04
  0.14199088D-04 -0.23343847D-04  0.25793322D-03 -0.37673506D-04 -0.10564110D-04
  0.48237616D-04  0.14051799D-04  0.31069062D-04  0.27165571D-04 -0.97595302D-08
 -0.17601715D-07 -0.25953718D-07  0.75017047D-07  0.24554541D-06 -0.20019199D-08
  0.31078947D-05  0.53491178D-05  0.18506936D-08  0.40323953D-04  0.69691841D-04
  0.21819877D-07  0.36913766D-04  0.63843827D-04 -0.29848236D-07  0.13266428D-04
 -0.13301753D-04  0.35325193D-07  0.15263376D-04 -0.21424767D-04 -0.37196517D-04
  0.11993956D-04 -0.11976673D-04 -0.17282976D-07  0.13857879D-04  0.31689881D-04
  0.54881697D-04  0.34774335D-04  0.62716946D-04  0.92476100D-04 -0.31324878D-03
 -0.96777616D-03  0.10334589D-04  0.52275529D-04  0.33381756D-04 -0.20565856D-04
  0.19483556D-03  0.15857821D-03 -0.23573655D-03  0.11021895D-03  0.10622999D-03
 -0.19063447D-04  0.23880665D-05  0.56451055D-04 -0.58839121D-04 -0.12168347D-03
  0.23516677D-03  0.10860819D-03  0.23422046D-04  0.24864953D-04 -0.48286998D-04
 -0.30478598D-04  0.79758919D-05  0.40365085D-04  0.14007912D-06  0.26207309D-06
  0.45280417D-06  0.73404876D-06  0.11147235D-05  0.15493608D-05  0.18420712D-05
  0.16409811D-05  0.81494589D-06  0.13119939D-06  0.13842311D-08  0.65501028D-09
  0.21850046D-07  0.76143037D-07  0.27420341D-06  0.60444728D-06  0.85086669D-06
 -0.40589114D-07 -0.11135068D-05 -0.65840961D-06  0.16015110D-10  0.19398209D-09
  0.40452919D-09  0.11601193D-08  0.60243380D-10 -0.50029970D-08 -0.12926784D-07
  0.10532135D-07 -0.39525648D-07 -0.24407884D-08  0.53976092D-09  0.58089328D+01
  0.76517234D+01  0.84410486D+01  0.70109518D+01  0.37230100D+01  0.96055603D+00
  0.10053176D+02  0.13242384D+02  0.14608423D+02  0.12133439D+02  0.64431927D+01
  0.16623774D+01 -0.54079250D-02 -0.71235023D-02 -0.78583382D-02 -0.65269651D-02
 -0.34659996D-02 -0.89424601D-03 -0.22996557D-03  0.22231591D-02  0.31348864D-02
  0.44837169D-02 -0.22704911D-04 -0.41119913D-02 -0.39798771D-03  0.38474892D-02
  0.54253613D-02  0.77597019D-02 -0.39294038D-04 -0.71163785D-02  0.21436050D-06
 -0.20722994D-05 -0.29221585D-05 -0.41794596D-05  0.21164195D-07  0.38329587D-05
  0.38346756D-01  0.66364456D-01 -0.35704216D-04 -0.32190450D-03 -0.55710130D-03
  0.30169197D-06 -0.28974757D-04 -0.50144857D-04  0.26854946D-07  0.10003269D-04
 -0.10461724D-04  0.45845478D-06  0.11286770D-04 -0.49233208D-03 -0.85202616D-03
 -0.37638848D-05  0.39314723D-05 -0.16758749D-06 -0.42507399D-05  0.17856075D-03
  0.30901490D-03  0.10246824D-05 -0.10529384D-05  0.28256026D-07  0.11662739D-05
 -0.30706083D-04 -0.53138913D-04  0.10886281D-05  0.20914404D-05  0.47055799D-08
  0.16234634D-05  0.21233634D-05  0.30031699D-04 -0.48893478D-05 -0.83976847D-05
 -0.30045816D-04  0.34668852D-04  0.74060143D-05  0.12720383D-04  0.27526442D-07
  0.71716804D-05  0.12714054D-04 -0.59873910D-05 -0.29389723D-04 -0.50875202D-04
  0.59048116D-05 -0.69440318D-05 -0.12665535D-07 -0.23608579D-07 -0.40021801D-07
 -0.60598420D-07 -0.75761372D-07 -0.65168365D-07 -0.24993471D-07  0.25856096D-10
  0.34228630D-09  0.12432461D-08  0.36880662D-08  0.42497513D-08 -0.51619560D-08
 -0.53372180D-09  0.82644157D-08  0.87897119D-08 -0.14554725D-03 -0.14234203D-03
 -0.94051398D-04 -0.25189114D-03 -0.24634403D-03 -0.16276992D-03  0.14269582D-06
  0.13955339D-06  0.92208828D-07 -0.44283626D-05 -0.76706547D-05 -0.60057461D-09
 -0.33408730D-04 -0.57813731D-04  0.41759640D-07 -0.98129759D-05 -0.16982550D-04
  0.10358823D-07  0.61194579D-04 -0.61252671D-04  0.58092368D-07  0.70617305D-04
 -0.65637724D-04 -0.11345803D-03 -0.30708373D-04  0.30754998D-04 -0.46624879D-07
 -0.35427125D-04  0.50659004D-04  0.87602656D-04  0.15574439D-04 -0.15611683D-04
  0.37244004D-07  0.17962627D-04 -0.36991863D-04 -0.63981054D-04 -0.36360868D-04
 -0.61825631D-04 -0.13933725D-06 -0.34132952D-04 -0.62001431D-04 -0.16281993D-03
  0.14321556D-03  0.24747833D-03  0.16323794D-03 -0.18783527D-03  0.12885499D-04
  0.21968913D-04  0.50080376D-07  0.12221698D-04  0.22024685D-04  0.51712028D-04
 -0.50878195D-04 -0.87931425D-04 -0.51862269D-04  0.59651866D-04
MO    2     MO 0.0        OCC NO =    2.0000300  ORB. ENERGY =    0.000000
 -0.55425990D-04 -0.10332521D-03 -0.17463368D-03 -0.26250700D-03 -0.32244283D-03
 -0.27213037D-03 -0.10232813D-03  0.16267363D-07  0.12158846D-06  0.45440383D-06
  0.12677159D-05  0.16983898D-05 -0.20054817D-05 -0.84663441D-05  0.32181047D-04
  0.10987310D-05  0.93341222D-04  0.87513329D-04  0.62314704D-04 -0.53938163D-04
 -0.50570457D-04 -0.36009178D-04 -0.61894642D-05 -0.58030161D-05 -0.41320932D-05
  0.31071067D-03 -0.17953523D-03 -0.92974229D-06  0.39810165D-03 -0.23002651D-03
  0.68203334D-05  0.81747095D-05 -0.47232120D-05  0.37501221D-07 -0.32507589D-04
  0.33206272D-04 -0.69868294D-06  0.11335704D-03 -0.44246419D-03  0.25559440D-03
 -0.94625557D-04  0.96502649D-04 -0.18770920D-05  0.33115438D-03  0.78583272D-04
 -0.45618191D-04 -0.20200375D-04  0.20232162D-04 -0.31786370D-07  0.69972858D-04
 -0.58478905D-04  0.33745879D-04  0.80174735D-04 -0.46523480D-04 -0.14944329D-05
  0.80198859D-04 -0.45718489D-04 -0.92803433D-05 -0.32072306D-03  0.18528893D-03
  0.13763642D-04  0.39051053D-04 -0.23031861D-04  0.12297024D-04  0.63547563D-06
 -0.22984740D-04  0.16364335D-04 -0.25463703D-04  0.92080323D-04 -0.53255407D-04
  0.23557276D-04  0.85154947D-04  0.20063057D-04  0.36184550D-04  0.53354097D-04
 -0.19299366D-03 -0.56249904D-03  0.58317003D-05  0.43610973D-05 -0.36306765D-04
 -0.12340935D-04  0.69963638D-04 -0.14526975D-03 -0.13400060D-03  0.63794910D-04
 -0.86454368D-04 -0.10876240D-04  0.55610473D-04 -0.21203257D-04 -0.34407216D-04
  0.25260469D-04 -0.42145903D-04 -0.14815960D-03  0.21793402D-04  0.62012127D-05
 -0.27994615D-04  0.24290694D-04  0.52831593D-04 -0.15206920D-04 -0.41168154D-04
 -0.74248460D-04 -0.10947931D-03  0.34722041D-03  0.11107035D-02 -0.11822116D-04
  0.58948980D-04 -0.34034182D-04  0.21761505D-04  0.24546924D-03 -0.14164158D-03
  0.26389915D-03  0.14782793D-03 -0.85383249D-04  0.21289806D-04  0.49349547D-05
 -0.71322308D-04  0.66387353D-04 -0.13189942D-03  0.25655334D-03 -0.14796519D-03
 -0.19702874D-04 -0.35294481D-04  0.54997355D-04 -0.27005801D-04  0.26565738D-04
 -0.15252681D-04  0.20047576D-04  0.36156629D-04  0.53312928D-04 -0.19285700D-03
 -0.56206627D-03  0.58262859D-05  0.33598439D-04  0.14345200D-04 -0.12360970D-04
  0.16064860D-03  0.11818613D-04 -0.13397828D-03  0.10671131D-03 -0.12105569D-04
 -0.10906419D-04 -0.12905046D-04  0.47426121D-04 -0.34521075D-04 -0.53669463D-04
  0.10717850D-03  0.11039784D-03 -0.41126027D-06  0.28372072D-04 -0.27960811D-04
 -0.13148366D-05  0.39547659D-04 -0.38268696D-04  0.58091317D-05  0.10868265D-04
  0.18777952D-04  0.30441267D-04  0.46227985D-04  0.64252549D-04  0.76391358D-04
  0.68052076D-04  0.33796100D-04  0.54408862D-05  0.57404563D-07  0.24002546D-07
  0.80068476D-06  0.27902261D-05  0.10048056D-04  0.22149689D-04  0.31179613D-04
 -0.14873692D-05 -0.40803938D-04 -0.24127113D-04  0.42585976D-08  0.51582016D-07
  0.10756886D-06  0.30848876D-06  0.16019391D-07 -0.13303531D-05 -0.34373770D-05
  0.28006130D-05 -0.64703439D-06 -0.60121399D-05  0.17820347D-06  0.10053140D+02
  0.13242338D+02  0.14608371D+02  0.12133396D+02  0.64431700D+01  0.16623715D+01
 -0.58089258D+01 -0.76517142D+01 -0.84410385D+01 -0.70109434D+01 -0.37230055D+01
 -0.96055487D+00 -0.25026419D-01 -0.32965648D-01 -0.36366270D-01 -0.30205035D-01
 -0.16039711D-01 -0.41383294D-02 -0.39787129D-03  0.38463636D-02  0.54237742D-02
  0.77574319D-02 -0.39282543D-04 -0.71142967D-02  0.22989888D-03 -0.22225144D-02
 -0.31339774D-02 -0.44824167D-02  0.22698327D-04  0.41107988D-02  0.12195166D-05
 -0.11789501D-04 -0.16624428D-04 -0.23777329D-04  0.12040505D-06  0.21806054D-04
  0.66364180D-01 -0.38346687D-01 -0.17123764D-03 -0.55713431D-03  0.32192565D-03
  0.33101971D-05 -0.50144489D-04  0.28974521D-04  0.35115787D-07 -0.84826755D-05
  0.49728365D-05  0.35098390D-05  0.22395817D-04 -0.84961116D-03  0.49091332D-03
  0.31498268D-05 -0.11876615D-05 -0.19621654D-05 -0.71824875D-05  0.30766942D-03
 -0.17777557D-03 -0.52322214D-06  0.69952608D-06 -0.17630394D-06  0.20608475D-05
 -0.52913910D-04  0.30573141D-04  0.17962914D-05 -0.85241386D-06 -0.99646821D-07
  0.18276984D-05 -0.15761366D-05 -0.16814684D-04 -0.72165725D-05  0.41333781D-05
  0.17113625D-04  0.58750423D-04  0.12676866D-04 -0.73807100D-05  0.28230064D-06
  0.12670521D-04 -0.71619604D-05  0.29924762D-05 -0.50701118D-04  0.29304091D-04
 -0.38393781D-05 -0.11970350D-04  0.30105763D-05  0.56117194D-05  0.95131145D-05
  0.14404142D-04  0.18008350D-04  0.15490410D-04  0.59409057D-05  0.37305099D-08
  0.49384965D-07  0.17937518D-06  0.53211309D-06  0.61315286D-06 -0.74476548D-06
  0.20042828D-06  0.12683820D-05 -0.10106953D-05 -0.25308677D-03 -0.24751333D-03
 -0.16354252D-03  0.14623060D-03  0.14301034D-03  0.94492975D-04 -0.15980713D-04
 -0.15628788D-04 -0.10326601D-04 -0.87012127D-05  0.50301469D-05 -0.27705143D-05
 -0.57178434D-04  0.33036016D-04 -0.21311528D-06 -0.16903477D-04  0.97669300D-05
 -0.25215414D-06 -0.35799497D-04  0.36563188D-04 -0.76369127D-06  0.12522104D-03
 -0.11306673D-03  0.65249690D-04  0.17910791D-04 -0.18360817D-04  0.45002607D-06
 -0.62732336D-04  0.87415279D-04 -0.50468304D-04 -0.92623853D-05  0.90497038D-05
  0.21268149D-06  0.31648898D-04 -0.63548229D-04  0.36697229D-04 -0.61934115D-04
  0.35395210D-04 -0.81452569D-06 -0.62121894D-04  0.36855701D-04  0.95362127D-04
  0.24792424D-03 -0.14304133D-03 -0.92918550D-04 -0.32544248D-03  0.21978965D-04
 -0.12573642D-04  0.39725478D-06  0.22038464D-04 -0.13044913D-04 -0.30497832D-04
 -0.87975360D-04  0.50765838D-04  0.29306068D-04  0.10334489D-03
MO    3     MO 0.0        OCC NO =    2.0000210  ORB. ENERGY =    0.000000
 -0.14485209D-01 -0.27003347D-01 -0.45639336D-01 -0.68604434D-01 -0.84268259D-01
 -0.71119438D-01 -0.26742766D-01 -0.38082732D-05 -0.28464482D-04 -0.10637827D-03
 -0.29677881D-03 -0.39760178D-03  0.46949357D-03 -0.87544278D-03 -0.19261082D-02
 -0.81512634D-04 -0.19321856D-05 -0.18115468D-05 -0.12899293D-05  0.17396831D-05
  0.16310635D-05  0.11614144D-05  0.11621762D-02  0.10896141D-02  0.77587014D-03
 -0.90882846D-06  0.84885622D-06  0.60602344D-03 -0.28090596D-05  0.14131145D-05
 -0.37571829D-03 -0.42616044D-07  0.27176718D-07  0.46975002D-05 -0.10563665D-03
 -0.10508893D-03  0.21072558D-03  0.94891587D-06 -0.12163310D-05  0.10393562D-05
 -0.23293947D-04 -0.23981173D-04  0.47275120D-04 -0.11972254D-05 -0.25862085D-05
  0.15739367D-05  0.11545544D-04  0.11213332D-04 -0.22758876D-04 -0.57816731D-06
 -0.47168903D-06  0.23533966D-06  0.48914533D-07  0.35980768D-04  0.69014103D-05
  0.10351858D-06 -0.10811150D-03 -0.97508299D-05 -0.25026218D-06  0.16919049D-06
 -0.10953401D-04 -0.18833056D-05 -0.13928371D-06  0.51663792D-04 -0.85293808D-04
 -0.60180967D-07 -0.15443905D-03  0.12827462D-03  0.47803210D-06 -0.55232866D-06
  0.12760680D-03 -0.86646519D-06 -0.49522534D-05 -0.89315929D-05 -0.13169628D-04
  0.75037306D-03  0.23858869D-03  0.51366868D-05 -0.24637250D-06  0.95518914D-04
  0.28263360D-04 -0.12776179D-06  0.19888125D-03 -0.35785541D-05 -0.59016033D-06
  0.44371513D-04  0.38835750D-04 -0.73601576D-04  0.54189367D-04  0.19412209D-04
 -0.34844609D-06 -0.56773514D-06  0.76008676D-04 -0.95347392D-05 -0.12014797D-04
  0.21549536D-04 -0.21553265D-06  0.10016296D-06 -0.34376780D-04 -0.51792837D-05
 -0.93410514D-05 -0.13773375D-04  0.74668411D-03  0.22722075D-03  0.48434243D-05
  0.81058886D-04 -0.46798980D-04  0.25666287D-04  0.17293905D-03 -0.99880564D-04
  0.45325424D-06  0.37114043D-04 -0.21415415D-04  0.38028453D-04  0.23414741D-04
 -0.40063689D-04  0.16648949D-04 -0.10994566D-03  0.66472844D-04 -0.38297034D-04
 -0.11353866D-04 -0.10347227D-04  0.21701093D-04  0.17110168D-05 -0.29749857D-04
  0.17215669D-04 -0.49520099D-05 -0.89311538D-05 -0.13168981D-04  0.75038051D-03
  0.23861199D-03  0.51368356D-05 -0.82846355D-04 -0.47502769D-04  0.28341374D-04
 -0.17232721D-03 -0.99293158D-04 -0.34240968D-05 -0.38711772D-04 -0.21636408D-04
  0.38872392D-04  0.22388888D-04 -0.41863848D-04  0.19474960D-04  0.11039467D-03
 -0.66207169D-04 -0.37448703D-04 -0.11288365D-04 -0.10233442D-04  0.21521807D-04
 -0.22222776D-05  0.29858877D-04  0.17147288D-04 -0.15469663D+00 -0.28942089D+00
 -0.50005510D+00 -0.81064807D+00 -0.12310469D+01 -0.17110394D+01 -0.20342947D+01
 -0.18122204D+01 -0.89998697D+00 -0.14489029D+00 -0.15286781D-02 -0.72327990D-03
 -0.24127407D-01 -0.84079182D-01 -0.30278275D+00 -0.66744689D+00 -0.93954980D+00
  0.44819588D-01  0.12295641D+01  0.72703354D+00 -0.15539068D-04 -0.18821606D-03
 -0.39250475D-03 -0.11256353D-02 -0.58452673D-04  0.48542852D-02  0.12542541D-01
 -0.10219072D-01  0.46627297D-01 -0.38865687D-03 -0.13196143D-03  0.12646344D-01
  0.16658193D-01  0.18376595D-01  0.15263201D-01  0.81051831D-02  0.20911796D-02
 -0.41078655D-02 -0.54110199D-02 -0.59692019D-02 -0.49578896D-02 -0.26327769D-02
 -0.67927021D-03  0.59312599D+01  0.78128568D+01  0.86188041D+01  0.71585916D+01
  0.38014108D+01  0.98078385D+00 -0.38794888D-06  0.37504402D-05  0.52885121D-05
  0.75639713D-05 -0.38302886D-07 -0.69368751D-05  0.11075177D-06 -0.10706769D-05
 -0.15097662D-05 -0.21593650D-05  0.10934720D-07  0.19803414D-05 -0.21030662D-03
  0.20331090D-02  0.28668960D-02  0.41004196D-02 -0.20763948D-04 -0.37604715D-02
  0.87029037D-04 -0.27860411D-04  0.41581071D-01 -0.69090322D-06  0.13976669D-06
 -0.48246354D-03 -0.65537358D-07  0.32492662D-07 -0.98117569D-05 -0.78713081D-05
 -0.82258623D-05  0.16097170D-04 -0.61267816D-06  0.16562368D-05 -0.92919963D-06
 -0.11094492D-03 -0.11079935D-03  0.22174427D-03  0.25218145D-06 -0.95858710D-08
  0.36212832D-06 -0.14243868D-04 -0.14312190D-04  0.28556058D-04 -0.11830567D-06
  0.19229835D-06 -0.65201509D-07 -0.15548868D-06 -0.69831705D-05  0.55409585D-05
 -0.16673152D-06  0.21297567D-04 -0.81443817D-05  0.63319758D-06 -0.34805552D-06
 -0.84784938D-05 -0.61776951D-06  0.64363747D-07  0.19889552D-05 -0.33631953D-04
  0.67535194D-07 -0.60093870D-05  0.50404639D-04 -0.26062643D-06  0.42521576D-07
  0.50491220D-04  0.16106812D-06 -0.88200250D-03 -0.16440542D-02 -0.27870381D-02
 -0.42199526D-02 -0.52758702D-02 -0.45381945D-02 -0.17404952D-02 -0.68493805D-06
 -0.90672973D-05 -0.32934074D-04 -0.97698309D-04 -0.11257757D-03  0.13674222D-03
 -0.96101768D-04 -0.15848706D-03  0.12583086D-04  0.16466515D-05  0.16103892D-05
  0.10640523D-05  0.12127487D-05  0.11860417D-05  0.78366790D-06  0.38933081D-02
  0.38075703D-02  0.25158227D-02 -0.44101592D-08  0.49292057D-06  0.87779383D-03
  0.16766273D-06 -0.86281271D-07  0.21660526D-04 -0.77710893D-07  0.50146711D-07
  0.93313482D-05 -0.35483678D-04 -0.35029096D-04  0.70512773D-04  0.78544106D-06
  0.40197205D-06 -0.11561902D-06  0.20995020D-04  0.20740929D-04 -0.41735949D-04
 -0.43955799D-06 -0.31216572D-06  0.11189223D-06  0.17985458D-04  0.18137855D-04
 -0.36123313D-04  0.26435294D-06  0.16254491D-06 -0.15582774D-06  0.22682295D-06
 -0.34521054D-05  0.45958631D-04  0.21976907D-06  0.96709214D-05 -0.67937794D-04
 -0.90023793D-06  0.68539496D-06 -0.69938098D-04 -0.35006593D-05 -0.58550820D-07
  0.10869663D-05 -0.25165264D-04 -0.56336060D-07 -0.30386826D-05  0.37434568D-04
  0.23198852D-06 -0.22221625D-06  0.38061225D-04  0.10966826D-05
MO    4     MO 0.0        OCC NO =    2.0000123  ORB. ENERGY =    0.000000
  0.26516107D-01  0.49431365D-01  0.83545742D-01  0.12558483D+00  0.15425847D+00
  0.13018871D+00  0.48954355D-01 -0.14857888D-05 -0.11105351D-04 -0.41503231D-04
 -0.11578755D-03 -0.15512340D-03  0.18317181D-03  0.26195090D-02 -0.35981481D-02
 -0.40456852D-04 -0.10917730D-04 -0.10236066D-04 -0.72886890D-05  0.82819411D-05
  0.77648462D-05  0.55290331D-05  0.36691466D-02  0.34400582D-02  0.24495264D-02
  0.87696828D-06  0.19131348D-06  0.13074297D-02 -0.49270854D-05  0.26142110D-05
 -0.41254226D-03 -0.10978943D-06  0.65339752D-07  0.37545741D-05 -0.32224158D-03
 -0.32001339D-03  0.64225497D-03  0.38645223D-05  0.30012070D-06  0.86073478D-06
  0.11862323D-04  0.11238181D-04 -0.23100503D-04 -0.10944586D-05 -0.76352695D-05
  0.43741141D-05 -0.17887101D-04 -0.18458011D-04  0.36345112D-04 -0.99131818D-06
 -0.82341720D-06  0.53524573D-06  0.34447899D-06 -0.42289873D-04  0.21400553D-04
  0.27751519D-06  0.12603908D-03 -0.31137037D-04 -0.13109522D-05  0.83053778D-06
 -0.33064621D-04 -0.35830031D-05 -0.27469785D-06  0.81127642D-04 -0.16392629D-03
 -0.15145497D-06 -0.24229098D-03  0.24687125D-03  0.97554852D-06 -0.10919450D-05
  0.24490763D-03 -0.29487696D-05 -0.90664497D-04 -0.16351715D-03 -0.24110595D-03
  0.10144625D-02  0.69036373D-03  0.44192293D-05 -0.81591467D-06 -0.58137217D-04
  0.33348700D-04 -0.70805596D-07  0.30319588D-03 -0.42435006D-04 -0.93258627D-06
  0.11179083D-03  0.76346776D-04 -0.14237386D-03  0.24758275D-04  0.11761558D-03
 -0.13237466D-05 -0.79260871D-06  0.14333407D-03 -0.14136482D-04 -0.20963296D-04
  0.35099778D-04 -0.27188776D-06 -0.25244776D-06 -0.62438003D-04 -0.90310725D-04
 -0.16287911D-03 -0.24016516D-03  0.10158034D-02  0.67005097D-03  0.37493300D-05
 -0.52461013D-04  0.30312406D-04  0.25166090D-04  0.26794096D-03 -0.15477093D-03
 -0.43135171D-04  0.94560876D-04 -0.54571908D-04  0.75179870D-04 -0.12341737D-04
 -0.96139594D-04  0.10848133D-03 -0.14510558D-03  0.11662558D-03 -0.67091167D-04
 -0.18656910D-04 -0.15935547D-04  0.34592457D-04  0.46555222D-05 -0.54997318D-04
  0.31815048D-04 -0.90664317D-04 -0.16351683D-03 -0.24110547D-03  0.10144769D-02
  0.69038622D-03  0.44200803D-05  0.49958798D-04  0.29787996D-04  0.33306525D-04
 -0.26266967D-03 -0.15150911D-03 -0.42193574D-04 -0.97261016D-04 -0.55003870D-04
  0.76438221D-04 -0.16475234D-04 -0.10126205D-03  0.11773728D-03  0.14390587D-03
 -0.12453754D-03 -0.70665407D-04 -0.19115435D-04 -0.15933382D-04  0.35048817D-04
 -0.59880501D-05  0.54009499D-04  0.31508463D-04  0.91169473D-01  0.17056835D+00
  0.29470428D+00  0.47775027D+00  0.72550963D+00  0.10083901D+01  0.11988986D+01
  0.10680205D+01  0.53040158D+00  0.85390167D-01  0.90091670D-03  0.42684892D-03
  0.14238965D-01  0.49619943D-01  0.17868945D+00  0.39389866D+00  0.55448218D+00
 -0.26450607D-01 -0.72563622D+00 -0.42906415D+00  0.62620669D-05  0.75848922D-04
  0.15817493D-03  0.45361816D-03  0.23555760D-04 -0.19562215D-02 -0.50545007D-02
  0.41181693D-02 -0.28502623D-01  0.14121767D-02 -0.18273394D-03  0.20833362D-01
  0.27442411D-01  0.30273275D-01  0.25144325D-01  0.13352334D-01  0.34449721D-02
 -0.67061855D-02 -0.88336151D-02 -0.97448603D-02 -0.80938695D-02 -0.42980693D-02
 -0.11089243D-02  0.99211040D+01  0.13068415D+02  0.14416507D+02  0.11974038D+02
  0.63585465D+01  0.16405382D+01 -0.52455403D-06  0.50710508D-05  0.71507110D-05
  0.10227408D-04 -0.51790156D-07 -0.93794981D-05  0.12222351D-06 -0.11815783D-05
 -0.16661487D-05 -0.23830334D-05  0.12067345D-07  0.21854664D-05 -0.33676487D-03
  0.32556261D-02  0.45907727D-02  0.65660194D-02 -0.33249398D-04 -0.60216590D-02
  0.14793829D-03 -0.46461161D-04  0.72612114D-01 -0.90046948D-06  0.35562239D-06
 -0.30451059D-03 -0.97813530D-07  0.54283278D-07 -0.38862634D-05  0.45544431D-03
  0.45480732D-03 -0.91025163D-03 -0.11045227D-05 -0.10815106D-05 -0.83825721D-06
 -0.31005099D-03 -0.30969089D-03  0.61974188D-03  0.62436233D-06  0.35249913D-06
  0.79311078D-06  0.44461450D-05  0.43169529D-05 -0.87630979D-05 -0.22364004D-06
  0.37601919D-06 -0.23065701D-06 -0.35878675D-06 -0.14029386D-04 -0.46838196D-04
 -0.38142958D-06  0.43080385D-04  0.70559328D-04  0.14577898D-05 -0.99222726D-06
  0.69955260D-04 -0.11227796D-05  0.11753386D-06  0.40707240D-05 -0.62730908D-04
  0.12390952D-06 -0.12285388D-04  0.94068153D-04 -0.47651110D-06  0.73216340D-07
  0.94124570D-04  0.11948957D-06 -0.63828543D-02 -0.11897651D-01 -0.20169170D-01