 clch3f_ts-wavefunction
GAUSSIAN            211 MOL ORBITALS    339 PRIMITIVES        6 NUCLEI
  C    1    (CENTRE  1)   0.00033070  0.00005480 -0.94053370  CHARGE =  6.0
  H    2    (CENTRE  2)   0.00003590 -1.98906904 -1.15410488  CHARGE =  1.0
  H    3    (CENTRE  3)  -1.72213010  0.99468570 -1.17398291  CHARGE =  1.0
  H    4    (CENTRE  4)   1.72295780  0.99424539 -1.17459707  CHARGE =  1.0
  Cl   5    (CENTRE  5)   0.00104880  0.00181792  3.10806659  CHARGE = 17.0
  F    6    (CENTRE  6)  -0.00035149 -0.00174044 -4.90094425  CHARGE =  9.0
CENTRE ASSIGNMENTS    1  1  1  1  1  1  1  1  1  1  1  1  1  1  1  1  1  1  1  1
CENTRE ASSIGNMENTS    1  1  1  1  1  1  1  1  1  1  1  1  1  1  1  1  1  1  1  1
CENTRE ASSIGNMENTS    1  1  1  1  1  1  1  1  1  1  1  1  1  1  1  1  1  1  1  1
CENTRE ASSIGNMENTS    1  1  1  1  1  1  1  1  1  1  1  1  2  2  2  2  2  2  2  2
CENTRE ASSIGNMENTS    2  2  2  2  2  2  2  2  2  2  2  2  2  2  2  2  2  2  2  3
CENTRE ASSIGNMENTS    3  3  3  3  3  3  3  3  3  3  3  3  3  3  3  3  3  3  3  3
CENTRE ASSIGNMENTS    3  3  3  3  3  3  4  4  4  4  4  4  4  4  4  4  4  4  4  4
CENTRE ASSIGNMENTS    4  4  4  4  4  4  4  4  4  4  4  4  4  5  5  5  5  5  5  5
CENTRE ASSIGNMENTS    5  5  5  5  5  5  5  5  5  5  5  5  5  5  5  5  5  5  5  5
CENTRE ASSIGNMENTS    5  5  5  5  5  5  5  5  5  5  5  5  5  5  5  5  5  5  5  5
CENTRE ASSIGNMENTS    5  5  5  5  5  5  5  5  5  5  5  5  5  5  5  5  5  5  5  5
CENTRE ASSIGNMENTS    5  5  5  5  5  5  5  5  5  5  5  5  5  5  5  5  5  5  5  5
CENTRE ASSIGNMENTS    5  5  5  5  5  5  5  5  5  5  5  5  5  5  5  5  5  5  5  5
CENTRE ASSIGNMENTS    5  5  5  5  5  5  5  6  6  6  6  6  6  6  6  6  6  6  6  6
CENTRE ASSIGNMENTS    6  6  6  6  6  6  6  6  6  6  6  6  6  6  6  6  6  6  6  6
CENTRE ASSIGNMENTS    6  6  6  6  6  6  6  6  6  6  6  6  6  6  6  6  6  6  6  6
CENTRE ASSIGNMENTS    6  6  6  6  6  6  6  6  6  6  6  6  6  6  6  6  6  6  6
TYPE ASSIGNMENTS      1  1  1  1  1  1  1  1  1  1  1  1  1  1  1  1  2  2  2  3
TYPE ASSIGNMENTS      3  3  4  4  4  2  3  4  2  3  4  2  3  4  5  6  7  8  9 10
TYPE ASSIGNMENTS      5  6  7  8  9 10  5  6  7  8  9 10 11 12 13 17 14 15 18 19
TYPE ASSIGNMENTS     16 20 11 12 13 17 14 15 18 19 16 20  1  1  1  1  1  1  2  3
TYPE ASSIGNMENTS      4  2  3  4  2  3  4  5  6  7  8  9 10  5  6  7  8  9 10  1
TYPE ASSIGNMENTS      1  1  1  1  1  2  3  4  2  3  4  2  3  4  5  6  7  8  9 10
TYPE ASSIGNMENTS      5  6  7  8  9 10  1  1  1  1  1  1  2  3  4  2  3  4  2  3
TYPE ASSIGNMENTS      4  5  6  7  8  9 10  5  6  7  8  9 10  1  1  1  1  1  1  1
TYPE ASSIGNMENTS      1  1  1  1  1  1  1  1  1  1  1  1  1  1  1  1  1  1  1  1
TYPE ASSIGNMENTS      1  1  1  1  2  2  2  2  2  2  3  3  3  3  3  3  4  4  4  4
TYPE ASSIGNMENTS      4  4  2  2  2  2  2  2  3  3  3  3  3  3  4  4  4  4  4  4
TYPE ASSIGNMENTS      2  3  4  2  3  4  2  3  4  5  6  7  8  9 10  5  6  7  8  9
TYPE ASSIGNMENTS     10  5  6  7  8  9 10 11 12 13 17 14 15 18 19 16 20 11 12 13
TYPE ASSIGNMENTS     17 14 15 18 19 16 20  1  1  1  1  1  1  1  1  1  1  1  1  1
TYPE ASSIGNMENTS      1  1  1  2  2  2  3  3  3  4  4  4  2  3  4  2  3  4  2  3
TYPE ASSIGNMENTS      4  5  6  7  8  9 10  5  6  7  8  9 10  5  6  7  8  9 10 11
TYPE ASSIGNMENTS     12 13 17 14 15 18 19 16 20 11 12 13 17 14 15 18 19 16 20
EXPONENTS  0.8236000D+04 0.1235000D+04 0.2808000D+03 0.7927000D+02 0.2559000D+02
EXPONENTS  0.8997000D+01 0.3319000D+01 0.2808000D+03 0.7927000D+02 0.2559000D+02
EXPONENTS  0.8997000D+01 0.3319000D+01 0.3643000D+00 0.9059000D+00 0.1285000D+00
EXPONENTS  0.4402000D-01 0.1871000D+02 0.4133000D+01 0.1200000D+01 0.1871000D+02
EXPONENTS  0.4133000D+01 0.1200000D+01 0.1871000D+02 0.4133000D+01 0.1200000D+01
EXPONENTS  0.3827000D+00 0.3827000D+00 0.3827000D+00 0.1209000D+00 0.1209000D+00
EXPONENTS  0.1209000D+00 0.3569000D-01 0.3569000D-01 0.3569000D-01 0.1097000D+01
EXPONENTS  0.1097000D+01 0.1097000D+01 0.1097000D+01 0.1097000D+01 0.1097000D+01
EXPONENTS  0.3180000D+00 0.3180000D+00 0.3180000D+00 0.3180000D+00 0.3180000D+00
EXPONENTS  0.3180000D+00 0.1000000D+00 0.1000000D+00 0.1000000D+00 0.1000000D+00
EXPONENTS  0.1000000D+00 0.1000000D+00 0.7610000D+00 0.7610000D+00 0.7610000D+00
EXPONENTS  0.7610000D+00 0.7610000D+00 0.7610000D+00 0.7610000D+00 0.7610000D+00
EXPONENTS  0.7610000D+00 0.7610000D+00 0.2680000D+00 0.2680000D+00 0.2680000D+00
EXPONENTS  0.2680000D+00 0.2680000D+00 0.2680000D+00 0.2680000D+00 0.2680000D+00
EXPONENTS  0.2680000D+00 0.2680000D+00 0.3387000D+02 0.5095000D+01 0.1159000D+01
EXPONENTS  0.3258000D+00 0.1027000D+00 0.2526000D-01 0.1407000D+01 0.1407000D+01
EXPONENTS  0.1407000D+01 0.3880000D+00 0.3880000D+00 0.3880000D+00 0.1020000D+00
EXPONENTS  0.1020000D+00 0.1020000D+00 0.1057000D+01 0.1057000D+01 0.1057000D+01
EXPONENTS  0.1057000D+01 0.1057000D+01 0.1057000D+01 0.2470000D+00 0.2470000D+00
EXPONENTS  0.2470000D+00 0.2470000D+00 0.2470000D+00 0.2470000D+00 0.3387000D+02
EXPONENTS  0.5095000D+01 0.1159000D+01 0.3258000D+00 0.1027000D+00 0.2526000D-01
EXPONENTS  0.1407000D+01 0.1407000D+01 0.1407000D+01 0.3880000D+00 0.3880000D+00
EXPONENTS  0.3880000D+00 0.1020000D+00 0.1020000D+00 0.1020000D+00 0.1057000D+01
EXPONENTS  0.1057000D+01 0.1057000D+01 0.1057000D+01 0.1057000D+01 0.1057000D+01
EXPONENTS  0.2470000D+00 0.2470000D+00 0.2470000D+00 0.2470000D+00 0.2470000D+00
EXPONENTS  0.2470000D+00 0.3387000D+02 0.5095000D+01 0.1159000D+01 0.3258000D+00
EXPONENTS  0.1027000D+00 0.2526000D-01 0.1407000D+01 0.1407000D+01 0.1407000D+01
EXPONENTS  0.3880000D+00 0.3880000D+00 0.3880000D+00 0.1020000D+00 0.1020000D+00
EXPONENTS  0.1020000D+00 0.1057000D+01 0.1057000D+01 0.1057000D+01 0.1057000D+01
EXPONENTS  0.1057000D+01 0.1057000D+01 0.2470000D+00 0.2470000D+00 0.2470000D+00
EXPONENTS  0.2470000D+00 0.2470000D+00 0.2470000D+00 0.4561000D+06 0.6833000D+05
EXPONENTS  0.1555000D+05 0.4405000D+04 0.1439000D+04 0.5204000D+03 0.2031000D+03
EXPONENTS  0.8396000D+02 0.3620000D+02 0.1583000D+02 0.6334000D+01 0.4405000D+04
EXPONENTS  0.1439000D+04 0.5204000D+03 0.2031000D+03 0.8396000D+02 0.3620000D+02
EXPONENTS  0.1583000D+02 0.6334000D+01 0.2694000D+01 0.1439000D+04 0.2031000D+03
EXPONENTS  0.8396000D+02 0.3620000D+02 0.1583000D+02 0.6334000D+01 0.2694000D+01
EXPONENTS  0.4313000D+00 0.9768000D+00 0.1625000D+00 0.5910000D-01 0.6633000D+03
EXPONENTS  0.1568000D+03 0.4998000D+02 0.1842000D+02 0.7240000D+01 0.2922000D+01
EXPONENTS  0.6633000D+03 0.1568000D+03 0.4998000D+02 0.1842000D+02 0.7240000D+01
EXPONENTS  0.2922000D+01 0.6633000D+03 0.1568000D+03 0.4998000D+02 0.1842000D+02
EXPONENTS  0.7240000D+01 0.2922000D+01 0.1568000D+03 0.4998000D+02 0.1842000D+02
EXPONENTS  0.7240000D+01 0.2922000D+01 0.3818000D+00 0.1568000D+03 0.4998000D+02
EXPONENTS  0.1842000D+02 0.7240000D+01 0.2922000D+01 0.3818000D+00 0.1568000D+03
EXPONENTS  0.4998000D+02 0.1842000D+02 0.7240000D+01 0.2922000D+01 0.3818000D+00
EXPONENTS  0.1022000D+01 0.1022000D+01 0.1022000D+01 0.1301000D+00 0.1301000D+00
EXPONENTS  0.1301000D+00 0.4190000D-01 0.4190000D-01 0.4190000D-01 0.1046000D+01
EXPONENTS  0.1046000D+01 0.1046000D+01 0.1046000D+01 0.1046000D+01 0.1046000D+01
EXPONENTS  0.3440000D+00 0.3440000D+00 0.3440000D+00 0.3440000D+00 0.3440000D+00
EXPONENTS  0.3440000D+00 0.1350000D+00 0.1350000D+00 0.1350000D+00 0.1350000D+00
EXPONENTS  0.1350000D+00 0.1350000D+00 0.7060000D+00 0.7060000D+00 0.7060000D+00
EXPONENTS  0.7060000D+00 0.7060000D+00 0.7060000D+00 0.7060000D+00 0.7060000D+00
EXPONENTS  0.7060000D+00 0.7060000D+00 0.3120000D+00 0.3120000D+00 0.3120000D+00
EXPONENTS  0.3120000D+00 0.3120000D+00 0.3120000D+00 0.3120000D+00 0.3120000D+00
EXPONENTS  0.3120000D+00 0.3120000D+00 0.1950000D+05 0.2923000D+04 0.6645000D+03
EXPONENTS  0.1875000D+03 0.6062000D+02 0.2142000D+02 0.7950000D+01 0.6645000D+03
EXPONENTS  0.1875000D+03 0.6062000D+02 0.2142000D+02 0.7950000D+01 0.8815000D+00
EXPONENTS  0.2257000D+01 0.3041000D+00 0.9158000D-01 0.4388000D+02 0.9926000D+01
EXPONENTS  0.2930000D+01 0.4388000D+02 0.9926000D+01 0.2930000D+01 0.4388000D+02
EXPONENTS  0.9926000D+01 0.2930000D+01 0.9132000D+00 0.9132000D+00 0.9132000D+00
EXPONENTS  0.2672000D+00 0.2672000D+00 0.2672000D+00 0.7361000D-01 0.7361000D-01
EXPONENTS  0.7361000D-01 0.3107000D+01 0.3107000D+01 0.3107000D+01 0.3107000D+01
EXPONENTS  0.3107000D+01 0.3107000D+01 0.8550000D+00 0.8550000D+00 0.8550000D+00
EXPONENTS  0.8550000D+00 0.8550000D+00 0.8550000D+00 0.2920000D+00 0.2920000D+00
EXPONENTS  0.2920000D+00 0.2920000D+00 0.2920000D+00 0.2920000D+00 0.1917000D+01
EXPONENTS  0.1917000D+01 0.1917000D+01 0.1917000D+01 0.1917000D+01 0.1917000D+01
EXPONENTS  0.1917000D+01 0.1917000D+01 0.1917000D+01 0.1917000D+01 0.7240000D+00
EXPONENTS  0.7240000D+00 0.7240000D+00 0.7240000D+00 0.7240000D+00 0.7240000D+00
EXPONENTS  0.7240000D+00 0.7240000D+00 0.7240000D+00 0.7240000D+00
MO    1     MO 0.0        OCC NO =    2.0000300  ORB. ENERGY =    0.000000
  0.56421156D-04  0.10518040D-03  0.17776921D-03  0.26722028D-03  0.32823225D-03
  0.27701644D-03  0.10416541D-03 -0.16473592D-07 -0.12312990D-06 -0.46016454D-06
 -0.12837874D-05 -0.17199212D-05  0.20309062D-05  0.84491088D-05 -0.31160997D-04
 -0.99351989D-06 -0.31397749D-08 -0.29437386D-08 -0.20961172D-08  0.11442995D-03
  0.10728536D-03  0.76393565D-04  0.60800780D-05  0.57004596D-05  0.40590668D-05
 -0.14528316D-07  0.36666434D-03  0.99990587D-06 -0.21379082D-07  0.46726209D-03
 -0.72018973D-05 -0.51639836D-09  0.92298064D-05 -0.37522220D-07  0.62637864D-04
 -0.63583313D-04  0.94544840D-06 -0.14473664D-06  0.43470429D-09 -0.50853846D-03
  0.19607796D-03 -0.19760444D-03  0.15264846D-05 -0.14949484D-06 -0.71532305D-07
  0.10500913D-03  0.41746113D-04 -0.41823148D-04  0.77035708D-07 -0.47048894D-07
 -0.11486046D-07 -0.64745502D-04 -0.86091069D-10  0.92959062D-04  0.16346969D-05
 -0.87041973D-08  0.92298449D-04  0.24834520D-04  0.89624705D-08 -0.37117564D-03
 -0.29738611D-04 -0.18620854D-06  0.10010908D-07 -0.26098817D-04 -0.72370637D-06
 -0.59390883D-08 -0.29843359D-04  0.52733224D-04 -0.24093636D-07  0.10813981D-03
 -0.50562105D-04  0.51796684D-08 -0.38972284D-04 -0.70288119D-04 -0.10363979D-03
  0.38658692D-03  0.11390748D-02 -0.12425745D-04  0.13817640D-07  0.75282953D-04
  0.26723495D-04  0.71687400D-07  0.29315028D-03  0.27715245D-03  0.13766369D-07
  0.17425971D-03  0.23161766D-04 -0.11111474D-03  0.42055170D-04  0.69059573D-04
  0.87357955D-07  0.11097647D-06  0.29862078D-03 -0.43847756D-04 -0.12065333D-04
  0.55913088D-04  0.86761576D-08  0.29092029D-07  0.31660138D-04  0.20033270D-04
  0.36130827D-04  0.53274883D-04 -0.17492367D-03 -0.56296625D-03  0.62897935D-05
 -0.28994249D-04  0.20795944D-04 -0.11783689D-04 -0.86824159D-04  0.13607145D-03
 -0.13714326D-03 -0.41108492D-04  0.10103011D-03 -0.11427698D-04  0.95879178D-05
  0.23806334D-04 -0.33394252D-04  0.79596576D-04 -0.14917508D-03  0.40977882D-04
  0.21039705D-04  0.65855939D-05 -0.27625299D-04  0.26758951D-04  0.12734733D-04
  0.54089030D-04  0.20021208D-04  0.36109073D-04  0.53242807D-04 -0.17481321D-03
 -0.56263242D-03  0.62864701D-05  0.28976187D-04  0.20778522D-04 -0.11786335D-04
  0.86728700D-04  0.13601708D-03 -0.13709516D-03  0.41079467D-04  0.10100566D-03
 -0.11436128D-04  0.96238087D-05  0.23802938D-04 -0.33426747D-04 -0.79536129D-04
  0.14908342D-03  0.40919016D-04  0.21024646D-04  0.65796740D-05 -0.27604320D-04
 -0.26741734D-04 -0.12768735D-04  0.54106364D-04 -0.45468499D-05 -0.85066710D-05
 -0.14697641D-04 -0.23826602D-04 -0.36182982D-04 -0.50290941D-04 -0.59792075D-04
 -0.53264858D-04 -0.26452455D-04 -0.42586215D-05 -0.44930972D-07 -0.18134361D-07
 -0.60493192D-06 -0.21080666D-05 -0.75914893D-05 -0.16734493D-04 -0.23556766D-04
  0.11237345D-05  0.30828119D-04  0.18228474D-04 -0.40301338D-08 -0.48814763D-07
 -0.10179804D-06 -0.29193906D-06 -0.15159989D-07  0.12589828D-05  0.32529698D-05
 -0.26503667D-05  0.18677917D-06  0.60201476D-05 -0.23769943D-06 -0.50518748D-03
 -0.66545008D-03 -0.73409561D-03 -0.60972388D-03 -0.32378030D-03 -0.83537010D-04
  0.11610695D+02  0.15294002D+02  0.16871678D+02  0.14013250D+02  0.74414245D+01
  0.19199264D+01  0.20899236D-01  0.27529183D-01  0.30368998D-01  0.25223831D-01
  0.13394554D-01  0.34558649D-02  0.19955176D-07 -0.19291380D-06 -0.27202860D-06
 -0.38907286D-06  0.19702102D-08  0.35681651D-06 -0.45953022D-03  0.44424425D-02
  0.62643076D-02  0.89596170D-02 -0.45370240D-04 -0.82168139D-02 -0.10643451D-05
  0.10289404D-04  0.14509133D-04  0.20751899D-04 -0.10508469D-06 -0.19031448D-04
 -0.33344017D-05  0.76658976D-01  0.14417341D-03  0.27641606D-07 -0.64363257D-03
 -0.30856430D-05  0.25489360D-08 -0.58006028D-04 -0.10863847D-07  0.13503304D-04
 -0.10292121D-04 -0.32111832D-05 -0.18461079D-06  0.37293754D-07 -0.98067226D-03
 -0.55195004D-05  0.36139982D-05  0.19055021D-05  0.67207783D-07 -0.13161659D-07
  0.35726794D-03  0.12358397D-05 -0.14403358D-05  0.20449608D-06 -0.11914651D-07
  0.23031229D-08 -0.61035369D-04  0.64445492D-08  0.24405140D-05  0.86351597D-07
 -0.68411429D-08  0.31852103D-05  0.35948331D-04 -0.12492505D-07 -0.10506752D-04
 -0.36207386D-04 -0.35315589D-07 -0.19463740D-08  0.14767175D-04 -0.27731045D-06
  0.83009212D-09  0.14540874D-04 -0.69625599D-05  0.50090300D-08 -0.58842399D-04
  0.77944913D-05 -0.19775374D-07 -0.30809462D-05 -0.57428890D-05 -0.97354763D-05
 -0.14740828D-04 -0.18429281D-04 -0.15852487D-04 -0.60797699D-05 -0.41301185D-08
 -0.54675035D-07 -0.19858968D-06 -0.58911253D-06 -0.67883321D-06  0.82454404D-06
 -0.21375729D-06 -0.14691822D-05  0.88802043D-06  0.15855034D-07  0.15505877D-07
  0.10245389D-07 -0.29011990D-03 -0.28373092D-03 -0.18747302D-03  0.16423454D-04
  0.16061779D-04  0.10612697D-04 -0.39416063D-09 -0.71375067D-05  0.28144981D-05
  0.39465063D-08 -0.67532049D-04  0.15095883D-06  0.93802938D-09 -0.19584898D-04
  0.24695770D-06  0.68980590D-04 -0.69835603D-04  0.85501368D-06 -0.82775409D-07
 -0.17318801D-07 -0.13394516D-03 -0.34602777D-04  0.35125465D-04 -0.52268894D-06
  0.47565074D-07  0.68805523D-08  0.10265023D-03  0.17799974D-04 -0.17620232D-04
 -0.17974235D-06 -0.27885323D-07 -0.21023075D-08 -0.74778229D-04 -0.28056792D-07
 -0.70947329D-04  0.63812671D-06  0.34536212D-07 -0.72710826D-04 -0.18980061D-03
  0.49634163D-07  0.28555281D-03  0.18788623D-03  0.28209039D-06  0.87873975D-08
  0.25235125D-04 -0.33780814D-06 -0.11134842D-07  0.25800342D-04  0.60432500D-04
 -0.15227351D-07 -0.10150572D-03 -0.59419075D-04 -0.94101758D-07
MO    2     MO 0.0        OCC NO =    2.0000300  ORB. ENERGY =    0.000000
  0.14984610D-07  0.27934332D-07  0.47212827D-07  0.70969685D-07  0.87173547D-07
  0.73571398D-07  0.27664767D-07 -0.49384059D-11 -0.36911525D-10 -0.13794680D-09
 -0.38485008D-09 -0.51559301D-09  0.60881920D-09  0.25445760D-08 -0.57040874D-08
  0.18795436D-08  0.11039689D-03  0.10350410D-03  0.73701083D-04  0.56188082D-08
  0.52679899D-08  0.37511226D-08 -0.20762379D-07 -0.19466050D-07 -0.13860987D-07
  0.36556460D-03  0.17441876D-07 -0.61978055D-07  0.46575002D-03  0.20800235D-07
 -0.87000727D-07  0.92597780D-05  0.30099575D-09 -0.16768244D-08 -0.62885825D-07
 -0.26271823D-07  0.89157648D-07  0.12735432D-03 -0.50984686D-03 -0.44899807D-07
  0.10096207D-06 -0.84252074D-07 -0.16709998D-07  0.39293062D-03  0.96652482D-04
 -0.63410053D-07  0.60445515D-08 -0.18019206D-07  0.11974654D-07  0.83373198D-04
 -0.66058644D-04 -0.17224849D-07  0.92337964D-04  0.36816714D-08  0.66513536D-07
  0.92989577D-04  0.13633078D-07 -0.16999069D-06 -0.37000347D-03 -0.24678092D-07
 -0.29549921D-07  0.51323114D-04 -0.26707896D-04 -0.81547624D-09 -0.19574186D-07
 -0.26268695D-04  0.15566533D-07  0.74298209D-07  0.10639238D-03 -0.13120104D-07
 -0.15575651D-07  0.98745409D-04 -0.64815578D-08 -0.11689756D-07 -0.17236539D-07
  0.66418470D-07  0.19726461D-06 -0.24111791D-08  0.28858213D-05  0.12135373D-07
  0.41323337D-08  0.86143021D-04  0.38860287D-07  0.32152624D-07  0.77200084D-04
  0.20748946D-07 -0.95548074D-08 -0.23444496D-07  0.29078766D-08  0.20536619D-07
  0.30220441D-04 -0.50897900D-04  0.53608396D-07  0.66890184D-08 -0.57489516D-08
 -0.94006682D-09  0.30243234D-04  0.59096791D-04 -0.79447943D-08 -0.34674934D-04
 -0.62537671D-04 -0.92211760D-04  0.32314290D-03  0.98089657D-03 -0.10645967D-04
  0.54853041D-04 -0.29655081D-04  0.21321839D-04  0.23956121D-03 -0.87973797D-04
  0.23352053D-03  0.14936882D-03 -0.41712276D-04  0.19573454D-04  0.10867784D-04
 -0.69588120D-04  0.58720336D-04 -0.10628343D-03  0.21141648D-03 -0.14899288D-03
 -0.10609457D-04 -0.37275044D-04  0.47884502D-04 -0.16262825D-04  0.38400580D-04
  0.12849682D-04  0.34681955D-04  0.62550333D-04  0.92230430D-04 -0.32320387D-03
 -0.98109166D-03  0.10648141D-04  0.54863545D-04  0.29648212D-04 -0.21344672D-04
  0.23953033D-03  0.87960194D-04 -0.23365515D-03  0.14938602D-03  0.41709201D-04
 -0.19631066D-04 -0.10815834D-04  0.69622952D-04 -0.58807117D-04 -0.10621719D-03
  0.21147297D-03  0.14899049D-03  0.10626316D-04  0.37281365D-04 -0.47907681D-04
 -0.16262742D-04  0.38352331D-04 -0.12835028D-04 -0.42890669D-07 -0.80243865D-07
 -0.13864360D-06 -0.22475757D-06 -0.34131593D-06 -0.47439703D-06 -0.56402172D-06
 -0.50245014D-06 -0.24952737D-06 -0.40171795D-07 -0.42383617D-09 -0.20003882D-09
 -0.66729600D-08 -0.23253930D-07 -0.83741166D-07 -0.18459698D-06 -0.25985297D-06
  0.12395833D-07  0.34006273D-06  0.20107697D-06 -0.53922055D-11 -0.65312777D-10
 -0.13620291D-09 -0.39060623D-09 -0.20283638D-10  0.16844835D-08  0.43523819D-08
 -0.35461159D-08  0.11885834D-07  0.17856919D-08 -0.26949266D-09  0.11610706D+02
  0.15294016D+02  0.16871693D+02  0.14013262D+02  0.74414311D+01  0.19199281D+01
  0.50889076D-03  0.67032818D-03  0.73947691D-03  0.61419347D-03  0.32615378D-03
  0.84149379D-04 -0.20573440D-02 -0.27100033D-02 -0.29895579D-02 -0.24830619D-02
 -0.13185748D-02 -0.34019918D-03 -0.45939879D-03  0.44411719D-02  0.62625160D-02
  0.89570545D-02 -0.45357263D-04 -0.82144638D-02 -0.20132237D-07  0.19462551D-06
  0.27444228D-06  0.39252507D-06 -0.19876917D-08 -0.35998251D-06  0.81273567D-07
 -0.78570055D-06 -0.11079198D-05 -0.15846184D-05  0.80242844D-08  0.14532445D-05
  0.76659085D-01  0.33598951D-05 -0.13581095D-04 -0.64369072D-03 -0.28233389D-07
  0.11309449D-06 -0.58006179D-04 -0.25339589D-08  0.10334872D-07 -0.16799592D-06
 -0.50853436D-08  0.17308126D-06  0.25878750D-04 -0.97800123D-03 -0.47212022D-07
  0.60898067D-07  0.14757364D-08 -0.62373803D-07 -0.84682446D-05  0.35578221D-03
  0.16956018D-07 -0.10257111D-07 -0.66235053D-09  0.10919461D-07  0.26420997D-05
 -0.60772997D-04 -0.31381826D-08  0.21517527D-05  0.20971838D-10  0.15422329D-08
  0.27036492D-05  0.13093140D-07  0.10997446D-07 -0.91589074D-05 -0.13156056D-07
 -0.15624145D-07  0.70552393D-04  0.14724040D-04  0.66527318D-09  0.10315233D-07
  0.14485553D-04 -0.21668463D-08 -0.31709968D-07 -0.58657674D-04  0.17102676D-09
  0.76426899D-09 -0.14853493D-04  0.43526245D-08  0.81132995D-08  0.13753850D-07
  0.20825189D-07  0.26036073D-07  0.22395692D-07  0.85892299D-08 -0.11054920D-10
 -0.14634644D-09 -0.53155690D-09 -0.15768535D-08 -0.18170052D-08  0.22070234D-08
  0.13016702D-09 -0.35380744D-08 -0.34397536D-08 -0.29127766D-03 -0.28486319D-03
 -0.18822116D-03 -0.12456407D-07 -0.12182094D-07 -0.80492247D-08  0.50662308D-07
  0.49546630D-07  0.32737553D-07 -0.83178834D-05 -0.15667059D-08  0.38202180D-08
 -0.66787665D-04 -0.19736637D-08  0.74583418D-08 -0.19497367D-04 -0.81701170D-09
  0.29992066D-08  0.62288154D-08 -0.31076966D-07  0.24848151D-07  0.14195677D-03
 -0.13336827D-03 -0.29944245D-07  0.28367056D-08  0.15523773D-07 -0.18360479D-07
 -0.71152804D-04  0.10236372D-03  0.16350497D-07 -0.46413352D-08 -0.73322507D-08
  0.11973586D-07  0.35923523D-04 -0.74253177D-04 -0.86307358D-08 -0.72012830D-04
 -0.21022560D-08 -0.48185233D-07 -0.70016680D-04 -0.67614438D-07  0.52267447D-07
  0.28605517D-03  0.73921206D-07  0.92288253D-07 -0.37666016D-03  0.25537306D-04
  0.72625461D-09  0.16868909D-07  0.24945819D-04  0.21564931D-07 -0.21228629D-07
 -0.10155774D-03 -0.23743695D-07 -0.29378096D-07  0.11948003D-03
MO    3     MO 0.0        OCC NO =    2.0000210  ORB. ENERGY =    0.000000
 -0.14423758D-01 -0.26888792D-01 -0.45445721D-01 -0.68313395D-01 -0.83910770D-01
 -0.70817730D-01 -0.26629316D-01 -0.38200086D-05 -0.28552198D-04 -0.10670608D-03
 -0.29769335D-03 -0.39882702D-03  0.47094034D-03 -0.86852301D-03 -0.19420868D-02
 -0.82646938D-04  0.20966103D-06  0.19657055D-06  0.13996994D-06  0.30748353D-05
  0.28828536D-05  0.20527635D-05  0.11722963D-02  0.10991023D-02  0.78262630D-03
  0.10550199D-06  0.11009684D-05  0.60838666D-03 -0.66279266D-07  0.27573756D-05
 -0.38285760D-03  0.81126930D-09  0.50603550D-07  0.46377357D-05 -0.10633361D-03
 -0.10517104D-03  0.21150465D-03 -0.69092640D-09  0.11392353D-06  0.17051547D-05
 -0.23942709D-04 -0.24995654D-04  0.48938364D-04 -0.41735353D-09  0.25694771D-07
  0.32205450D-05  0.11779098D-04  0.11177137D-04 -0.22956235D-04  0.20109429D-09
 -0.12109306D-07  0.49669485D-06 -0.16030433D-07  0.36399701D-04  0.85438293D-05
  0.39579205D-07 -0.10968610D-03 -0.11646821D-04  0.85120942D-08  0.48699228D-06
 -0.13984667D-04  0.38666584D-07  0.29353510D-08  0.52320706D-04 -0.86057324D-04
  0.82619488D-07 -0.15605213D-03  0.12972633D-03 -0.91425541D-07 -0.90999189D-06
  0.12844564D-03  0.54643543D-07 -0.44693152D-05 -0.80605941D-05 -0.11885341D-04
  0.75801920D-03  0.24407713D-03  0.52819106D-05  0.18120703D-07  0.98077931D-04
  0.31365194D-04  0.25101823D-07  0.19866920D-03 -0.89631060D-05  0.13187919D-07
  0.45130654D-04  0.39422945D-04 -0.75961225D-04  0.53277314D-04  0.22683911D-04
  0.47195484D-07  0.45375422D-07  0.75298756D-04 -0.94336852D-05 -0.12237216D-04
  0.21670902D-04 -0.67286103D-08  0.64661097D-08 -0.34763513D-04 -0.47028282D-05
 -0.84817443D-05 -0.12506327D-04  0.75510176D-03  0.23341787D-03  0.49939539D-05
  0.83476919D-04 -0.47857975D-04  0.28658557D-04  0.17310171D-03 -0.99907710D-04
 -0.49190652D-05  0.38110132D-04 -0.21357360D-04  0.38662225D-04  0.22307945D-04
 -0.42269525D-04  0.19961580D-04 -0.11113488D-03  0.66164539D-04 -0.37410140D-04
 -0.11405859D-04 -0.10411440D-04  0.21817299D-04  0.20495479D-05 -0.30154266D-04
  0.17356793D-04 -0.47026116D-05 -0.84813537D-05 -0.12505751D-04  0.75510468D-03
  0.23341434D-03  0.49939833D-05 -0.83479142D-04 -0.47836741D-04  0.28688728D-04
 -0.17312880D-03 -0.99864813D-04 -0.48561161D-05 -0.38101236D-04 -0.21347736D-04
  0.38675642D-04  0.22312672D-04 -0.42297303D-04  0.19984631D-04  0.11108867D-03
 -0.66176646D-04 -0.37434036D-04 -0.11395673D-04 -0.10410875D-04  0.21806549D-04
 -0.20426346D-05  0.30181955D-04  0.17349768D-04 -0.15450780D+00 -0.28906760D+00
 -0.49944470D+00 -0.80965854D+00 -0.12295442D+01 -0.17089507D+01 -0.20318115D+01
 -0.18100083D+01 -0.89888838D+00 -0.14471342D+00 -0.15268121D-02 -0.72240069D-03
 -0.24098078D-01 -0.83976976D-01 -0.30241469D+00 -0.66663554D+00 -0.93840769D+00
  0.44765105D-01  0.12280694D+01  0.72614976D+00 -0.15524240D-04 -0.18803645D-03
 -0.39213020D-03 -0.11245611D-02 -0.58396894D-04  0.48496530D-02  0.12530572D-01
 -0.10209320D-01  0.46572576D-01 -0.37988869D-03 -0.13192710D-03  0.10527216D-02
  0.13866806D-02  0.15297258D-02  0.12705571D-02  0.67470105D-03  0.17407640D-03
 -0.10862317D-01 -0.14308212D-01 -0.15784197D-01 -0.13110012D-01 -0.69617801D-02
 -0.17961757D-02  0.59515554D+01  0.78395908D+01  0.86482958D+01  0.71830868D+01
  0.38144184D+01  0.98413989D+00 -0.37388253D-07  0.36144557D-06  0.50967598D-06
  0.72897148D-06 -0.36914090D-08 -0.66853560D-06  0.31424412D-06 -0.30379099D-05
 -0.42837701D-05 -0.61269244D-05  0.31025883D-07  0.56189676D-05 -0.21128978D-03
  0.20426137D-02  0.28802985D-02  0.41195888D-02 -0.20861018D-04 -0.37780515D-02
  0.73817385D-05 -0.74276063D-04  0.41727144D-01 -0.86105341D-07  0.53511903D-06
 -0.48546643D-03 -0.17199490D-08  0.69692373D-07 -0.98745118D-05 -0.58535812D-05
 -0.65674640D-05  0.12421045D-04 -0.42528188D-09  0.58380502D-08 -0.18375713D-05
 -0.11212645D-03 -0.11183315D-03  0.22395960D-03  0.11418322D-09  0.11962436D-06
  0.40607498D-06 -0.14301147D-04 -0.14444163D-04  0.28745310D-04 -0.66715889D-10
  0.15323628D-07 -0.18729034D-06  0.14359605D-08 -0.71633149D-05  0.53412184D-05
 -0.99672989D-08  0.22239881D-04 -0.76606712D-05  0.56594172D-08 -0.74993673D-06
 -0.83629840D-05 -0.82891615D-08  0.82276205D-08  0.20544065D-05 -0.33852310D-04
  0.11489090D-07 -0.63610092D-05  0.50685170D-04 -0.36171952D-07  0.19778960D-06
  0.50871761D-04  0.23606140D-08 -0.87690737D-03 -0.16345568D-02 -0.27709380D-02
 -0.41955749D-02 -0.52453927D-02 -0.45119783D-02 -0.17304408D-02 -0.68377367D-06
 -0.90518831D-05 -0.32878086D-04 -0.97532224D-04 -0.11238619D-03  0.13650977D-03
 -0.95832870D-04 -0.16039885D-03  0.12275284D-04  0.66921396D-06  0.65447664D-06
  0.43244039D-06  0.51983273D-06  0.50838506D-06  0.33591150D-06  0.39105478D-02
  0.38244303D-02  0.25269628D-02  0.14987170D-06  0.53428497D-06  0.88061099D-03
  0.40832399D-08 -0.15560274D-06  0.21058401D-04  0.15672158D-08  0.96591534D-07
  0.93452143D-05 -0.36497690D-04 -0.35583734D-04  0.72081424D-04  0.89195123D-09
  0.37334887D-07 -0.39192250D-06  0.21582434D-04  0.21074190D-04 -0.42656624D-04
 -0.37983505D-09 -0.22277155D-07  0.29894842D-06  0.18030007D-04  0.18326400D-04
 -0.36356408D-04  0.63425427D-10 -0.18075449D-07 -0.23053700D-06 -0.98013091D-08
 -0.29279211D-05  0.46849586D-04 -0.14537802D-07  0.76982558D-05 -0.68284153D-04
  0.43941729D-07  0.10855075D-05 -0.72264604D-04 -0.91054603D-09  0.58278847D-08
  0.91767209D-06 -0.25614097D-04  0.73223738D-08 -0.24435384D-05  0.37803522D-04
 -0.24806028D-07 -0.30947788D-06  0.39038770D-04  0.29754473D-09
MO    4     MO 0.0        OCC NO =    2.0000124  ORB. ENERGY =    0.000000
  0.27129201D-01  0.50574296D-01  0.85477451D-01  0.12848855D+00  0.15782517D+00
  0.13319888D+00  0.50086256D-01 -0.14299668D-05 -0.10688116D-04 -0.39943930D-04
 -0.11143735D-03 -0.14929532D-03  0.17628994D-03  0.26724997D-02 -0.36229243D-02
 -0.44083753D-04  0.64969887D-06  0.60913399D-06  0.43373969D-06  0.15054468D-04
  0.14114521D-04  0.10050380D-04  0.36700827D-02  0.34409358D-02  0.24501513D-02
  0.22775287D-06 -0.10800992D-05  0.13032230D-02 -0.73532518D-07  0.49945678D-05
 -0.42174513D-03  0.67890209D-09  0.12523607D-06  0.36500151D-05 -0.31964867D-03
 -0.31487542D-03  0.63452409D-03  0.86085721D-11  0.33842437D-06  0.60550391D-06
  0.80852492D-05  0.74409279D-05 -0.15526177D-04 -0.11969200D-09 -0.64978559D-08
  0.90189534D-05 -0.17024479D-04 -0.18063293D-04  0.35087772D-04 -0.19099489D-09
  0.18294807D-07  0.99938206D-06  0.10389501D-07 -0.42787561D-04  0.23724630D-04
 -0.55188908D-07  0.12641998D-03 -0.33629053D-04  0.24020407D-07  0.19426988D-05
 -0.37544838D-04 -0.44194835D-07  0.11969746D-07  0.83484671D-04 -0.16357200D-03
  0.13869114D-06 -0.24872695D-03  0.24731302D-03 -0.17460038D-06 -0.17270619D-05
  0.24340298D-03  0.87143594D-07 -0.90243124D-04 -0.16275719D-03 -0.23998538D-03
  0.10288672D-02  0.69756957D-03  0.47761689D-05  0.16281137D-09 -0.54934873D-04
  0.42338268D-04  0.32020789D-07  0.29932553D-03 -0.43312089D-04  0.28086244D-07
  0.11278145D-03  0.76428040D-04 -0.14646018D-03  0.18848556D-04  0.12761162D-03
  0.69408984D-07  0.11704722D-06  0.15074160D-03 -0.14952553D-04 -0.22069274D-04
  0.37021828D-04 -0.12804113D-07  0.10628594D-07 -0.62080439D-04 -0.89970282D-04
 -0.16226511D-03 -0.23925981D-03  0.10317447D-02  0.67854692D-03  0.41216240D-05
 -0.49205806D-04  0.29443318D-04  0.33774913D-04  0.26525902D-03 -0.15326270D-03
 -0.44054577D-04  0.95982227D-04 -0.54385747D-04  0.75352647D-04 -0.17164640D-04
 -0.10148960D-03  0.11865424D-03 -0.14327475D-03  0.12340545D-03 -0.69925097D-04
 -0.19578879D-04 -0.16927062D-04  0.36505941D-04  0.49576234D-05 -0.54591088D-04
  0.31944366D-04 -0.89970545D-04 -0.16226558D-03 -0.23926051D-03  0.10317483D-02
  0.67855033D-03  0.41214186D-05  0.49224905D-04  0.29430877D-04  0.33757488D-04
 -0.26531392D-03 -0.15319662D-03 -0.43960851D-04 -0.95969621D-04 -0.54361463D-04
  0.75386664D-04 -0.17170313D-04 -0.10152504D-03  0.11869536D-03  0.14320817D-03
 -0.12332710D-03 -0.69945093D-04 -0.19560778D-04 -0.16925992D-04  0.36486770D-04
 -0.49445496D-05  0.54639733D-04  0.31932424D-04  0.91458933D-01  0.17110990D+00
  0.29563996D+00  0.47926712D+00  0.72781310D+00  0.10115917D+01  0.12027051D+01
  0.10714115D+01  0.53208559D+00  0.85661278D-01  0.90377708D-03  0.42821463D-03
  0.14284523D-01  0.49778703D-01  0.17926117D+00  0.39515894D+00  0.55625625D+00
 -0.26535236D-01 -0.72795791D+00 -0.43043695D+00  0.62941241D-05  0.76237213D-04
  0.15898467D-03  0.45594035D-03  0.23676348D-04 -0.19662359D-02 -0.50803760D-02
  0.41392512D-02 -0.28587909D-01  0.14244064D-02 -0.18071917D-03  0.17577849D-02
  0.23154139D-02  0.25542640D-02  0.21215163D-02  0.11265840D-02  0.29066456D-03
 -0.17891446D-01 -0.23567220D-01 -0.25998332D-01 -0.21593651D-01 -0.11466828D-01
 -0.29585015D-02  0.99081173D+01  0.13051308D+02  0.14397636D+02  0.11958364D+02
  0.63502232D+01  0.16383908D+01 -0.59827395D-07  0.57837276D-06  0.81556596D-06
  0.11664751D-05 -0.59068656D-08 -0.10697677D-05  0.39344479D-06 -0.38035710D-05
 -0.53634322D-05 -0.76711269D-05  0.38845507D-07  0.70351468D-05 -0.33697721D-03
  0.32576788D-02  0.45936672D-02  0.65701593D-02 -0.33270362D-04 -0.60254558D-02
  0.12863546D-04 -0.12559749D-03  0.72502254D-01 -0.54279939D-07  0.93403229D-06
 -0.30834582D-03 -0.66144708D-09  0.11123045D-06 -0.40303135D-05  0.45439255D-03
  0.45313386D-03 -0.90752642D-03 -0.31484429D-09 -0.48467533D-06 -0.42151121D-06
 -0.30984419D-03 -0.30912778D-03  0.61897197D-03  0.23134529D-09  0.33040614D-06
  0.74899654D-06  0.44130567D-05  0.41449560D-05 -0.85580127D-05 -0.15479992D-09
 -0.48589314D-08 -0.48653107D-06  0.18389410D-07 -0.14286021D-04 -0.47075908D-04
 -0.45131161D-08  0.44815804D-04  0.71272984D-04 -0.50655115D-07 -0.19577412D-05
  0.69954740D-04 -0.17220996D-07  0.14990936D-07  0.41710136D-05 -0.62444456D-04
  0.21551233D-07 -0.12862174D-04  0.93590725D-04 -0.66524039D-07  0.34913308D-06
  0.93742644D-04  0.48968437D-08 -0.63310444D-02 -0.11801078D-01 -0.20005456D-01