 clch3f_ts-wavefunction
GAUSSIAN            211 MOL ORBITALS    339 PRIMITIVES        6 NUCLEI
  C    1    (CENTRE  1)   0.00033070  0.00005480 -0.94053370  CHARGE =  6.0
  H    2    (CENTRE  2)   0.01893317 -1.98906904 -1.17300214  CHARGE =  1.0
  H    3    (CENTRE  3)  -1.72213010  0.99468570 -1.17398291  CHARGE =  1.0
  H    4    (CENTRE  4)   1.72295780  0.99424539 -1.17459707  CHARGE =  1.0
  Cl   5    (CENTRE  5)   0.00104880  0.00181792  3.10806659  CHARGE = 17.0
  F    6    (CENTRE  6)  -0.00035149 -0.00174044 -4.90094425  CHARGE =  9.0
CENTRE ASSIGNMENTS    1  1  1  1  1  1  1  1  1  1  1  1  1  1  1  1  1  1  1  1
CENTRE ASSIGNMENTS    1  1  1  1  1  1  1  1  1  1  1  1  1  1  1  1  1  1  1  1
CENTRE ASSIGNMENTS    1  1  1  1  1  1  1  1  1  1  1  1  1  1  1  1  1  1  1  1
CENTRE ASSIGNMENTS    1  1  1  1  1  1  1  1  1  1  1  1  2  2  2  2  2  2  2  2
CENTRE ASSIGNMENTS    2  2  2  2  2  2  2  2  2  2  2  2  2  2  2  2  2  2  2  3
CENTRE ASSIGNMENTS    3  3  3  3  3  3  3  3  3  3  3  3  3  3  3  3  3  3  3  3
CENTRE ASSIGNMENTS    3  3  3  3  3  3  4  4  4  4  4  4  4  4  4  4  4  4  4  4
CENTRE ASSIGNMENTS    4  4  4  4  4  4  4  4  4  4  4  4  4  5  5  5  5  5  5  5
CENTRE ASSIGNMENTS    5  5  5  5  5  5  5  5  5  5  5  5  5  5  5  5  5  5  5  5
CENTRE ASSIGNMENTS    5  5  5  5  5  5  5  5  5  5  5  5  5  5  5  5  5  5  5  5
CENTRE ASSIGNMENTS    5  5  5  5  5  5  5  5  5  5  5  5  5  5  5  5  5  5  5  5
CENTRE ASSIGNMENTS    5  5  5  5  5  5  5  5  5  5  5  5  5  5  5  5  5  5  5  5
CENTRE ASSIGNMENTS    5  5  5  5  5  5  5  5  5  5  5  5  5  5  5  5  5  5  5  5
CENTRE ASSIGNMENTS    5  5  5  5  5  5  5  6  6  6  6  6  6  6  6  6  6  6  6  6
CENTRE ASSIGNMENTS    6  6  6  6  6  6  6  6  6  6  6  6  6  6  6  6  6  6  6  6
CENTRE ASSIGNMENTS    6  6  6  6  6  6  6  6  6  6  6  6  6  6  6  6  6  6  6  6
CENTRE ASSIGNMENTS    6  6  6  6  6  6  6  6  6  6  6  6  6  6  6  6  6  6  6
TYPE ASSIGNMENTS      1  1  1  1  1  1  1  1  1  1  1  1  1  1  1  1  2  2  2  3
TYPE ASSIGNMENTS      3  3  4  4  4  2  3  4  2  3  4  2  3  4  5  6  7  8  9 10
TYPE ASSIGNMENTS      5  6  7  8  9 10  5  6  7  8  9 10 11 12 13 17 14 15 18 19
TYPE ASSIGNMENTS     16 20 11 12 13 17 14 15 18 19 16 20  1  1  1  1  1  1  2  3
TYPE ASSIGNMENTS      4  2  3  4  2  3  4  5  6  7  8  9 10  5  6  7  8  9 10  1
TYPE ASSIGNMENTS      1  1  1  1  1  2  3  4  2  3  4  2  3  4  5  6  7  8  9 10
TYPE ASSIGNMENTS      5  6  7  8  9 10  1  1  1  1  1  1  2  3  4  2  3  4  2  3
TYPE ASSIGNMENTS      4  5  6  7  8  9 10  5  6  7  8  9 10  1  1  1  1  1  1  1
TYPE ASSIGNMENTS      1  1  1  1  1  1  1  1  1  1  1  1  1  1  1  1  1  1  1  1
TYPE ASSIGNMENTS      1  1  1  1  2  2  2  2  2  2  3  3  3  3  3  3  4  4  4  4
TYPE ASSIGNMENTS      4  4  2  2  2  2  2  2  3  3  3  3  3  3  4  4  4  4  4  4
TYPE ASSIGNMENTS      2  3  4  2  3  4  2  3  4  5  6  7  8  9 10  5  6  7  8  9
TYPE ASSIGNMENTS     10  5  6  7  8  9 10 11 12 13 17 14 15 18 19 16 20 11 12 13
TYPE ASSIGNMENTS     17 14 15 18 19 16 20  1  1  1  1  1  1  1  1  1  1  1  1  1
TYPE ASSIGNMENTS      1  1  1  2  2  2  3  3  3  4  4  4  2  3  4  2  3  4  2  3
TYPE ASSIGNMENTS      4  5  6  7  8  9 10  5  6  7  8  9 10  5  6  7  8  9 10 11
TYPE ASSIGNMENTS     12 13 17 14 15 18 19 16 20 11 12 13 17 14 15 18 19 16 20
EXPONENTS  0.8236000D+04 0.1235000D+04 0.2808000D+03 0.7927000D+02 0.2559000D+02
EXPONENTS  0.8997000D+01 0.3319000D+01 0.2808000D+03 0.7927000D+02 0.2559000D+02
EXPONENTS  0.8997000D+01 0.3319000D+01 0.3643000D+00 0.9059000D+00 0.1285000D+00
EXPONENTS  0.4402000D-01 0.1871000D+02 0.4133000D+01 0.1200000D+01 0.1871000D+02
EXPONENTS  0.4133000D+01 0.1200000D+01 0.1871000D+02 0.4133000D+01 0.1200000D+01
EXPONENTS  0.3827000D+00 0.3827000D+00 0.3827000D+00 0.1209000D+00 0.1209000D+00
EXPONENTS  0.1209000D+00 0.3569000D-01 0.3569000D-01 0.3569000D-01 0.1097000D+01
EXPONENTS  0.1097000D+01 0.1097000D+01 0.1097000D+01 0.1097000D+01 0.1097000D+01
EXPONENTS  0.3180000D+00 0.3180000D+00 0.3180000D+00 0.3180000D+00 0.3180000D+00
EXPONENTS  0.3180000D+00 0.1000000D+00 0.1000000D+00 0.1000000D+00 0.1000000D+00
EXPONENTS  0.1000000D+00 0.1000000D+00 0.7610000D+00 0.7610000D+00 0.7610000D+00
EXPONENTS  0.7610000D+00 0.7610000D+00 0.7610000D+00 0.7610000D+00 0.7610000D+00
EXPONENTS  0.7610000D+00 0.7610000D+00 0.2680000D+00 0.2680000D+00 0.2680000D+00
EXPONENTS  0.2680000D+00 0.2680000D+00 0.2680000D+00 0.2680000D+00 0.2680000D+00
EXPONENTS  0.2680000D+00 0.2680000D+00 0.3387000D+02 0.5095000D+01 0.1159000D+01
EXPONENTS  0.3258000D+00 0.1027000D+00 0.2526000D-01 0.1407000D+01 0.1407000D+01
EXPONENTS  0.1407000D+01 0.3880000D+00 0.3880000D+00 0.3880000D+00 0.1020000D+00
EXPONENTS  0.1020000D+00 0.1020000D+00 0.1057000D+01 0.1057000D+01 0.1057000D+01
EXPONENTS  0.1057000D+01 0.1057000D+01 0.1057000D+01 0.2470000D+00 0.2470000D+00
EXPONENTS  0.2470000D+00 0.2470000D+00 0.2470000D+00 0.2470000D+00 0.3387000D+02
EXPONENTS  0.5095000D+01 0.1159000D+01 0.3258000D+00 0.1027000D+00 0.2526000D-01
EXPONENTS  0.1407000D+01 0.1407000D+01 0.1407000D+01 0.3880000D+00 0.3880000D+00
EXPONENTS  0.3880000D+00 0.1020000D+00 0.1020000D+00 0.1020000D+00 0.1057000D+01
EXPONENTS  0.1057000D+01 0.1057000D+01 0.1057000D+01 0.1057000D+01 0.1057000D+01
EXPONENTS  0.2470000D+00 0.2470000D+00 0.2470000D+00 0.2470000D+00 0.2470000D+00
EXPONENTS  0.2470000D+00 0.3387000D+02 0.5095000D+01 0.1159000D+01 0.3258000D+00
EXPONENTS  0.1027000D+00 0.2526000D-01 0.1407000D+01 0.1407000D+01 0.1407000D+01
EXPONENTS  0.3880000D+00 0.3880000D+00 0.3880000D+00 0.1020000D+00 0.1020000D+00
EXPONENTS  0.1020000D+00 0.1057000D+01 0.1057000D+01 0.1057000D+01 0.1057000D+01
EXPONENTS  0.1057000D+01 0.1057000D+01 0.2470000D+00 0.2470000D+00 0.2470000D+00
EXPONENTS  0.2470000D+00 0.2470000D+00 0.2470000D+00 0.4561000D+06 0.6833000D+05
EXPONENTS  0.1555000D+05 0.4405000D+04 0.1439000D+04 0.5204000D+03 0.2031000D+03
EXPONENTS  0.8396000D+02 0.3620000D+02 0.1583000D+02 0.6334000D+01 0.4405000D+04
EXPONENTS  0.1439000D+04 0.5204000D+03 0.2031000D+03 0.8396000D+02 0.3620000D+02
EXPONENTS  0.1583000D+02 0.6334000D+01 0.2694000D+01 0.1439000D+04 0.2031000D+03
EXPONENTS  0.8396000D+02 0.3620000D+02 0.1583000D+02 0.6334000D+01 0.2694000D+01
EXPONENTS  0.4313000D+00 0.9768000D+00 0.1625000D+00 0.5910000D-01 0.6633000D+03
EXPONENTS  0.1568000D+03 0.4998000D+02 0.1842000D+02 0.7240000D+01 0.2922000D+01
EXPONENTS  0.6633000D+03 0.1568000D+03 0.4998000D+02 0.1842000D+02 0.7240000D+01
EXPONENTS  0.2922000D+01 0.6633000D+03 0.1568000D+03 0.4998000D+02 0.1842000D+02
EXPONENTS  0.7240000D+01 0.2922000D+01 0.1568000D+03 0.4998000D+02 0.1842000D+02
EXPONENTS  0.7240000D+01 0.2922000D+01 0.3818000D+00 0.1568000D+03 0.4998000D+02
EXPONENTS  0.1842000D+02 0.7240000D+01 0.2922000D+01 0.3818000D+00 0.1568000D+03
EXPONENTS  0.4998000D+02 0.1842000D+02 0.7240000D+01 0.2922000D+01 0.3818000D+00
EXPONENTS  0.1022000D+01 0.1022000D+01 0.1022000D+01 0.1301000D+00 0.1301000D+00
EXPONENTS  0.1301000D+00 0.4190000D-01 0.4190000D-01 0.4190000D-01 0.1046000D+01
EXPONENTS  0.1046000D+01 0.1046000D+01 0.1046000D+01 0.1046000D+01 0.1046000D+01
EXPONENTS  0.3440000D+00 0.3440000D+00 0.3440000D+00 0.3440000D+00 0.3440000D+00
EXPONENTS  0.3440000D+00 0.1350000D+00 0.1350000D+00 0.1350000D+00 0.1350000D+00
EXPONENTS  0.1350000D+00 0.1350000D+00 0.7060000D+00 0.7060000D+00 0.7060000D+00
EXPONENTS  0.7060000D+00 0.7060000D+00 0.7060000D+00 0.7060000D+00 0.7060000D+00
EXPONENTS  0.7060000D+00 0.7060000D+00 0.3120000D+00 0.3120000D+00 0.3120000D+00
EXPONENTS  0.3120000D+00 0.3120000D+00 0.3120000D+00 0.3120000D+00 0.3120000D+00
EXPONENTS  0.3120000D+00 0.3120000D+00 0.1950000D+05 0.2923000D+04 0.6645000D+03
EXPONENTS  0.1875000D+03 0.6062000D+02 0.2142000D+02 0.7950000D+01 0.6645000D+03
EXPONENTS  0.1875000D+03 0.6062000D+02 0.2142000D+02 0.7950000D+01 0.8815000D+00
EXPONENTS  0.2257000D+01 0.3041000D+00 0.9158000D-01 0.4388000D+02 0.9926000D+01
EXPONENTS  0.2930000D+01 0.4388000D+02 0.9926000D+01 0.2930000D+01 0.4388000D+02
EXPONENTS  0.9926000D+01 0.2930000D+01 0.9132000D+00 0.9132000D+00 0.9132000D+00
EXPONENTS  0.2672000D+00 0.2672000D+00 0.2672000D+00 0.7361000D-01 0.7361000D-01
EXPONENTS  0.7361000D-01 0.3107000D+01 0.3107000D+01 0.3107000D+01 0.3107000D+01
EXPONENTS  0.3107000D+01 0.3107000D+01 0.8550000D+00 0.8550000D+00 0.8550000D+00
EXPONENTS  0.8550000D+00 0.8550000D+00 0.8550000D+00 0.2920000D+00 0.2920000D+00
EXPONENTS  0.2920000D+00 0.2920000D+00 0.2920000D+00 0.2920000D+00 0.1917000D+01
EXPONENTS  0.1917000D+01 0.1917000D+01 0.1917000D+01 0.1917000D+01 0.1917000D+01
EXPONENTS  0.1917000D+01 0.1917000D+01 0.1917000D+01 0.1917000D+01 0.7240000D+00
EXPONENTS  0.7240000D+00 0.7240000D+00 0.7240000D+00 0.7240000D+00 0.7240000D+00
EXPONENTS  0.7240000D+00 0.7240000D+00 0.7240000D+00 0.7240000D+00
MO    1     MO 0.0        OCC NO =    2.0000300  ORB. ENERGY =    0.000000
 -0.11976938D-04 -0.22327425D-04 -0.37736391D-04 -0.56724833D-04 -0.69676298D-04
 -0.58804337D-04 -0.22111966D-04  0.76069339D-08  0.56857118D-07  0.21248803D-06
  0.59280852D-06  0.79419998D-06 -0.93780209D-06 -0.32268440D-05  0.20035211D-04
  0.59949142D-06  0.77419540D-04  0.72585740D-04  0.51685371D-04  0.78661544D-04
  0.73750198D-04  0.52514534D-04  0.32807228D-06  0.30758862D-06  0.21902142D-06
  0.25162266D-03  0.25569443D-03 -0.26501007D-06  0.32333105D-03  0.32860646D-03
 -0.11165895D-05  0.66691227D-05  0.67768284D-05 -0.14386335D-07  0.44744981D-04
 -0.46183280D-04  0.14382985D-05  0.90867980D-04 -0.35737884D-03 -0.36312013D-03
  0.13784156D-03 -0.13498533D-03 -0.28562269D-05  0.27349448D-03  0.68816331D-04
  0.70172179D-04  0.28491372D-04 -0.29218311D-04  0.72693916D-06  0.57773562D-04
 -0.46166254D-04 -0.46862548D-04  0.65781066D-04  0.65789750D-04  0.23974836D-06
  0.61506240D-04  0.65663132D-04  0.18347727D-04 -0.25884944D-03 -0.26303238D-03
 -0.19066972D-04  0.36969576D-04 -0.18079385D-04 -0.20185176D-04 -0.32530234D-07
 -0.20378038D-04 -0.15327199D-04  0.35702682D-04  0.74616195D-04  0.75882728D-04
 -0.35605091D-04  0.71609033D-04 -0.28499813D-04 -0.51400587D-04 -0.75790135D-04
  0.24860985D-03  0.79397616D-03 -0.84485631D-05  0.30681748D-05  0.49755094D-04
  0.16583389D-04  0.57825222D-04  0.20224586D-03  0.19229582D-03  0.51211537D-04
  0.12141486D-03  0.16127065D-04 -0.77897561D-04  0.29941177D-04  0.47956384D-04
  0.19973070D-04 -0.35339583D-04  0.21099770D-03 -0.30197558D-04 -0.81407569D-05
  0.38338315D-04  0.19894666D-04  0.42619989D-04  0.22554281D-04 -0.10238885D-04
 -0.18466250D-04 -0.27228475D-04  0.82428204D-04  0.28252181D-03 -0.30355435D-05
  0.17527614D-04 -0.43993327D-05  0.57520112D-05  0.99745044D-04  0.30609838D-04
  0.68293813D-04  0.72905641D-04  0.40958858D-04  0.58860952D-05  0.12417132D-04
 -0.29413170D-04  0.16996038D-04 -0.20061247D-04  0.42379518D-04 -0.77076168D-04
  0.72222119D-05 -0.20327869D-04  0.13105657D-04  0.72977214D-05  0.36247558D-04
  0.46977367D-04  0.38500550D-04  0.69437328D-04  0.10238530D-03 -0.36098748D-03
 -0.10820715D-02  0.11401826D-04  0.58940890D-04  0.35540826D-04 -0.23268722D-04
  0.22831083D-03  0.15911198D-03 -0.26280059D-03  0.13410400D-03  0.10009127D-03
 -0.21543632D-04  0.48618241D-06  0.65555577D-04 -0.66041760D-04 -0.13095716D-03
  0.25553721D-03  0.13281890D-03  0.22810310D-04  0.31355032D-04 -0.54165342D-04
 -0.30150515D-04  0.17935840D-04  0.28851297D-04  0.19220466D-04  0.35959442D-04
  0.62129939D-04  0.10071993D-03  0.15295288D-03  0.21259011D-03  0.25275336D-03
  0.22516147D-03  0.11181995D-03  0.18002066D-04  0.18993243D-06  0.89285905D-07
  0.29784283D-05  0.10379226D-04  0.37377275D-04  0.82393551D-04  0.11598353D-03
 -0.55327923D-05 -0.15178459D-03 -0.89749276D-04  0.35004419D-08  0.42398899D-07
  0.88418434D-07  0.25356868D-06  0.13167468D-07 -0.10935111D-05 -0.28254227D-05
  0.23020214D-05 -0.58261769D-05 -0.27532065D-05 -0.67417874D-06  0.81435509D+01
  0.10726962D+02  0.11833518D+02  0.98286630D+01  0.52192928D+01  0.13466048D+01
  0.82759926D+01  0.10901418D+02  0.12025971D+02  0.99885104D+01  0.53041762D+01
  0.13685052D+01 -0.42274031D-02 -0.55684788D-02 -0.61429037D-02 -0.51021625D-02
 -0.27093899D-02 -0.69903675D-03 -0.32227691D-03  0.31155658D-02  0.43932730D-02
  0.62835426D-02 -0.31818975D-04 -0.57626012D-02 -0.32751800D-03  0.31662333D-02
  0.44647195D-02  0.63857299D-02 -0.32336437D-04 -0.58563166D-02  0.20351661D-06
 -0.19674676D-05 -0.27743347D-05 -0.39680326D-05  0.20093558D-07  0.36390601D-05
  0.53761148D-01  0.54635485D-01 -0.28356650D-04 -0.45181065D-03 -0.45916073D-03
  0.10088057D-05 -0.40688168D-04 -0.41349778D-04  0.64970643D-07  0.90708912D-05
 -0.90463683D-05 -0.24522921D-07  0.17562579D-04 -0.68760384D-03 -0.69877141D-03
 -0.31607086D-05  0.31464555D-05  0.14253084D-07 -0.61023795D-05  0.24937868D-03
  0.25342657D-03  0.91472354D-06 -0.92300198D-06  0.82784350D-08  0.18044785D-05
 -0.42640473D-04 -0.43331371D-04  0.15117979D-05  0.16826749D-05  0.32116110D-07
  0.16295355D-05  0.11695008D-05  0.24744304D-04 -0.61649292D-05 -0.62175254D-05
 -0.24840652D-04  0.49668317D-04  0.10303867D-04  0.10429560D-04 -0.88549223D-07
  0.10303275D-04  0.10605379D-04 -0.49248286D-05 -0.41214877D-04 -0.41894058D-04
  0.51904762D-05 -0.10225604D-04  0.57293283D-06  0.10679478D-05  0.18104094D-05
  0.27412047D-05  0.34271096D-05  0.29479288D-05  0.11305942D-05 -0.48269616D-08
 -0.63899934D-07 -0.23209619D-06 -0.68850897D-06 -0.79336752D-06  0.96366302D-06
 -0.95556707D-07 -0.23097159D-05 -0.11847707D-05 -0.20393081D-03 -0.19943988D-03
 -0.13177836D-03 -0.20726966D-03 -0.20270520D-03 -0.13393590D-03 -0.74860116D-06
 -0.73211559D-06 -0.48373972D-06 -0.57828872D-05 -0.58888384D-05 -0.59466421D-06
 -0.46732928D-04 -0.47488360D-04 -0.69714122D-06 -0.13762849D-04 -0.13986757D-04
 -0.95869341D-07  0.49827229D-04 -0.50329047D-04  0.50181766D-06  0.10026967D-03
 -0.94144941D-04 -0.95585577D-04 -0.24925836D-04  0.25316860D-04 -0.39102384D-06
 -0.50275111D-04  0.71999521D-04  0.73124048D-04  0.12608827D-04 -0.12865272D-04
  0.25644542D-06  0.25475539D-04 -0.51984127D-04 -0.52800761D-04 -0.50088836D-04
 -0.50230706D-04 -0.12187693D-05 -0.49327775D-04 -0.51876663D-04 -0.13183626D-03
  0.19959428D-03  0.20256878D-03  0.13549257D-03 -0.26736322D-03  0.17765499D-04
  0.17851209D-04  0.43446841D-06  0.17537140D-04  0.18343781D-04  0.41791116D-04
 -0.70833637D-04 -0.71897408D-04 -0.43094522D-04  0.84879231D-04
MO    2     MO 0.0        OCC NO =    2.0000300  ORB. ENERGY =    0.000000
  0.11969316D-04  0.22313216D-04  0.37712375D-04  0.56688733D-04  0.69631955D-04
  0.58766913D-04  0.22097894D-04 -0.77442635D-08 -0.57883572D-07 -0.21632412D-06
 -0.60351062D-06 -0.80853785D-06  0.95473244D-06  0.32341220D-05 -0.19942960D-04
 -0.57806346D-06 -0.79664372D-04 -0.74690412D-04 -0.53184023D-04  0.78372835D-04
  0.73479514D-04  0.52321791D-04 -0.38558255D-06 -0.36150815D-06 -0.25741534D-06
 -0.26187692D-03  0.25766523D-03  0.50076491D-07 -0.33238247D-03  0.32708040D-03
  0.85553533D-06 -0.65314028D-05  0.64261551D-05  0.93493869D-08  0.46238131D-04
 -0.45116930D-04 -0.11212006D-05 -0.90911563D-04  0.36357763D-03 -0.35769232D-03
  0.13662093D-03 -0.13941315D-03  0.27922239D-05 -0.27554759D-03 -0.69292356D-04
  0.68426072D-04  0.29656882D-04 -0.28955083D-04 -0.70179858D-06 -0.58430716D-04
  0.47458934D-04 -0.46647018D-04 -0.65365879D-04  0.65331167D-04 -0.18745684D-07
 -0.69741865D-04  0.65569374D-04  0.16823276D-04  0.26583950D-03 -0.26156287D-03
 -0.16767039D-04 -0.32984927D-04  0.19874958D-04 -0.17759001D-04 -0.32133458D-07
  0.17366052D-04 -0.22533525D-04  0.35596549D-04 -0.76990924D-04  0.75810528D-04
 -0.35500149D-04 -0.71090894D-04 -0.28201827D-04 -0.50863156D-04 -0.74997694D-04
  0.27096311D-03  0.79723439D-03 -0.86921277D-05 -0.33232358D-05  0.51762658D-04
  0.17508908D-04 -0.60358885D-04  0.20574384D-03  0.19061768D-03 -0.55573954D-04
  0.12256626D-03  0.15280872D-04 -0.78146763D-04  0.30391569D-04  0.47755195D-04
 -0.23235292D-04  0.30979850D-04  0.20997969D-03 -0.31334006D-04 -0.88335861D-05
  0.40167592D-04 -0.21135206D-04 -0.43996877D-04  0.21587858D-04  0.38956551D-04
  0.70259745D-04  0.10359795D-03 -0.34888458D-03 -0.10917314D-02  0.12011467D-04
 -0.59957030D-04  0.35845189D-04 -0.23412073D-04 -0.23272773D-03  0.15647189D-03
 -0.26066570D-03 -0.13496863D-03  0.10040103D-03 -0.21591428D-04 -0.20267410D-05
  0.67098490D-04 -0.65071749D-04  0.13242816D-03 -0.25473277D-03  0.13342599D-03
  0.22098254D-04  0.31014367D-04 -0.53112621D-04  0.30008814D-04 -0.18361849D-04
  0.28565135D-04 -0.10524415D-04 -0.18981217D-04 -0.27987793D-04  0.10777268D-03
  0.29988694D-03 -0.32397119D-05 -0.18976222D-04 -0.66015728D-05  0.67695415D-05
 -0.11030044D-03  0.34530389D-04  0.71865235D-04 -0.77402374D-04  0.40732040D-04
  0.56023188D-05  0.15387831D-04 -0.33555212D-04  0.18167381D-04  0.18945499D-04
 -0.45811215D-04 -0.78255906D-04  0.67242915D-05 -0.22317388D-04  0.15593096D-04
 -0.66038706D-05 -0.36913148D-04  0.47542731D-04 -0.18706520D-04 -0.34997902D-04
 -0.60468612D-04 -0.98026725D-04 -0.14886299D-03 -0.20690555D-03 -0.24599484D-03
 -0.21914075D-03 -0.10882993D-03 -0.17520698D-04 -0.18485372D-06 -0.86873937D-07
 -0.28979691D-05 -0.10098842D-04 -0.36367566D-04 -0.80167773D-04 -0.11285035D-03
  0.53833295D-05  0.14768428D-03  0.87324791D-04 -0.34537764D-08 -0.41833666D-07
 -0.87239700D-07 -0.25018827D-06 -0.12991929D-07  0.10789332D-05  0.27877561D-05
 -0.22713324D-05  0.56769022D-05  0.27984361D-05  0.67161264D-06 -0.82759807D+01
 -0.10901403D+02 -0.12025954D+02 -0.99884960D+01 -0.53041686D+01 -0.13685032D+01
  0.81435379D+01  0.10726944D+02  0.11833499D+02  0.98286473D+01  0.52192845D+01
  0.13466027D+01 -0.28721777D-02 -0.37833299D-02 -0.41736051D-02 -0.34665058D-02
 -0.18408108D-02 -0.47493880D-03  0.32756916D-03 -0.31667278D-02 -0.44654168D-02
 -0.63867273D-02  0.32341488D-04  0.58572313D-02 -0.32232678D-03  0.31160479D-02
  0.43939528D-02  0.62845149D-02 -0.31823899D-04 -0.57634929D-02  0.76972518D-07
 -0.74412077D-06 -0.10492880D-05 -0.15007594D-05  0.75996342D-08  0.13763379D-05
 -0.54638878D-01  0.53764475D-01 -0.18506715D-04  0.45826415D-03 -0.45093320D-03
 -0.61482274D-06  0.41274826D-04 -0.40614222D-04 -0.29706786D-07  0.84620438D-05
 -0.90902534D-05  0.62820964D-06 -0.16922778D-04  0.69977111D-03 -0.68855720D-03
 -0.29887140D-05  0.32233115D-05 -0.23459754D-06  0.59803242D-05 -0.25455949D-03
  0.25047773D-03  0.86758541D-06 -0.89487808D-06  0.27292669D-07 -0.17213696D-05
  0.43737408D-04 -0.43034937D-04 -0.18248280D-05  0.16235944D-05 -0.29136604D-07
 -0.17410609D-05  0.21827649D-05  0.24716869D-04  0.72155449D-05 -0.70535481D-05
 -0.24629460D-04 -0.49220431D-04 -0.10450925D-04  0.10331004D-04  0.12603943D-06
 -0.10445559D-04  0.10144499D-04 -0.51782499D-05  0.41798335D-04 -0.41137510D-04
  0.48001316D-05  0.10046335D-04 -0.61511885D-06 -0.11465826D-05 -0.19437129D-05
 -0.29430443D-05 -0.36794536D-05 -0.31649899D-05 -0.12138417D-05  0.49689945D-08
  0.65780184D-07  0.23892560D-06  0.70876828D-06  0.81671228D-06 -0.99201872D-06
  0.96323632D-07  0.23588941D-05  0.12197386D-05  0.20772035D-03  0.20314597D-03
  0.13422713D-03 -0.20441695D-03 -0.19991531D-03 -0.13209250D-03  0.96852332D-06
  0.94719466D-06  0.62585156D-06  0.63551834D-05 -0.62646376D-05  0.59842897D-06
  0.47712891D-04 -0.46944097D-04  0.76820383D-06  0.13890562D-04 -0.13668236D-04
  0.11251389D-06  0.50382137D-04 -0.49941813D-04 -0.44032395D-06 -0.10001791D-03
  0.92882417D-04 -0.91308143D-04 -0.25341080D-04  0.25003829D-04  0.33725072D-06
  0.50166770D-04 -0.71957049D-04  0.70760722D-04  0.12832290D-04 -0.12622993D-04
 -0.20929747D-06 -0.25349613D-04  0.52796739D-04 -0.51924122D-04  0.51001049D-04
 -0.50715018D-04  0.10400390D-05  0.52012592D-04 -0.49330337D-04 -0.13449137D-03
 -0.20501574D-03  0.20147539D-03  0.13137125D-03  0.26476754D-03 -0.18139364D-04
  0.18006113D-04 -0.36970271D-06 -0.18446583D-04  0.17596188D-04  0.42748651D-04
  0.72864674D-04 -0.71614528D-04 -0.41639542D-04 -0.84022864D-04
MO    3     MO 0.0        OCC NO =    2.0000210  ORB. ENERGY =    0.000000
 -0.14454470D-01 -0.26946045D-01 -0.45542487D-01 -0.68458852D-01 -0.84089438D-01
 -0.70968519D-01 -0.26686017D-01 -0.38141758D-05 -0.28508601D-04 -0.10654315D-03
 -0.29723880D-03 -0.39821804D-03  0.47022126D-03 -0.87197380D-03 -0.19343183D-02
 -0.82064281D-04 -0.10016744D-06 -0.93913339D-07 -0.66871892D-07  0.53444039D-06
  0.50107184D-06  0.35679300D-06  0.11672656D-02  0.10943857D-02  0.77926778D-03
 -0.16292103D-05  0.19297245D-06  0.60720199D-03 -0.40484884D-05 -0.21114730D-06
 -0.37924891D-03  0.74173672D-07  0.98991009D-09  0.46678711D-05 -0.10557177D-03
 -0.10556361D-03  0.21113538D-03  0.44266987D-06 -0.43720334D-06  0.27727417D-06
 -0.24092995D-04 -0.24039295D-04  0.48132290D-04  0.55029151D-06  0.11998420D-05
  0.75881215D-07  0.11425760D-04  0.11431360D-04 -0.22857120D-04 -0.68017973D-06
 -0.54622221D-06 -0.28332293D-07  0.20548830D-06  0.36267490D-04  0.77244427D-05
 -0.11183780D-05 -0.10883506D-03 -0.11531112D-04  0.50191306D-06  0.32585637D-07
 -0.11642216D-04 -0.56360762D-06  0.56090702D-06  0.51873113D-04 -0.85674505D-04
 -0.13293937D-05 -0.15539199D-03  0.12857949D-03 -0.35332740D-06 -0.22735473D-06
  0.12844402D-03  0.75752507D-07 -0.48377547D-05 -0.87250899D-05 -0.12865140D-04
  0.75258343D-03  0.23579465D-03  0.50609651D-05  0.36368251D-06  0.95843689D-04
  0.28411319D-04 -0.65252690D-05  0.19927589D-03 -0.42631062D-05 -0.15136449D-05
  0.44014617D-04  0.38737296D-04 -0.73888137D-04  0.54224345D-04  0.19663793D-04
 -0.40134321D-05 -0.23406395D-05  0.75977197D-04 -0.96429073D-05 -0.12049126D-04
  0.21692034D-04 -0.58047521D-06  0.35666068D-06 -0.34557946D-04 -0.47229328D-05
 -0.85180039D-05 -0.12559792D-04  0.75072004D-03  0.22901862D-03  0.51657808D-05
  0.83049375D-04 -0.47223943D-04  0.28612841D-04  0.17097650D-03 -0.10144213D-03
 -0.40117700D-05  0.36991475D-04 -0.21990731D-04  0.38085236D-04  0.21743869D-04
 -0.41524625D-04  0.19780756D-04 -0.11120075D-03  0.65597242D-04 -0.38748233D-04
 -0.11529531D-04 -0.10042424D-04  0.21571956D-04  0.19169767D-05 -0.29807243D-04
  0.17258375D-04 -0.49336478D-05 -0.88980370D-05 -0.13120150D-04  0.75473844D-03
  0.24292266D-03  0.49651148D-05 -0.82971892D-04 -0.48608192D-04  0.28374428D-04
 -0.17430701D-03 -0.97927027D-04 -0.42633230D-05 -0.39257452D-04 -0.22013757D-04
  0.39443414D-04  0.22618849D-04 -0.42289604D-04  0.19670755D-04  0.11068794D-03
 -0.66194347D-04 -0.37187641D-04 -0.11339457D-04 -0.10433212D-04  0.21772670D-04
 -0.21587931D-05  0.30110802D-04  0.17386816D-04 -0.15460192D+00 -0.28924370D+00
 -0.49974896D+00 -0.81015179D+00 -0.12302932D+01 -0.17099918D+01 -0.20330493D+01
 -0.18111109D+01 -0.89943599D+00 -0.14480158D+00 -0.15277422D-02 -0.72283892D-03
 -0.24112696D-01 -0.84027919D-01 -0.30259814D+00 -0.66703995D+00 -0.93897696D+00
  0.44792261D-01  0.12288144D+01  0.72659027D+00 -0.15531679D-04 -0.18812656D-03
 -0.39231811D-03 -0.11251000D-02 -0.58424879D-04  0.48519770D-02  0.12536577D-01
 -0.10214213D-01  0.46599840D-01 -0.38426150D-03 -0.13194749D-03  0.19183578D-02
  0.25269260D-02  0.27875950D-02  0.23153159D-02  0.12294970D-02  0.31721665D-03
  0.26044887D-02  0.34307208D-02  0.37846221D-02  0.31434250D-02  0.16692459D-02
  0.43067417D-03  0.59414629D+01  0.78262966D+01  0.86336302D+01  0.71709059D+01
  0.38079500D+01  0.98247101D+00 -0.55284000D-07  0.53445014D-06  0.75363048D-06
  0.10778910D-05 -0.54582881D-08 -0.98852767D-06 -0.92372719D-07  0.89300001D-06
  0.12592232D-05  0.18010223D-05 -0.91201236D-08 -0.16517073D-05 -0.21080006D-03
  0.20378793D-02  0.28736226D-02  0.41100404D-02 -0.20812666D-04 -0.37692947D-02
  0.12764898D-04  0.18251355D-04  0.41654487D-01  0.13335977D-06 -0.21118765D-06
 -0.48397002D-03 -0.45840408D-07 -0.43360385D-08 -0.98426081D-05 -0.71249708D-05
 -0.71291215D-05  0.14254092D-04 -0.15563481D-06  0.71117289D-06  0.18958002D-07
 -0.11142692D-03 -0.11142612D-03  0.22285304D-03  0.57145150D-07 -0.38439885D-06
  0.28884733D-06 -0.14325497D-04 -0.14325059D-04  0.28650555D-04  0.55091292D-07
 -0.36689196D-07  0.36694328D-07 -0.54755148D-07 -0.72119433D-05  0.54414688D-05
  0.20843782D-06  0.21622732D-04 -0.81767129D-05 -0.44172372D-07  0.13098450D-07
 -0.81476936D-05  0.66675842D-06 -0.35111433D-08  0.20724677D-05 -0.33741412D-04
 -0.78410804D-07 -0.61307763D-05  0.50616670D-04  0.88944234D-07 -0.86626819D-07
  0.50607565D-04 -0.26264498D-06 -0.87947552D-03 -0.16393439D-02 -0.27790531D-02
 -0.42078622D-02 -0.52607546D-02 -0.45251923D-02 -0.17355087D-02 -0.68426570D-06
 -0.90583966D-05 -0.32901745D-04 -0.97602405D-04 -0.11246706D-03  0.13660799D-03
 -0.95966764D-04 -0.15941592D-03  0.12430471D-04  0.10488962D-05  0.10257976D-05
  0.67778786D-06  0.17847006D-05  0.17453982D-05  0.11532584D-05  0.39019056D-02
  0.38159784D-02  0.25213783D-02  0.80305561D-06  0.40312684D-06  0.87919877D-03
 -0.18076172D-06  0.95896861D-08  0.21376218D-04 -0.43423683D-07  0.42572877D-08
  0.93392755D-05 -0.35646262D-04 -0.35641794D-04  0.71288055D-04  0.37795691D-06
 -0.10540880D-05  0.97598700D-07  0.21097352D-04  0.21094857D-04 -0.42192208D-04
 -0.18303092D-06  0.47494265D-06 -0.56695466D-07  0.18118274D-04  0.18119576D-04
 -0.36237850D-04  0.10047360D-06 -0.96926324D-07 -0.50787688D-07  0.24220542D-06
 -0.30030550D-05  0.46414701D-04  0.34946575D-06  0.88683991D-05 -0.69614342D-04
 -0.10760820D-05  0.14076587D-06 -0.69629761D-04 -0.16697662D-05 -0.88436722D-07
  0.95390781D-06 -0.25392738D-04 -0.12226313D-06 -0.27876969D-05  0.38086919D-04
  0.38757329D-06 -0.74026537D-07  0.38091296D-04  0.49352572D-06
MO    4     MO 0.0        OCC NO =    2.0000123  ORB. ENERGY =    0.000000
  0.26822262D-01  0.50002100D-01  0.84510362D-01  0.12703484D+00  0.15603954D+00
  0.13169187D+00  0.49519582D-01 -0.14576312D-05 -0.10894890D-04 -0.40716692D-04
 -0.11359323D-03 -0.15218361D-03  0.17970047D-03  0.26459603D-02 -0.36106747D-02
 -0.42275947D-04  0.14181654D-06  0.13296202D-06  0.94676879D-07  0.15668210D-05
  0.14689942D-05  0.10460114D-05  0.36696850D-02  0.34405630D-02  0.24498858D-02
  0.19958340D-06  0.47477590D-06  0.13052664D-02 -0.46392830D-05 -0.26383090D-06
 -0.41708328D-03  0.72022658D-07  0.93050002D-09  0.37026669D-05 -0.31920008D-03
 -0.31921680D-03  0.63841688D-03 -0.35607444D-06 -0.71885133D-06  0.83510785D-06
  0.95655197D-05  0.96710568D-05 -0.19236576D-04  0.49080449D-05  0.15132895D-05
 -0.81223707D-08 -0.17872017D-04 -0.17849191D-04  0.35721209D-04  0.42985223D-06
 -0.59050130D-06  0.46532056D-07 -0.43870853D-06 -0.42193987D-04  0.22571172D-04
  0.10995187D-05  0.12651970D-03 -0.33906550D-04  0.21660690D-06  0.62258165D-07
 -0.33806965D-04 -0.47844935D-06  0.94416864D-06  0.82067943D-04 -0.16374465D-03
 -0.20462373D-05 -0.24577080D-03  0.24573136D-03 -0.78626860D-06 -0.43302686D-06
  0.24550260D-03 -0.13226885D-05 -0.90316758D-04 -0.16288999D-03 -0.24018120D-03
  0.10227948D-02  0.68406045D-03  0.42654112D-05  0.26977087D-05 -0.57754937D-04
  0.33529174D-04 -0.78020512D-05  0.30459315D-03 -0.43258886D-04 -0.11845897D-05
  0.11102191D-03  0.75808732D-04 -0.14236988D-03  0.24253413D-04  0.11811646D-03
 -0.20879120D-05 -0.37701896D-05  0.14260215D-03 -0.14779430D-04 -0.21042942D-04
  0.35822372D-04 -0.22657113D-06  0.19742745D-06 -0.62800469D-04 -0.90346071D-04
 -0.16294286D-03 -0.24025915D-03  0.10235061D-02  0.68068562D-03  0.43486122D-05
 -0.49688480D-04  0.29954835D-04  0.33934549D-04  0.26319917D-03 -0.15490795D-03
 -0.43419841D-04  0.95406229D-04 -0.55171507D-04  0.75202108D-04 -0.17305159D-04
 -0.10089106D-03  0.11819622D-03 -0.14374144D-03  0.12315322D-03 -0.72304028D-04
 -0.19424331D-04 -0.16203754D-04  0.35628085D-04  0.51758734D-05 -0.54342299D-04
  0.31202729D-04 -0.90286045D-04 -0.16283460D-03 -0.24009952D-03  0.10224774D-02
  0.68805388D-03  0.41906349D-05  0.50346654D-04  0.27827484D-04  0.33116188D-04
 -0.26451901D-03 -0.14986644D-03 -0.42711559D-04 -0.96883234D-04 -0.55824341D-04
  0.76574744D-04 -0.17585031D-04 -0.10065408D-03  0.11823911D-03  0.14474949D-03
 -0.12393309D-03 -0.69900124D-04 -0.19492014D-04 -0.16451832D-04  0.35943845D-04
 -0.55432684D-05  0.54527593D-04  0.31744140D-04  0.91314922D-01  0.17084048D+00
  0.29517445D+00  0.47851246D+00  0.72666709D+00  0.10099989D+01  0.12008113D+01
  0.10697244D+01  0.53124777D+00  0.85526396D-01  0.90235400D-03  0.42753519D-03
  0.14261858D-01  0.49699720D-01  0.17897674D+00  0.39453195D+00  0.55537365D+00
 -0.26493133D-01 -0.72680287D+00 -0.42975399D+00  0.62780577D-05  0.76042610D-04
  0.15857885D-03  0.45477652D-03  0.23615912D-04 -0.19612169D-02 -0.50674079D-02
  0.41286854D-02 -0.28545462D-01  0.14182921D-02 -0.18171899D-03 -0.36690586D-04
 -0.48330085D-04 -0.53315649D-04 -0.44282821D-04 -0.23515407D-04 -0.60670979D-05
  0.42747828D-02  0.56308890D-02  0.62117520D-02  0.51593464D-02  0.27397561D-02
  0.70687140D-03  0.99146160D+01  0.13059869D+02  0.14407079D+02  0.11966207D+02
  0.63543882D+01  0.16394654D+01  0.21411507D-07 -0.20699267D-06 -0.29188128D-06
 -0.41746744D-06  0.21139963D-08  0.38285702D-06 -0.14515182D-06  0.14032344D-05
  0.19787070D-05  0.28300745D-05 -0.14331099D-07 -0.25954452D-05 -0.33686867D-03
  0.32566296D-02  0.45921877D-02  0.65680431D-02 -0.33259646D-04 -0.60235150D-02
 -0.80720240D-06  0.31282885D-04  0.72557191D-01  0.24865300D-06 -0.13276371D-06
 -0.30643217D-03 -0.47500433D-07 -0.18322676D-08 -0.39579849D-05  0.45444445D-03
  0.45444286D-03 -0.90888731D-03  0.75220370D-07  0.11031477D-05 -0.11709496D-05
 -0.30967349D-03 -0.30967292D-03  0.61934641D-03  0.49213516D-07 -0.65469654D-06
  0.79957361D-06  0.43303135D-05  0.43305636D-05 -0.86608770D-05  0.32231638D-07
 -0.21104460D-07 -0.11175243D-07 -0.12095076D-06 -0.14491269D-04 -0.46953852D-04
  0.40908577D-06  0.43597369D-04  0.70405105D-04 -0.46233476D-07 -0.12356277D-06
  0.70456450D-04  0.88767744D-06  0.21307663D-08  0.42120624D-05 -0.62584375D-04
 -0.15018609D-06 -0.12475103D-04  0.93884775D-04  0.14379380D-06 -0.16108422D-06
  0.93868349D-04 -0.40155579D-06 -0.63569044D-02 -0.11849281D-01 -0.20087171D-01