 clch3f_ts-wavefunction
GAUSSIAN            211 MOL ORBITALS    339 PRIMITIVES        6 NUCLEI
  C    1    (CENTRE  1)   0.01922796  0.00005480 -0.94053370  CHARGE =  6.0
  H    2    (CENTRE  2)   0.00003590 -1.98906904 -1.17300214  CHARGE =  1.0
  H    3    (CENTRE  3)  -1.72213010  0.99468570 -1.17398291  CHARGE =  1.0
  H    4    (CENTRE  4)   1.72295780  0.99424539 -1.17459707  CHARGE =  1.0
  Cl   5    (CENTRE  5)   0.00104880  0.00181792  3.10806659  CHARGE = 17.0
  F    6    (CENTRE  6)  -0.00035149 -0.00174044 -4.90094425  CHARGE =  9.0
CENTRE ASSIGNMENTS    1  1  1  1  1  1  1  1  1  1  1  1  1  1  1  1  1  1  1  1
CENTRE ASSIGNMENTS    1  1  1  1  1  1  1  1  1  1  1  1  1  1  1  1  1  1  1  1
CENTRE ASSIGNMENTS    1  1  1  1  1  1  1  1  1  1  1  1  1  1  1  1  1  1  1  1
CENTRE ASSIGNMENTS    1  1  1  1  1  1  1  1  1  1  1  1  2  2  2  2  2  2  2  2
CENTRE ASSIGNMENTS    2  2  2  2  2  2  2  2  2  2  2  2  2  2  2  2  2  2  2  3
CENTRE ASSIGNMENTS    3  3  3  3  3  3  3  3  3  3  3  3  3  3  3  3  3  3  3  3
CENTRE ASSIGNMENTS    3  3  3  3  3  3  4  4  4  4  4  4  4  4  4  4  4  4  4  4
CENTRE ASSIGNMENTS    4  4  4  4  4  4  4  4  4  4  4  4  4  5  5  5  5  5  5  5
CENTRE ASSIGNMENTS    5  5  5  5  5  5  5  5  5  5  5  5  5  5  5  5  5  5  5  5
CENTRE ASSIGNMENTS    5  5  5  5  5  5  5  5  5  5  5  5  5  5  5  5  5  5  5  5
CENTRE ASSIGNMENTS    5  5  5  5  5  5  5  5  5  5  5  5  5  5  5  5  5  5  5  5
CENTRE ASSIGNMENTS    5  5  5  5  5  5  5  5  5  5  5  5  5  5  5  5  5  5  5  5
CENTRE ASSIGNMENTS    5  5  5  5  5  5  5  5  5  5  5  5  5  5  5  5  5  5  5  5
CENTRE ASSIGNMENTS    5  5  5  5  5  5  5  6  6  6  6  6  6  6  6  6  6  6  6  6
CENTRE ASSIGNMENTS    6  6  6  6  6  6  6  6  6  6  6  6  6  6  6  6  6  6  6  6
CENTRE ASSIGNMENTS    6  6  6  6  6  6  6  6  6  6  6  6  6  6  6  6  6  6  6  6
CENTRE ASSIGNMENTS    6  6  6  6  6  6  6  6  6  6  6  6  6  6  6  6  6  6  6
TYPE ASSIGNMENTS      1  1  1  1  1  1  1  1  1  1  1  1  1  1  1  1  2  2  2  3
TYPE ASSIGNMENTS      3  3  4  4  4  2  3  4  2  3  4  2  3  4  5  6  7  8  9 10
TYPE ASSIGNMENTS      5  6  7  8  9 10  5  6  7  8  9 10 11 12 13 17 14 15 18 19
TYPE ASSIGNMENTS     16 20 11 12 13 17 14 15 18 19 16 20  1  1  1  1  1  1  2  3
TYPE ASSIGNMENTS      4  2  3  4  2  3  4  5  6  7  8  9 10  5  6  7  8  9 10  1
TYPE ASSIGNMENTS      1  1  1  1  1  2  3  4  2  3  4  2  3  4  5  6  7  8  9 10
TYPE ASSIGNMENTS      5  6  7  8  9 10  1  1  1  1  1  1  2  3  4  2  3  4  2  3
TYPE ASSIGNMENTS      4  5  6  7  8  9 10  5  6  7  8  9 10  1  1  1  1  1  1  1
TYPE ASSIGNMENTS      1  1  1  1  1  1  1  1  1  1  1  1  1  1  1  1  1  1  1  1
TYPE ASSIGNMENTS      1  1  1  1  2  2  2  2  2  2  3  3  3  3  3  3  4  4  4  4
TYPE ASSIGNMENTS      4  4  2  2  2  2  2  2  3  3  3  3  3  3  4  4  4  4  4  4
TYPE ASSIGNMENTS      2  3  4  2  3  4  2  3  4  5  6  7  8  9 10  5  6  7  8  9
TYPE ASSIGNMENTS     10  5  6  7  8  9 10 11 12 13 17 14 15 18 19 16 20 11 12 13
TYPE ASSIGNMENTS     17 14 15 18 19 16 20  1  1  1  1  1  1  1  1  1  1  1  1  1
TYPE ASSIGNMENTS      1  1  1  2  2  2  3  3  3  4  4  4  2  3  4  2  3  4  2  3
TYPE ASSIGNMENTS      4  5  6  7  8  9 10  5  6  7  8  9 10  5  6  7  8  9 10 11
TYPE ASSIGNMENTS     12 13 17 14 15 18 19 16 20 11 12 13 17 14 15 18 19 16 20
EXPONENTS  0.8236000D+04 0.1235000D+04 0.2808000D+03 0.7927000D+02 0.2559000D+02
EXPONENTS  0.8997000D+01 0.3319000D+01 0.2808000D+03 0.7927000D+02 0.2559000D+02
EXPONENTS  0.8997000D+01 0.3319000D+01 0.3643000D+00 0.9059000D+00 0.1285000D+00
EXPONENTS  0.4402000D-01 0.1871000D+02 0.4133000D+01 0.1200000D+01 0.1871000D+02
EXPONENTS  0.4133000D+01 0.1200000D+01 0.1871000D+02 0.4133000D+01 0.1200000D+01
EXPONENTS  0.3827000D+00 0.3827000D+00 0.3827000D+00 0.1209000D+00 0.1209000D+00
EXPONENTS  0.1209000D+00 0.3569000D-01 0.3569000D-01 0.3569000D-01 0.1097000D+01
EXPONENTS  0.1097000D+01 0.1097000D+01 0.1097000D+01 0.1097000D+01 0.1097000D+01
EXPONENTS  0.3180000D+00 0.3180000D+00 0.3180000D+00 0.3180000D+00 0.3180000D+00
EXPONENTS  0.3180000D+00 0.1000000D+00 0.1000000D+00 0.1000000D+00 0.1000000D+00
EXPONENTS  0.1000000D+00 0.1000000D+00 0.7610000D+00 0.7610000D+00 0.7610000D+00
EXPONENTS  0.7610000D+00 0.7610000D+00 0.7610000D+00 0.7610000D+00 0.7610000D+00
EXPONENTS  0.7610000D+00 0.7610000D+00 0.2680000D+00 0.2680000D+00 0.2680000D+00
EXPONENTS  0.2680000D+00 0.2680000D+00 0.2680000D+00 0.2680000D+00 0.2680000D+00
EXPONENTS  0.2680000D+00 0.2680000D+00 0.3387000D+02 0.5095000D+01 0.1159000D+01
EXPONENTS  0.3258000D+00 0.1027000D+00 0.2526000D-01 0.1407000D+01 0.1407000D+01
EXPONENTS  0.1407000D+01 0.3880000D+00 0.3880000D+00 0.3880000D+00 0.1020000D+00
EXPONENTS  0.1020000D+00 0.1020000D+00 0.1057000D+01 0.1057000D+01 0.1057000D+01
EXPONENTS  0.1057000D+01 0.1057000D+01 0.1057000D+01 0.2470000D+00 0.2470000D+00
EXPONENTS  0.2470000D+00 0.2470000D+00 0.2470000D+00 0.2470000D+00 0.3387000D+02
EXPONENTS  0.5095000D+01 0.1159000D+01 0.3258000D+00 0.1027000D+00 0.2526000D-01
EXPONENTS  0.1407000D+01 0.1407000D+01 0.1407000D+01 0.3880000D+00 0.3880000D+00
EXPONENTS  0.3880000D+00 0.1020000D+00 0.1020000D+00 0.1020000D+00 0.1057000D+01
EXPONENTS  0.1057000D+01 0.1057000D+01 0.1057000D+01 0.1057000D+01 0.1057000D+01
EXPONENTS  0.2470000D+00 0.2470000D+00 0.2470000D+00 0.2470000D+00 0.2470000D+00
EXPONENTS  0.2470000D+00 0.3387000D+02 0.5095000D+01 0.1159000D+01 0.3258000D+00
EXPONENTS  0.1027000D+00 0.2526000D-01 0.1407000D+01 0.1407000D+01 0.1407000D+01
EXPONENTS  0.3880000D+00 0.3880000D+00 0.3880000D+00 0.1020000D+00 0.1020000D+00
EXPONENTS  0.1020000D+00 0.1057000D+01 0.1057000D+01 0.1057000D+01 0.1057000D+01
EXPONENTS  0.1057000D+01 0.1057000D+01 0.2470000D+00 0.2470000D+00 0.2470000D+00
EXPONENTS  0.2470000D+00 0.2470000D+00 0.2470000D+00 0.4561000D+06 0.6833000D+05
EXPONENTS  0.1555000D+05 0.4405000D+04 0.1439000D+04 0.5204000D+03 0.2031000D+03
EXPONENTS  0.8396000D+02 0.3620000D+02 0.1583000D+02 0.6334000D+01 0.4405000D+04
EXPONENTS  0.1439000D+04 0.5204000D+03 0.2031000D+03 0.8396000D+02 0.3620000D+02
EXPONENTS  0.1583000D+02 0.6334000D+01 0.2694000D+01 0.1439000D+04 0.2031000D+03
EXPONENTS  0.8396000D+02 0.3620000D+02 0.1583000D+02 0.6334000D+01 0.2694000D+01
EXPONENTS  0.4313000D+00 0.9768000D+00 0.1625000D+00 0.5910000D-01 0.6633000D+03
EXPONENTS  0.1568000D+03 0.4998000D+02 0.1842000D+02 0.7240000D+01 0.2922000D+01
EXPONENTS  0.6633000D+03 0.1568000D+03 0.4998000D+02 0.1842000D+02 0.7240000D+01
EXPONENTS  0.2922000D+01 0.6633000D+03 0.1568000D+03 0.4998000D+02 0.1842000D+02
EXPONENTS  0.7240000D+01 0.2922000D+01 0.1568000D+03 0.4998000D+02 0.1842000D+02
EXPONENTS  0.7240000D+01 0.2922000D+01 0.3818000D+00 0.1568000D+03 0.4998000D+02
EXPONENTS  0.1842000D+02 0.7240000D+01 0.2922000D+01 0.3818000D+00 0.1568000D+03
EXPONENTS  0.4998000D+02 0.1842000D+02 0.7240000D+01 0.2922000D+01 0.3818000D+00
EXPONENTS  0.1022000D+01 0.1022000D+01 0.1022000D+01 0.1301000D+00 0.1301000D+00
EXPONENTS  0.1301000D+00 0.4190000D-01 0.4190000D-01 0.4190000D-01 0.1046000D+01
EXPONENTS  0.1046000D+01 0.1046000D+01 0.1046000D+01 0.1046000D+01 0.1046000D+01
EXPONENTS  0.3440000D+00 0.3440000D+00 0.3440000D+00 0.3440000D+00 0.3440000D+00
EXPONENTS  0.3440000D+00 0.1350000D+00 0.1350000D+00 0.1350000D+00 0.1350000D+00
EXPONENTS  0.1350000D+00 0.1350000D+00 0.7060000D+00 0.7060000D+00 0.7060000D+00
EXPONENTS  0.7060000D+00 0.7060000D+00 0.7060000D+00 0.7060000D+00 0.7060000D+00
EXPONENTS  0.7060000D+00 0.7060000D+00 0.3120000D+00 0.3120000D+00 0.3120000D+00
EXPONENTS  0.3120000D+00 0.3120000D+00 0.3120000D+00 0.3120000D+00 0.3120000D+00
EXPONENTS  0.3120000D+00 0.3120000D+00 0.1950000D+05 0.2923000D+04 0.6645000D+03
EXPONENTS  0.1875000D+03 0.6062000D+02 0.2142000D+02 0.7950000D+01 0.6645000D+03
EXPONENTS  0.1875000D+03 0.6062000D+02 0.2142000D+02 0.7950000D+01 0.8815000D+00
EXPONENTS  0.2257000D+01 0.3041000D+00 0.9158000D-01 0.4388000D+02 0.9926000D+01
EXPONENTS  0.2930000D+01 0.4388000D+02 0.9926000D+01 0.2930000D+01 0.4388000D+02
EXPONENTS  0.9926000D+01 0.2930000D+01 0.9132000D+00 0.9132000D+00 0.9132000D+00
EXPONENTS  0.2672000D+00 0.2672000D+00 0.2672000D+00 0.7361000D-01 0.7361000D-01
EXPONENTS  0.7361000D-01 0.3107000D+01 0.3107000D+01 0.3107000D+01 0.3107000D+01
EXPONENTS  0.3107000D+01 0.3107000D+01 0.8550000D+00 0.8550000D+00 0.8550000D+00
EXPONENTS  0.8550000D+00 0.8550000D+00 0.8550000D+00 0.2920000D+00 0.2920000D+00
EXPONENTS  0.2920000D+00 0.2920000D+00 0.2920000D+00 0.2920000D+00 0.1917000D+01
EXPONENTS  0.1917000D+01 0.1917000D+01 0.1917000D+01 0.1917000D+01 0.1917000D+01
EXPONENTS  0.1917000D+01 0.1917000D+01 0.1917000D+01 0.1917000D+01 0.7240000D+00
EXPONENTS  0.7240000D+00 0.7240000D+00 0.7240000D+00 0.7240000D+00 0.7240000D+00
EXPONENTS  0.7240000D+00 0.7240000D+00 0.7240000D+00 0.7240000D+00
MO    1     MO 0.0        OCC NO =    2.0000300  ORB. ENERGY =    0.000000
  0.36344732D-04  0.67753903D-04  0.11451333D-03  0.17213489D-03  0.21143688D-03
  0.17844527D-03  0.67100081D-04 -0.50073708D-07 -0.37426995D-06 -0.13987322D-05
 -0.39022452D-05 -0.52279327D-05  0.61732137D-05  0.11909499D-04 -0.29283074D-04
 -0.39435164D-05  0.77811819D-04  0.72953526D-04  0.51947257D-04 -0.77216941D-04
 -0.72395790D-04 -0.51550115D-04  0.69762861D-05  0.65407117D-05  0.46573764D-05
  0.24428165D-03 -0.24311655D-03  0.47702371D-05  0.32170431D-03 -0.31987692D-03
  0.18729794D-06  0.67410008D-05 -0.67047049D-05  0.38907651D-07 -0.41567075D-04
  0.44009692D-04 -0.24426164D-05  0.85951552D-04 -0.36278989D-03  0.36065538D-03
 -0.13808967D-03  0.13218248D-03  0.59071899D-05  0.27199710D-03  0.69937460D-04
 -0.69805430D-04 -0.27724571D-04  0.29734711D-04 -0.20101403D-05  0.57761617D-04
 -0.45950507D-04  0.45601738D-04  0.65764143D-04 -0.64147040D-04 -0.24587374D-05
  0.62061322D-04 -0.65309053D-04 -0.13097363D-04 -0.25935375D-03  0.25775017D-03
  0.20473575D-04  0.33400443D-04 -0.18113717D-04  0.21000283D-04  0.27355549D-06
 -0.20057858D-04  0.10982832D-04 -0.37396420D-04  0.74399008D-04 -0.73983682D-04
  0.36575754D-04  0.74483881D-04  0.27973512D-04  0.50451381D-04  0.74390531D-04
 -0.22844644D-03 -0.77798597D-03  0.85927347D-05  0.37469182D-05 -0.47469126D-04
 -0.15392632D-04  0.57314312D-04 -0.19326609D-03 -0.19193073D-03  0.51249719D-04
 -0.11830857D-03 -0.16151732D-04  0.75315582D-04 -0.27626444D-04 -0.47689138D-04
  0.20303474D-04 -0.34997013D-04 -0.21022134D-03  0.28973811D-04  0.80006990D-05
 -0.36974510D-04  0.19793601D-04  0.43471820D-04 -0.22059733D-04 -0.38683785D-04
 -0.69767800D-04 -0.10287258D-03  0.35918684D-03  0.10643414D-02 -0.11426577D-04
  0.56907372D-04 -0.34662064D-04  0.20673767D-04  0.22819451D-03 -0.15500403D-03
  0.26569229D-03  0.13409684D-03 -0.98059534D-04  0.23101244D-04  0.41630223D-06
 -0.66610200D-04  0.66193898D-04 -0.13081901D-03  0.25494111D-03 -0.13169437D-03
 -0.22644732D-04 -0.31818130D-04  0.54462862D-04 -0.29864027D-04  0.18518396D-04
 -0.28310159D-04  0.10330740D-04  0.18631915D-04  0.27472748D-04 -0.72426258D-04
 -0.28921005D-03  0.33002306D-05  0.17108021D-04  0.46579267D-05 -0.59697381D-05
  0.99031873D-04 -0.33243215D-04 -0.70471124D-04  0.73430265D-04 -0.41050404D-04
 -0.57607258D-05 -0.11825983D-04  0.29463119D-04 -0.17637137D-04 -0.18517568D-04
  0.45485077D-04  0.78149435D-04 -0.73134107D-05  0.20016442D-04 -0.12703031D-04
  0.74049769D-05  0.37422622D-04 -0.48514587D-04  0.95144517D-04  0.17800524D-03
  0.30755357D-03  0.49858047D-03  0.75714229D-03  0.10523566D-02  0.12511713D-02
  0.11145869D-02  0.55352741D-03  0.89113230D-04  0.94019722D-06  0.45026347D-06
  0.15020036D-04  0.52341817D-04  0.18849136D-03  0.41550574D-03  0.58489798D-03
 -0.27901540D-04 -0.76544058D-03 -0.45260022D-03  0.34742683D-08  0.42081874D-07
  0.87757311D-07  0.25167269D-06  0.13069012D-07 -0.10853347D-05 -0.28042964D-05
  0.22848087D-05 -0.27631078D-04  0.12188028D-04  0.14949781D-05  0.82345802D+01
  0.10846868D+02  0.11965794D+02  0.99385287D+01  0.52776345D+01  0.13616573D+01
 -0.81851810D+01 -0.10781798D+02 -0.11894011D+02 -0.98789075D+01 -0.52459740D+01
 -0.13534887D+01  0.66638934D-01  0.87779066D-01  0.96834050D-01  0.80428260D-01
  0.42709638D-01  0.11019310D-01 -0.32589473D-03  0.31505405D-02  0.44425910D-02
  0.63540804D-02 -0.32176169D-04 -0.58272910D-02  0.32393640D-03 -0.31316087D-02
 -0.44158951D-02 -0.63158982D-02  0.31982819D-04  0.57922743D-02 -0.28108383D-05
  0.27173376D-04  0.38317296D-04  0.54803870D-04 -0.27751908D-06 -0.50260318D-04
  0.54359006D-01 -0.54032847D-01  0.44471356D-03 -0.45736720D-03  0.45469437D-03
 -0.62935013D-05 -0.41175031D-04  0.40930442D-04 -0.39992405D-06 -0.35270596D-05
  0.99440873D-05 -0.64170277D-05  0.13018027D-04 -0.69535415D-03  0.69119133D-03
  0.14766676D-05 -0.38285520D-05  0.23518844D-05 -0.51290033D-05  0.25157562D-03
 -0.25004904D-03 -0.78125330D-06  0.99012806D-06 -0.20887477D-06  0.17489368D-05
 -0.43046802D-04  0.42756246D-04  0.15912023D-05 -0.19716625D-05  0.14781688D-07
  0.17351002D-05 -0.45226751D-06 -0.25287173D-04 -0.65087072D-05  0.63672550D-05
  0.25242828D-04  0.50835495D-04  0.10378555D-04 -0.10178076D-04 -0.17577053D-06
  0.10323327D-04 -0.10705209D-04  0.56343574D-05 -0.41458992D-04  0.41239436D-04
 -0.51070458D-05 -0.10899816D-04 -0.12883692D-04 -0.24015225D-04 -0.40711156D-04
 -0.61642196D-04 -0.77066321D-04 -0.66290856D-04 -0.25423970D-04  0.18033550D-07
  0.23873044D-06  0.86711238D-06  0.25722725D-05  0.29640245D-05 -0.36002493D-05
 -0.56652124D-06  0.72647080D-05  0.80531994D-05 -0.20802978D-03 -0.20344858D-03
 -0.13442708D-03  0.20696160D-03  0.20240393D-03  0.13373683D-03  0.23163540D-04
  0.22653436D-04  0.14968083D-04 -0.72438014D-05  0.72130855D-05  0.25526894D-05
 -0.46475261D-04  0.46220641D-04  0.63508923D-05 -0.13974161D-04  0.13901039D-04
  0.10813341D-05 -0.48621887D-04  0.50930061D-04 -0.23081741D-05  0.10008190D-03
 -0.95219804D-04  0.94669059D-04  0.24551223D-04 -0.25595919D-04  0.10446959D-05
 -0.50381410D-04  0.72596954D-04 -0.72159095D-04 -0.12968506D-04  0.12734117D-04
  0.23438948D-06  0.25797621D-04 -0.51678587D-04  0.51342210D-04 -0.48941828D-04
  0.48022781D-04  0.13676495D-05 -0.49351952D-04  0.50429694D-04  0.13396215D-03
  0.19617744D-03 -0.19449804D-03 -0.13806510D-03 -0.27292768D-03  0.17363508D-04
 -0.17073139D-04 -0.30063795D-06  0.17499860D-04 -0.17786881D-04 -0.42836508D-04
 -0.69590383D-04  0.69006297D-04  0.43738422D-04  0.86838253D-04
MO    2     MO 0.0        OCC NO =    2.0000300  ORB. ENERGY =    0.000000
 -0.36708906D-04 -0.68432796D-04 -0.11566075D-03 -0.17385968D-03 -0.21355547D-03
 -0.18023329D-03 -0.67772422D-04  0.50426506D-07  0.37690689D-06  0.14085871D-05
  0.39297387D-05  0.52647664D-05 -0.62167074D-05 -0.12006746D-04  0.27702600D-04
  0.36896911D-05 -0.79496719D-04 -0.74533227D-04 -0.53072098D-04 -0.79855880D-04
 -0.74869963D-04 -0.53311874D-04 -0.70271869D-05 -0.65884344D-05 -0.46913578D-05
 -0.26878557D-03 -0.27073912D-03 -0.43927238D-05 -0.33376945D-03 -0.33590679D-03
  0.13329690D-06 -0.64504249D-05 -0.64941890D-05 -0.39659454D-07 -0.49352969D-04
  0.47313527D-04  0.20394421D-05 -0.95803873D-04  0.35795964D-03  0.36017929D-03
 -0.13634696D-03  0.14205776D-03 -0.57107902D-05 -0.27639541D-03 -0.67928616D-04
 -0.68647706D-04 -0.30374487D-04  0.28464345D-04  0.19101417D-05 -0.58346203D-04
  0.47718606D-04  0.47939394D-04 -0.65301038D-04 -0.67045045D-04  0.22184240D-05
 -0.69374850D-04 -0.65720068D-04 -0.22002262D-04  0.26527796D-03  0.26685520D-03
  0.15346990D-04 -0.36674883D-04  0.19854159D-04  0.17014700D-04 -0.22722643D-06
  0.17661321D-04  0.26673381D-04 -0.33901647D-04 -0.77223797D-04 -0.77717482D-04
  0.34583326D-04 -0.68018967D-04  0.28722821D-04  0.51802790D-04  0.76383184D-04
 -0.29054053D-03 -0.81336877D-03  0.85653425D-05 -0.26010476D-05 -0.54075737D-04
 -0.18689249D-04 -0.61220841D-04 -0.21476964D-03 -0.19102333D-03 -0.55494296D-04
 -0.12571850D-03 -0.15245321D-04  0.80769867D-04 -0.32778134D-04 -0.47991733D-04
 -0.23108355D-04  0.31326340D-04 -0.21074936D-03  0.32521314D-04  0.89321703D-05
 -0.41453484D-04 -0.21235784D-04 -0.43039210D-04 -0.22099717D-04  0.10465945D-04
  0.18875762D-04  0.27832300D-04 -0.11640684D-03 -0.29214770D-03  0.30048494D-05
 -0.19231996D-04  0.63295308D-05 -0.66611128D-05 -0.11106938D-03 -0.32066523D-04
 -0.69394843D-04 -0.76686320D-04 -0.40676749D-04 -0.57272480D-05 -0.16046442D-04
  0.33589037D-04 -0.17542594D-04  0.20474110D-04 -0.42617885D-04  0.77143457D-04
 -0.66753353D-05  0.22548649D-04 -0.15873314D-04 -0.65768107D-05 -0.35753140D-04
 -0.46016887D-04 -0.38759276D-04 -0.69903950D-04 -0.10307333D-03  0.35124414D-03
  0.11089785D-02 -0.12012565D-04 -0.61972893D-04 -0.36746570D-04  0.26223281D-04
 -0.23329962D-03 -0.16052002D-03  0.25737349D-03 -0.13484144D-03 -0.10245120D-03
  0.19945119D-04  0.12100038D-05 -0.66118258D-04  0.64908255D-04  0.13243749D-03
 -0.25523921D-03 -0.13447747D-03 -0.22296784D-04 -0.30557304D-04  0.52854088D-04
  0.30258503D-04 -0.17784546D-04 -0.29128286D-04 -0.93726258D-04 -0.17535183D-03
 -0.30296906D-03 -0.49114845D-03 -0.74585605D-03 -0.10366697D-02 -0.12325209D-02
 -0.10979724D-02 -0.54527633D-03 -0.87784876D-04 -0.92618229D-06 -0.44351397D-06
 -0.14794883D-04 -0.51557207D-04 -0.18566585D-03 -0.40927726D-03 -0.57613029D-03
  0.27483293D-04  0.75396654D-03  0.44581569D-03 -0.35344668D-08 -0.42811024D-07
 -0.89277878D-07 -0.25603341D-06 -0.13295459D-07  0.11041402D-05  0.28528863D-05
 -0.23243975D-05  0.27244688D-04 -0.11817963D-04 -0.13200507D-05 -0.81849224D+01
 -0.10781458D+02 -0.11893635D+02 -0.98785954D+01 -0.52458083D+01 -0.13534460D+01
 -0.82348089D+01 -0.10847170D+02 -0.11966126D+02 -0.99388047D+01 -0.52777811D+01
 -0.13616951D+01 -0.59414241D-01 -0.78262454D-01 -0.86335737D-01 -0.71708590D-01
 -0.38079251D-01 -0.98246458D-02  0.32395633D-03 -0.31318013D-02 -0.44161668D-02
 -0.63162867D-02  0.31984787D-04  0.57926306D-02  0.32592766D-03 -0.31508589D-02
 -0.44430400D-02 -0.63547225D-02  0.32179420D-04  0.58278799D-02  0.25210158D-05
 -0.24371558D-04 -0.34366441D-04 -0.49153102D-04  0.24890439D-06  0.45078031D-04
 -0.54040742D-01 -0.54370061D-01 -0.39703079D-03  0.45256562D-03  0.45539656D-03
  0.57436697D-05  0.40783443D-04  0.41034468D-04  0.35404022D-06 -0.13996202D-04
  0.81988099D-05  0.57973919D-05 -0.21501233D-04  0.69192440D-03  0.69615275D-03
  0.46743447D-05 -0.25546175D-05 -0.21197272D-05  0.69662849D-05 -0.25233252D-03
 -0.25385465D-03 -0.10055719D-05  0.82628274D-06  0.17928917D-06 -0.17844540D-05
  0.43392949D-04  0.43625513D-04 -0.17750292D-05 -0.13494807D-05 -0.27200631D-07
 -0.16679124D-05 -0.28875354D-05 -0.24159174D-04  0.69930000D-05  0.69359776D-05
  0.24240776D-04 -0.48033881D-04 -0.10361947D-04 -0.10576375D-04  0.14582763D-06
 -0.10409972D-04 -0.10047391D-04  0.44524286D-05  0.41495813D-04  0.41776517D-04
 -0.48899115D-05  0.93655269D-05  0.12916655D-04  0.24076667D-04  0.40815315D-04
  0.61799907D-04  0.77263495D-04  0.66460461D-04  0.25489017D-04 -0.17980701D-07
 -0.23803082D-06 -0.86457123D-06 -0.25647343D-05 -0.29553382D-05  0.35896985D-05
  0.57539340D-06 -0.72058113D-05 -0.78861832D-05  0.20329672D-03  0.19881976D-03
  0.13136862D-03  0.20469378D-03  0.20018604D-03  0.13227138D-03 -0.23373853D-04
 -0.22859118D-04 -0.15103986D-04  0.49116178D-05  0.49536468D-05 -0.25793068D-05
  0.47881655D-04  0.48190807D-04 -0.63873767D-05  0.13659143D-04  0.13751981D-04
 -0.10737658D-05 -0.51590475D-04  0.49346825D-04  0.22436491D-05 -0.10010624D-03
  0.91632610D-04  0.92214199D-04  0.25709392D-04 -0.24732347D-04 -0.97704458D-06
  0.49992937D-04 -0.71280344D-04 -0.71713351D-04 -0.12451539D-04  0.12767214D-04
 -0.31567562D-06 -0.24966388D-04  0.53063469D-04  0.53359111D-04  0.52187610D-04
  0.52881137D-04 -0.10168525D-05  0.52066554D-04  0.50764525D-04  0.13201141D-03
 -0.20862938D-03 -0.20940794D-03 -0.12896085D-03  0.25822650D-03 -0.18552812D-04
 -0.18770145D-04  0.17319046D-06 -0.18508605D-04 -0.18144673D-04 -0.41576203D-04
  0.74167043D-04  0.74455108D-04  0.41056632D-04 -0.81737415D-04
MO    3     MO 0.0        OCC NO =    2.0000210  ORB. ENERGY =    0.000000
 -0.14457142D-01 -0.26951025D-01 -0.45550904D-01 -0.68471505D-01 -0.84104980D-01
 -0.70981636D-01 -0.26690949D-01 -0.38132180D-05 -0.28501442D-04 -0.10651640D-03
 -0.29716416D-03 -0.39811804D-03  0.47010318D-03 -0.87259747D-03 -0.19331415D-02
 -0.81885983D-04  0.41227800D-05  0.38653683D-05  0.27523725D-05  0.53474313D-06
  0.50135568D-06  0.35699511D-06  0.11669837D-02  0.10941214D-02  0.77907958D-03
 -0.21052202D-04  0.28552554D-07  0.60712515D-03  0.81313972D-06 -0.22048681D-06
 -0.37910416D-03 -0.12016934D-06  0.34524295D-08  0.46730611D-05 -0.10554135D-03
 -0.10559030D-03  0.21113166D-03 -0.90462335D-05 -0.95358363D-06  0.31860458D-06
 -0.23955195D-04 -0.23924538D-04  0.47879733D-04 -0.10571436D-04  0.71614884D-05
  0.14215344D-06  0.11388653D-04  0.11429064D-04 -0.22817717D-04  0.66999912D-06
  0.10161574D-05 -0.25167972D-07 -0.35050042D-06  0.36210893D-04  0.77241371D-05
 -0.28823792D-06 -0.10867675D-03 -0.11536601D-04  0.13397392D-05  0.44074241D-07
 -0.11635811D-04  0.45410609D-05 -0.15415435D-06  0.51814577D-04 -0.85651858D-04
 -0.72962713D-07 -0.15518093D-03  0.12854091D-03  0.53542577D-06 -0.26279698D-06
  0.12841466D-03  0.17804271D-05 -0.48412614D-05 -0.87314143D-05 -0.12874465D-04
  0.75175959D-03  0.23551993D-03  0.50598292D-05  0.53412579D-06  0.95734004D-04
  0.28400071D-04  0.63905796D-05  0.19904405D-03 -0.43238742D-05  0.12820458D-05
  0.43984144D-04  0.38740561D-04 -0.73830916D-04  0.54169404D-04  0.19661512D-04
  0.50442778D-05  0.18157281D-05  0.75906525D-04 -0.96000708D-05 -0.12039293D-04
  0.21639364D-04 -0.14401542D-07 -0.67700286D-07 -0.34536486D-04 -0.60101010D-05
 -0.10839465D-04 -0.15982784D-04  0.73557259D-03  0.22973199D-03  0.46974742D-05
  0.80426010D-04 -0.46167359D-04  0.26747581D-04  0.16933396D-03 -0.94244499D-04
 -0.15264380D-05  0.37072941D-04 -0.20716553D-04  0.39289977D-04  0.22477512D-04
 -0.42889851D-04  0.20412339D-04 -0.10832192D-03  0.65946372D-04 -0.36978268D-04
 -0.11858117D-04 -0.99263896D-05  0.21784507D-04  0.32812920D-05 -0.29456716D-04
  0.16995711D-04 -0.36079442D-05 -0.65070760D-05 -0.95946798D-05  0.76871118D-03
  0.24216116D-03  0.54161692D-05 -0.85326894D-04 -0.49570684D-04  0.30231886D-04
 -0.17553815D-03 -0.10513414D-03 -0.69782808D-05 -0.39118224D-04 -0.23362160D-04
  0.38225077D-04  0.21671460D-04 -0.40824681D-04  0.19153222D-04  0.11325332D-03
 -0.65660878D-04 -0.38883374D-04 -0.10971882D-04 -0.10493826D-04  0.21465708D-04
 -0.78544789D-06  0.30431444D-04  0.17621643D-04 -0.15460752D+00 -0.28925416D+00
 -0.49976704D+00 -0.81018109D+00 -0.12303377D+01 -0.17100537D+01 -0.20331228D+01
 -0.18111764D+01 -0.89946852D+00 -0.14480682D+00 -0.15277975D-02 -0.72286513D-03
 -0.24113570D-01 -0.84030965D-01 -0.30260911D+00 -0.66706413D+00 -0.93901100D+00
  0.44793885D-01  0.12288590D+01  0.72661661D+00 -0.15531869D-04 -0.18812886D-03
 -0.39232291D-03 -0.11251138D-02 -0.58425593D-04  0.48520364D-02  0.12536730D-01
 -0.10214338D-01  0.46601529D-01 -0.38465276D-03 -0.13208221D-03 -0.38159640D-01
 -0.50265173D-01 -0.55450354D-01 -0.46055860D-01 -0.24456940D-01 -0.63100183D-02
  0.24436891D-02  0.32189102D-02  0.35509619D-02  0.29493519D-02  0.15661877D-02
  0.40408461D-03  0.59407313D+01  0.78253329D+01  0.86325671D+01  0.71700229D+01
  0.38074811D+01  0.98235003D+00  0.12410588D-05 -0.11997758D-04 -0.16918091D-04
 -0.24197346D-04  0.12253196D-06  0.22191249D-04 -0.86222972D-07  0.83354822D-06
  0.11753900D-05  0.16811186D-05 -0.85129481D-08 -0.15417443D-05 -0.21076807D-03
  0.20375701D-02  0.28731866D-02  0.41094168D-02 -0.20809508D-04 -0.37687228D-02
 -0.26634582D-03  0.17123589D-04  0.41649336D-01  0.28070740D-05 -0.19939001D-06
 -0.48379123D-03  0.14247168D-06 -0.42869043D-08 -0.98333852D-05 -0.71466506D-05
 -0.71586660D-05  0.14305317D-04  0.18282433D-05 -0.38935533D-05  0.53512241D-07
 -0.11139584D-03 -0.11140213D-03  0.22279797D-03 -0.58970094D-06 -0.24739740D-05
  0.25925148D-06 -0.14317855D-04 -0.14322458D-04  0.28640313D-04 -0.51872438D-07
 -0.87631497D-06  0.34694208D-07  0.37860281D-06 -0.72076540D-05  0.54470933D-05
  0.36734038D-06  0.21622265D-04 -0.81698422D-05 -0.15031488D-05  0.69654342D-09
 -0.81714376D-05 -0.13999614D-05 -0.36809401D-06  0.20693178D-05 -0.33741489D-04
 -0.36475775D-06 -0.61360317D-05  0.50607091D-04  0.14690398D-05 -0.71921764D-07
  0.50617376D-04  0.83817937D-06 -0.87903966D-03 -0.16385314D-02 -0.27776758D-02
 -0.42057769D-02 -0.52581474D-02 -0.45229497D-02 -0.17346485D-02 -0.68400672D-06
 -0.90549682D-05 -0.32889292D-04 -0.97565466D-04 -0.11242449D-03  0.13655629D-03
 -0.95925050D-04 -0.15941993D-03  0.12338484D-04  0.22715351D-04  0.22215117D-04
  0.14678467D-04  0.17545990D-05  0.17159595D-05  0.11338070D-05  0.39016285D-02
  0.38157075D-02  0.25211993D-02  0.59758999D-05  0.37574836D-06  0.87910294D-03
 -0.71862903D-06  0.23287118D-07  0.21425449D-04  0.20849514D-06  0.28297831D-08
  0.93273293D-05 -0.35620403D-04 -0.35631693D-04  0.71252095D-04 -0.17261038D-05
  0.31017592D-05  0.10181023D-06  0.21089569D-04  0.21091928D-04 -0.42181497D-04
  0.86195867D-06 -0.98622681D-06 -0.65678837D-07  0.18094216D-04  0.18100959D-04
 -0.36195175D-04 -0.34245132D-06 -0.15557731D-05 -0.33488435D-07 -0.26568428D-05
 -0.29451697D-05  0.46279631D-04 -0.26594344D-05  0.88243261D-05 -0.69338764D-04
  0.10629963D-04  0.11183014D-07 -0.69500128D-04  0.31702591D-05  0.10006409D-05
  0.93518488D-06 -0.25337584D-04  0.10015603D-05 -0.27755107D-05  0.37978155D-04
 -0.40034831D-05 -0.30043916D-07  0.38034597D-04 -0.84851222D-06
MO    4     MO 0.0        OCC NO =    2.0000123  ORB. ENERGY =    0.000000
  0.26837667D-01  0.50030818D-01  0.84558899D-01  0.12710780D+00  0.15612916D+00
  0.13176750D+00  0.49548023D-01 -0.14523868D-05 -0.10855692D-04 -0.40570198D-04
 -0.11318454D-03 -0.15163607D-03  0.17905393D-03  0.26465243D-02 -0.36095033D-02
 -0.42152740D-04 -0.96887757D-05 -0.90838431D-05 -0.64682374D-05  0.14370990D-05
  0.13473717D-05  0.95940892D-06  0.36696869D-02  0.34405647D-02  0.24498870D-02
 -0.45220218D-04 -0.24487230D-06  0.13054879D-02 -0.61788035D-05 -0.38180848D-06
 -0.41699725D-03 -0.15901086D-06  0.37190116D-08  0.37070156D-05 -0.31928517D-03
 -0.31920575D-03  0.63849092D-03 -0.90151578D-05 -0.68918946D-05  0.99994611D-06
  0.98520480D-05  0.97906643D-05 -0.19642712D-04 -0.27348448D-04  0.17053889D-04
  0.18187099D-06 -0.17901365D-04 -0.17864499D-04  0.35765864D-04 -0.18714294D-05
  0.11587872D-05  0.46086904D-07 -0.58796526D-06 -0.42331983D-04  0.22571304D-04
 -0.64363321D-06  0.12691160D-03 -0.33915379D-04  0.24075290D-05  0.84352941D-07
 -0.33798534D-04  0.82448854D-05 -0.56440930D-06  0.81984484D-04 -0.16374914D-03
 -0.43305638D-06 -0.24547097D-03  0.24570085D-03  0.21262843D-05 -0.48248047D-06
  0.24554657D-03  0.71665121D-05 -0.90341595D-04 -0.16293479D-03 -0.24024725D-03
  0.10216428D-02  0.68370511D-03  0.42658026D-05 -0.16731219D-05 -0.57983526D-04
  0.33524930D-04  0.56059080D-05  0.30419824D-03 -0.43460766D-04 -0.61664682D-06
  0.11094784D-03  0.75816497D-04 -0.14228516D-03  0.24110596D-04  0.11817457D-03
  0.18209395D-05  0.22327372D-05  0.14242903D-03 -0.14718442D-04 -0.21044740D-04
  0.35763181D-04 -0.14632795D-05  0.77950173D-06 -0.62784167D-04 -0.89900701D-04
 -0.16213962D-03 -0.23907477D-03  0.98257616D-03  0.65556568D-03  0.38172156D-05
 -0.56510115D-04  0.31656520D-04  0.29719581D-04  0.25215232D-03 -0.14256546D-03
 -0.33970848D-04  0.92517771D-04 -0.53827114D-04  0.75666637D-04 -0.22653012D-04
 -0.10047644D-03  0.12312945D-03 -0.13324662D-03  0.12400302D-03 -0.70121474D-04
 -0.20535252D-04 -0.15673381D-04  0.36208633D-04  0.69257712D-05 -0.53120739D-04
  0.31162932D-04 -0.90730188D-04 -0.16363563D-03 -0.24128064D-03  0.10624460D-02
  0.71328211D-03  0.47079213D-05  0.43572792D-04  0.26096349D-04  0.37359406D-04
 -0.27514756D-03 -0.16221218D-03 -0.52680400D-04 -0.99660054D-04 -0.57193595D-04
  0.76134365D-04 -0.12467925D-04 -0.10089665D-03  0.11336458D-03  0.15503225D-03
 -0.12289230D-03 -0.72004997D-04 -0.18306536D-04 -0.16925868D-04  0.35232404D-04
 -0.38099519D-05  0.55714251D-04  0.31732419D-04  0.91304650D-01  0.17082126D+00
  0.29514124D+00  0.47845863D+00  0.72658535D+00  0.10098853D+01  0.12006762D+01
  0.10696041D+01  0.53118801D+00  0.85516775D-01  0.90225249D-03  0.42748682D-03
  0.14260245D-01  0.49694097D-01  0.17895649D+00  0.39448731D+00  0.55531082D+00
 -0.26490136D-01 -0.72672064D+00 -0.42970536D+00  0.62772152D-05  0.76032405D-04
  0.15855756D-03  0.45471549D-03  0.23612742D-04 -0.19609537D-02 -0.50667278D-02
  0.41281313D-02 -0.28542386D-01  0.14179564D-02 -0.18184380D-03 -0.80686909D-01
 -0.10628354D+00 -0.11724738D+00 -0.97383126D-01 -0.51713142D-01 -0.13342261D-01
  0.41504543D-02  0.54671192D-02  0.60310882D-02  0.50092910D-02  0.26600725D-02
  0.68631262D-03  0.99146269D+01  0.13059883D+02  0.14407095D+02  0.11966221D+02
  0.63543952D+01  0.16394672D+01  0.24751235D-05 -0.23927901D-04 -0.33740839D-04
 -0.48258325D-04  0.24437336D-06  0.44257435D-04 -0.14050743D-06  0.13583354D-05
  0.19153947D-05  0.27395211D-05 -0.13872549D-07 -0.25123993D-05 -0.33686151D-03
  0.32565603D-02  0.45920900D-02  0.65679035D-02 -0.33258939D-04 -0.60233869D-02
 -0.58314092D-03  0.30359439D-04  0.72557552D-01  0.20820865D-05 -0.12337019D-06
 -0.30631017D-03  0.17887950D-06 -0.21052056D-08 -0.39505392D-05  0.45442658D-03
  0.45448985D-03 -0.90891643D-03  0.18645231D-05  0.14843876D-04 -0.11102553D-05
 -0.30966244D-03 -0.30969342D-03  0.61935585D-03 -0.96571614D-06 -0.92144921D-05
  0.75480451D-06  0.43341882D-05  0.43315583D-05 -0.86657465D-05  0.23165923D-07
 -0.25580011D-06 -0.14728484D-07  0.27726572D-06 -0.14486521D-04 -0.46952914D-04
  0.25480797D-06  0.43601622D-04  0.70423727D-04 -0.10866051D-05 -0.14206020D-06
  0.70435015D-04 -0.19180631D-05 -0.61270626D-06  0.42079316D-05 -0.62597169D-04
 -0.60596669D-06 -0.12485975D-04  0.93887595D-04  0.24440855D-05 -0.13782009D-06
  0.93903911D-04  0.14837549D-05 -0.63574339D-02 -0.11850268D-01 -0.20088844D-01