 Entering Gaussian System, Link 0=/home/bruns/programas/chemistry/gaussian/g09/g09
 Input=GAUSSIAN.com
 Output=GAUSSIAN.log
 Initial command:
 /home/bruns/programas/chemistry/gaussian/g09/l1.exe /home/bruns/programas/chemistry/gaussian/work/Gau-75450.inp -scrdir=/home/bruns/programas/chemistry/gaussian/work/
 Entering Link 1 = /home/bruns/programas/chemistry/gaussian/g09/l1.exe PID=     75452.
  
 Copyright (c) 1988,1990,1992,1993,1995,1998,2003,2009,2010,
            Gaussian, Inc.  All Rights Reserved.
  
 This is part of the Gaussian(R) 09 program.  It is based on
 the Gaussian(R) 03 system (copyright 2003, Gaussian, Inc.),
 the Gaussian(R) 98 system (copyright 1998, Gaussian, Inc.),
 the Gaussian(R) 94 system (copyright 1995, Gaussian, Inc.),
 the Gaussian 92(TM) system (copyright 1992, Gaussian, Inc.),
 the Gaussian 90(TM) system (copyright 1990, Gaussian, Inc.),
 the Gaussian 88(TM) system (copyright 1988, Gaussian, Inc.),
 the Gaussian 86(TM) system (copyright 1986, Carnegie Mellon
 University), and the Gaussian 82(TM) system (copyright 1983,
 Carnegie Mellon University). Gaussian is a federally registered
 trademark of Gaussian, Inc.
  
 This software contains proprietary and confidential information,
 including trade secrets, belonging to Gaussian, Inc.
  
 This software is provided under written license and may be
 used, copied, transmitted, or stored only in accord with that
 written license.
  
 The following legend is applicable only to US Government
 contracts under FAR:
  
                    RESTRICTED RIGHTS LEGEND
  
 Use, reproduction and disclosure by the US Government is
 subject to restrictions as set forth in subparagraphs (a)
 and (c) of the Commercial Computer Software - Restricted
 Rights clause in FAR 52.227-19.
  
 Gaussian, Inc.
 340 Quinnipiac St., Bldg. 40, Wallingford CT 06492
  
  
 ---------------------------------------------------------------
 Warning -- This program may not be used in any manner that
 competes with the business of Gaussian, Inc. or will provide
 assistance to any competitor of Gaussian, Inc.  The licensee
 of this program is prohibited from giving any competitor of
 Gaussian, Inc. access to this program.  By using this program,
 the user acknowledges that Gaussian, Inc. is engaged in the
 business of creating and licensing software in the field of
 computational chemistry and represents and warrants to the
 licensee that it is not a competitor of Gaussian, Inc. and that
 it will not use this program in any manner prohibited above.
 ---------------------------------------------------------------
  

 Cite this work as:
 Gaussian 09, Revision B.01,
 M. J. Frisch, G. W. Trucks, H. B. Schlegel, G. E. Scuseria, 
 M. A. Robb, J. R. Cheeseman, G. Scalmani, V. Barone, B. Mennucci, 
 G. A. Petersson, H. Nakatsuji, M. Caricato, X. Li, H. P. Hratchian, 
 A. F. Izmaylov, J. Bloino, G. Zheng, J. L. Sonnenberg, M. Hada, 
 M. Ehara, K. Toyota, R. Fukuda, J. Hasegawa, M. Ishida, T. Nakajima, 
 Y. Honda, O. Kitao, H. Nakai, T. Vreven, J. A. Montgomery, Jr., 
 J. E. Peralta, F. Ogliaro, M. Bearpark, J. J. Heyd, E. Brothers, 
 K. N. Kudin, V. N. Staroverov, T. Keith, R. Kobayashi, J. Normand, 
 K. Raghavachari, A. Rendell, J. C. Burant, S. S. Iyengar, J. Tomasi, 
 M. Cossi, N. Rega, J. M. Millam, M. Klene, J. E. Knox, J. B. Cross, 
 V. Bakken, C. Adamo, J. Jaramillo, R. Gomperts, R. E. Stratmann, 
 O. Yazyev, A. J. Austin, R. Cammi, C. Pomelli, J. W. Ochterski, 
 R. L. Martin, K. Morokuma, V. G. Zakrzewski, G. A. Voth, 
 P. Salvador, J. J. Dannenberg, S. Dapprich, A. D. Daniels, 
 O. Farkas, J. B. Foresman, J. V. Ortiz, J. Cioslowski, 
 and D. J. Fox, Gaussian, Inc., Wallingford CT, 2010.
 
 ******************************************
 Gaussian 09:  EM64L-G09RevB.01 12-Aug-2010
                23-Aug-2020 
 ******************************************
 %nproc=8
 Will use up to    8 processors via shared memory.
 %mem=8GB
 -----------------------------------------------------
 # QCISD aug-cc-pvtz nosymm density=current output=wfn
 -----------------------------------------------------
 1/30=1,38=1/1;
 2/12=2,15=1,17=6,18=5,40=1/2;
 3/5=16,6=1,7=10,11=9,16=1,25=1,30=1,71=1/1,2,3;
 4//1;
 5/5=2,38=5/2;
 8/6=4,9=120000,10=1/1,4;
 9/5=8,15=1/13;
 11/28=-7,31=1,32=3,42=3/11;
 10/5=6,13=10,31=1/2;
 6/7=2,8=2,9=2,10=2,22=-1,31=1/1;
 99/5=1,6=1100,9=1/99;
 ----------------------
 clch3f_ts-wavefunction
 ----------------------
 Symbolic Z-matrix:
 Charge = -1 Multiplicity = 1
 C                     0.00018   0.00003  -0.49771 
 H                    -0.00998  -1.05257  -0.62073 
 H                    -0.91131   0.52637  -0.62125 
 H                     0.91175   0.52613  -0.62157 
 Cl                    0.00056   0.00096   1.64472 
 F                    -0.00019  -0.00092  -2.59347 
 
                          Input orientation:                          
 ---------------------------------------------------------------------
 Center     Atomic      Atomic             Coordinates (Angstroms)
 Number     Number       Type             X           Y           Z
 ---------------------------------------------------------------------
      1          6           0        0.000175    0.000029   -0.497709
      2          1           0       -0.009981   -1.052570   -0.620726
      3          1           0       -0.911312    0.526365   -0.621245
      4          1           0        0.911750    0.526132   -0.621570
      5         17           0        0.000555    0.000962    1.644718
      6          9           0       -0.000186   -0.000921   -2.593468
 ---------------------------------------------------------------------
                    Distance matrix (angstroms):
                    1          2          3          4          5
     1  C    0.000000
     2  H    1.059812   0.000000
     3  H    1.059764   1.818085   0.000000
     4  H    1.059762   1.828083   1.823062   0.000000
     5  Cl   2.142427   2.498455   2.498427   2.498428   0.000000
     6  F    2.095759   2.235570   2.235586   2.235575   4.238186
                    6
     6  F    0.000000
 Symmetry turned off by external request.
 Stoichiometry    CH3ClF(1-)
 Framework group  C1[X(CH3ClF)]
 Deg. of freedom    12
 Full point group                 C1      NOp   1
 Rotational constants (GHZ):    150.8744741      2.2148247      2.2146188
 Standard basis: Aug-CC-pVTZ (5D, 7F)
 Integral buffers will be    131072 words long.
 Raffenetti 1 integral format.
 Two-electron integral symmetry is turned off.
   211 basis functions,   339 primitive gaussians,   244 cartesian basis functions
    18 alpha electrons       18 beta electrons
       nuclear repulsion energy        84.9840876283 Hartrees.
 NAtoms=    6 NActive=    6 NUniq=    6 SFac= 1.00D+00 NAtFMM=   50 NAOKFM=F Big=F
 One-electron integrals computed using PRISM.
 NBasis=   211 RedAO= T  NBF=   211
 NBsUse=   211 1.00D-06 NBFU=   211
 Harris functional with IExCor=  205 diagonalized for initial guess.
 ExpMin= 2.53D-02 ExpMax= 4.56D+05 ExpMxC= 1.44D+03 IAcc=3 IRadAn=         0 AccDes= 0.00D+00
 HarFok:  IExCor=  205 AccDes= 0.00D+00 IRadAn=         0 IDoV= 1
 ScaDFX=  1.000000  1.000000  1.000000  1.000000
 FoFCou: FMM=F IPFlag=           0 FMFlag=      100000 FMFlg1=           0
         NFxFlg=           0 DoJE=T BraDBF=F KetDBF=T FulRan=T
         Omega=  0.000000  0.000000  1.000000  0.000000  0.000000 ICntrl=     500 IOpCl=  0
         NMat0=    1 NMatS0=    1 NMatT0=    0 NMatD0=    1 NMtDS0=    0 NMtDT0=    0
         I1Cent=           4 NGrid=           0.
 Symmetry not used in FoFCou.
 Requested convergence on RMS density matrix=1.00D-08 within 128 cycles.
 Requested convergence on MAX density matrix=1.00D-06.
 Requested convergence on             energy=1.00D-06.
 No special actions if energy rises.
 Keep R1 ints in memory in canonical form, NReq=454274131.
 SCF Done:  E(RHF) =  -598.617114820     A.U. after   12 cycles
             Convg  =    0.9411D-08             -V/T =  2.0001
 ExpMin= 2.53D-02 ExpMax= 4.56D+05 ExpMxC= 1.44D+03 IAcc=3 IRadAn=         5 AccDes= 0.00D+00
 HarFok:  IExCor=  205 AccDes= 0.00D+00 IRadAn=         5 IDoV=-2
 ScaDFX=  1.000000  1.000000  1.000000  1.000000
 DSYEVD returned Info=          93 IAlg= 4 N=    46 NDim=    46 NE2=    21472034 trying DSYEV.
 Range of M.O.s used for correlation:     8   211
 NBasis=   211 NAE=    18 NBE=    18 NFC=     7 NFV=     0
 NROrb=    204 NOA=    11 NOB=    11 NVA=   193 NVB=   193

 **** Warning!!: The largest alpha MO coefficient is  0.35222015D+02

 Semi-Direct transformation.
 ModeAB=           2 MOrb=            11 LenV=    1072528222
 LASXX=     44979418 LTotXX=    44979418 LenRXX=    44979418
 LTotAB=    45631872 MaxLAS=    67073160 LenRXY=    67073160
 NonZer=    89958836 LenScr=   135708672 LnRSAI=           0
 LnScr1=           0 LExtra=           0 Total=    247761250
 MaxDsk=          -1 SrtSym=           F ITran=            4
 JobTyp=0 Pass  1:  I=   1 to  11.
 (rs|ai) integrals will be sorted in core.
 Spin components of T(2) and E(2):
     alpha-alpha T2 =       0.2567373450D-01 E2=     -0.8208241516D-01
     alpha-beta  T2 =       0.1452569734D+00 E2=     -0.5099796317D+00
     beta-beta   T2 =       0.2567373450D-01 E2=     -0.8208241516D-01
 ANorm=    0.1093894164D+01
 E2 =    -0.6741444620D+00 EUMP2 =    -0.59929125928231D+03
 R2 and R3 integrals will be kept in memory, NReq=   900794930.
 Iterations=  50 Convergence= 0.100D-07
 Iteration Nr.   1
 **********************
 DD1Dir will call FoFMem   1 times, MxPair=       132
 NAB=    66 NAA=     0 NBB=     0.
 MP4(R+Q)=  0.14439004D-01
 E3=       -0.18700919D-01        EUMP3=      -0.59930996020D+03
 E4(DQ)=   -0.45152842D-03        UMP4(DQ)=   -0.59931041173D+03
 E4(SDQ)=  -0.98177808D-02        UMP4(SDQ)=  -0.59931977798D+03
 DE(Corr)= -0.67840638     E(Corr)=     -599.29552120    
 NORM(A)=   0.10996856D+01
 Iteration Nr.   2
 **********************
 DD1Dir will call FoFMem   1 times, MxPair=       132
 NAB=    66 NAA=     0 NBB=     0.
 DE(Corr)= -0.70060633     E(CORR)=     -599.31772115     Delta=-2.22D-02
 NORM(A)=   0.11070400D+01
 Iteration Nr.   3
 **********************
 DD1Dir will call FoFMem   1 times, MxPair=       132
 NAB=    66 NAA=     0 NBB=     0.
 DE(Corr)= -0.69820941     E(CORR)=     -599.31532423     Delta= 2.40D-03
 NORM(A)=   0.11110251D+01
 Iteration Nr.   4
 **********************
 DD1Dir will call FoFMem   1 times, MxPair=       132
 NAB=    66 NAA=     0 NBB=     0.
 DE(Corr)= -0.70126851     E(CORR)=     -599.31838333     Delta=-3.06D-03
 NORM(A)=   0.11131289D+01
 Iteration Nr.   5
 **********************
 DD1Dir will call FoFMem   1 times, MxPair=       132
 NAB=    66 NAA=     0 NBB=     0.
 DE(Corr)= -0.70186348     E(CORR)=     -599.31897830     Delta=-5.95D-04
 NORM(A)=   0.11141599D+01
 Iteration Nr.   6
 **********************
 DD1Dir will call FoFMem   1 times, MxPair=       132
 NAB=    66 NAA=     0 NBB=     0.
 DE(Corr)= -0.70201027     E(CORR)=     -599.31912509     Delta=-1.47D-04
 NORM(A)=   0.11144858D+01
 Iteration Nr.   7
 **********************
 DD1Dir will call FoFMem   1 times, MxPair=       132
 NAB=    66 NAA=     0 NBB=     0.
 DE(Corr)= -0.70203999     E(CORR)=     -599.31915481     Delta=-2.97D-05
 NORM(A)=   0.11145168D+01
 Iteration Nr.   8
 **********************
 DD1Dir will call FoFMem   1 times, MxPair=       132
 NAB=    66 NAA=     0 NBB=     0.
 DE(Corr)= -0.70205387     E(CORR)=     -599.31916869     Delta=-1.39D-05
 NORM(A)=   0.11145346D+01
 Iteration Nr.   9
 **********************
 DD1Dir will call FoFMem   1 times, MxPair=       132
 NAB=    66 NAA=     0 NBB=     0.
 DE(Corr)= -0.70203065     E(CORR)=     -599.31914547     Delta= 2.32D-05
 NORM(A)=   0.11145378D+01
 Iteration Nr.  10
 **********************
 DD1Dir will call FoFMem   1 times, MxPair=       132
 NAB=    66 NAA=     0 NBB=     0.
 DE(Corr)= -0.70204995     E(CORR)=     -599.31916477     Delta=-1.93D-05
 NORM(A)=   0.11145380D+01
 Iteration Nr.  11
 **********************
 DD1Dir will call FoFMem   1 times, MxPair=       132
 NAB=    66 NAA=     0 NBB=     0.
 DE(Corr)= -0.70204076     E(CORR)=     -599.31915558     Delta= 9.19D-06
 NORM(A)=   0.11145409D+01
 Iteration Nr.  12
 **********************
 DD1Dir will call FoFMem   1 times, MxPair=       132
 NAB=    66 NAA=     0 NBB=     0.
 DE(Corr)= -0.70204451     E(CORR)=     -599.31915933     Delta=-3.75D-06
 NORM(A)=   0.11145414D+01
 Iteration Nr.  13
 **********************
 DD1Dir will call FoFMem   1 times, MxPair=       132
 NAB=    66 NAA=     0 NBB=     0.
 DE(Corr)= -0.70204508     E(CORR)=     -599.31915990     Delta=-5.66D-07
 NORM(A)=   0.11145420D+01
 Iteration Nr.  14
 **********************
 DD1Dir will call FoFMem   1 times, MxPair=       132
 NAB=    66 NAA=     0 NBB=     0.
 DE(Corr)= -0.70204530     E(CORR)=     -599.31916012     Delta=-2.24D-07
 NORM(A)=   0.11145422D+01
 Iteration Nr.  15
 **********************
 DD1Dir will call FoFMem   1 times, MxPair=       132
 NAB=    66 NAA=     0 NBB=     0.
 DE(Corr)= -0.70204521     E(CORR)=     -599.31916003     Delta= 9.05D-08
 NORM(A)=   0.11145421D+01
 Iteration Nr.  16
 **********************
 DD1Dir will call FoFMem   1 times, MxPair=       132
 NAB=    66 NAA=     0 NBB=     0.
 DE(Corr)= -0.70204541     E(CORR)=     -599.31916023     Delta=-2.03D-07
 NORM(A)=   0.11145419D+01
 Iteration Nr.  17
 **********************
 DD1Dir will call FoFMem   1 times, MxPair=       132
 NAB=    66 NAA=     0 NBB=     0.
 DE(Corr)= -0.70204528     E(CORR)=     -599.31916010     Delta= 1.31D-07
 NORM(A)=   0.11145418D+01
 Iteration Nr.  18
 **********************
 DD1Dir will call FoFMem   1 times, MxPair=       132
 NAB=    66 NAA=     0 NBB=     0.
 DE(Corr)= -0.70204532     E(CORR)=     -599.31916014     Delta=-3.66D-08
 NORM(A)=   0.11145417D+01
 Iteration Nr.  19
 **********************
 DD1Dir will call FoFMem   1 times, MxPair=       132
 NAB=    66 NAA=     0 NBB=     0.
 DE(Corr)= -0.70204527     E(CORR)=     -599.31916009     Delta= 5.26D-08
 NORM(A)=   0.11145416D+01
 Iteration Nr.  20
 **********************
 DD1Dir will call FoFMem   1 times, MxPair=       132
 NAB=    66 NAA=     0 NBB=     0.
 DE(Corr)= -0.70204527     E(CORR)=     -599.31916009     Delta=-2.39D-09
 NORM(A)=   0.11145415D+01
 Iteration Nr.  21
 **********************
 DD1Dir will call FoFMem   1 times, MxPair=       132
 NAB=    66 NAA=     0 NBB=     0.
 DE(Corr)= -0.70204525     E(CORR)=     -599.31916007     Delta= 1.88D-08
 NORM(A)=   0.11145415D+01
 Iteration Nr.  22
 **********************
 DD1Dir will call FoFMem   1 times, MxPair=       132
 NAB=    66 NAA=     0 NBB=     0.
 DE(Corr)= -0.70204525     E(CORR)=     -599.31916007     Delta= 3.73D-09
 NORM(A)=   0.11145415D+01
 Iteration Nr.  23
 **********************
 DD1Dir will call FoFMem   1 times, MxPair=       132
 NAB=    66 NAA=     0 NBB=     0.
 DE(Corr)= -0.70204524     E(CORR)=     -599.31916006     Delta= 4.81D-09
 NORM(A)=   0.11145415D+01
 Iteration Nr.  24
 **********************
 DD1Dir will call FoFMem   1 times, MxPair=       132
 NAB=    66 NAA=     0 NBB=     0.
 DE(Corr)= -0.70204524     E(CORR)=     -599.31916006     Delta=-1.80D-09
 NORM(A)=   0.11145415D+01
 Iteration Nr.  25
 **********************
 DD1Dir will call FoFMem   1 times, MxPair=       132
 NAB=    66 NAA=     0 NBB=     0.
 DE(Corr)= -0.70204524     E(CORR)=     -599.31916006     Delta= 5.04D-09
 NORM(A)=   0.11145415D+01
 Iteration Nr.  26
 **********************
 DD1Dir will call FoFMem   1 times, MxPair=       132
 NAB=    66 NAA=     0 NBB=     0.
 DE(Corr)= -0.70204524     E(CORR)=     -599.31916006     Delta=-4.94D-09
 NORM(A)=   0.11145415D+01
 Iteration Nr.  27
 **********************
 DD1Dir will call FoFMem   1 times, MxPair=       132
 NAB=    66 NAA=     0 NBB=     0.
 DE(Corr)= -0.70204524     E(CORR)=     -599.31916006     Delta= 3.20D-10
 NORM(A)=   0.11145415D+01
 Iteration Nr.  28
 **********************
 DD1Dir will call FoFMem   1 times, MxPair=       132
 NAB=    66 NAA=     0 NBB=     0.
 DE(Corr)= -0.70204524     E(CORR)=     -599.31916006     Delta= 5.65D-11
 NORM(A)=   0.11145415D+01
 Iteration Nr.  29
 **********************
 DD1Dir will call FoFMem   1 times, MxPair=       132
 NAB=    66 NAA=     0 NBB=     0.
 DE(Corr)= -0.70204524     E(CORR)=     -599.31916006     Delta= 3.06D-10
 NORM(A)=   0.11145415D+01
 Largest amplitude= 6.61D-02

 Z-AMPLITUDE ITERATIONS

 Iteration Nr.   1
 **********************
 DD1Dir will call FoFMem   1 times, MxPair=       132
 NAB=    66 NAA=     0 NBB=     0.
 DE(Z)  -0.68265300D+00          E(Z)=    -0.59929976782D+03
 NORM(A)=   0.11140500D+01
 Iteration Nr.   2
 **********************
 DD1Dir will call FoFMem   1 times, MxPair=       132
 NAB=    66 NAA=     0 NBB=     0.
 DE(Z)  -0.68259898D+00          E(Z)=    -0.59929971380D+03
 NORM(A)=   0.11146655D+01
 Iteration Nr.   3
 **********************
 DD1Dir will call FoFMem   1 times, MxPair=       132
 NAB=    66 NAA=     0 NBB=     0.
 DE(Z)  -0.68266479D+00          E(Z)=    -0.59929977961D+03
 NORM(A)=   0.11134790D+01
 Iteration Nr.   4
 **********************
 DD1Dir will call FoFMem   1 times, MxPair=       132
 NAB=    66 NAA=     0 NBB=     0.
 DE(Z)  -0.68254653D+00          E(Z)=    -0.59929966135D+03
 NORM(A)=   0.11150824D+01
 Iteration Nr.   5
 **********************
 DD1Dir will call FoFMem   1 times, MxPair=       132
 NAB=    66 NAA=     0 NBB=     0.
 DE(Z)  -0.68270571D+00          E(Z)=    -0.59929982053D+03
 NORM(A)=   0.11078859D+01
 Iteration Nr.   6
 **********************
 DD1Dir will call FoFMem   1 times, MxPair=       132
 NAB=    66 NAA=     0 NBB=     0.
 DE(Z)  -0.68198391D+00          E(Z)=    -0.59929909873D+03
 NORM(A)=   0.11078791D+01
 Iteration Nr.   7
 **********************
 DD1Dir will call FoFMem   1 times, MxPair=       132
 NAB=    66 NAA=     0 NBB=     0.
 DE(Z)  -0.68198598D+00          E(Z)=    -0.59929910080D+03
 NORM(A)=   0.11078743D+01
 Iteration Nr.   8
 **********************
 DD1Dir will call FoFMem   1 times, MxPair=       132
 NAB=    66 NAA=     0 NBB=     0.
 DE(Z)  -0.68198427D+00          E(Z)=    -0.59929909909D+03
 NORM(A)=   0.11078717D+01
 Iteration Nr.   9
 **********************
 DD1Dir will call FoFMem   1 times, MxPair=       132
 NAB=    66 NAA=     0 NBB=     0.
 DE(Z)  -0.68198420D+00          E(Z)=    -0.59929909902D+03
 NORM(A)=   0.11078707D+01
 Iteration Nr.  10
 **********************
 DD1Dir will call FoFMem   1 times, MxPair=       132
 NAB=    66 NAA=     0 NBB=     0.
 DE(Z)  -0.68198424D+00          E(Z)=    -0.59929909906D+03
 NORM(A)=   0.11078704D+01
 Iteration Nr.  11
 **********************
 DD1Dir will call FoFMem   1 times, MxPair=       132
 NAB=    66 NAA=     0 NBB=     0.
 DE(Z)  -0.68198419D+00          E(Z)=    -0.59929909901D+03
 NORM(A)=   0.11078703D+01
 Iteration Nr.  12
 **********************
 DD1Dir will call FoFMem   1 times, MxPair=       132
 NAB=    66 NAA=     0 NBB=     0.
 DE(Z)  -0.68198419D+00          E(Z)=    -0.59929909901D+03
 NORM(A)=   0.11078704D+01
 Iteration Nr.  13
 **********************
 DD1Dir will call FoFMem   1 times, MxPair=       132
 NAB=    66 NAA=     0 NBB=     0.
 DE(Z)  -0.68198425D+00          E(Z)=    -0.59929909907D+03
 NORM(A)=   0.11078704D+01
 Iteration Nr.  14
 **********************
 DD1Dir will call FoFMem   1 times, MxPair=       132
 NAB=    66 NAA=     0 NBB=     0.
 DE(Z)  -0.68198423D+00          E(Z)=    -0.59929909905D+03
 NORM(A)=   0.11078704D+01
 Iteration Nr.  15
 **********************
 DD1Dir will call FoFMem   1 times, MxPair=       132
 NAB=    66 NAA=     0 NBB=     0.
 DE(Z)  -0.68198425D+00          E(Z)=    -0.59929909907D+03
 NORM(A)=   0.11078704D+01
 Iteration Nr.  16
 **********************
 DD1Dir will call FoFMem   1 times, MxPair=       132
 NAB=    66 NAA=     0 NBB=     0.
 DE(Z)  -0.68198425D+00          E(Z)=    -0.59929909907D+03
 NORM(A)=   0.11078704D+01
 Iteration Nr.  17
 **********************
 DD1Dir will call FoFMem   1 times, MxPair=       132
 NAB=    66 NAA=     0 NBB=     0.
 DE(Z)  -0.68198425D+00          E(Z)=    -0.59929909907D+03
 NORM(A)=   0.11078704D+01
 Iteration Nr.  18
 **********************
 DD1Dir will call FoFMem   1 times, MxPair=       132
 NAB=    66 NAA=     0 NBB=     0.
 DE(Z)  -0.68198425D+00          E(Z)=    -0.59929909907D+03
 NORM(A)=   0.11078704D+01
 Iteration Nr.  19
 **********************
 DD1Dir will call FoFMem   1 times, MxPair=       132
 NAB=    66 NAA=     0 NBB=     0.
 DE(Z)  -0.68198425D+00          E(Z)=    -0.59929909907D+03
 NORM(A)=   0.11078704D+01
 Discarding MO integrals.
          Differentiating once with respect to electric field.
                with respect to dipole field.
          Electric field/nuclear overlap derivatives assumed to be zero.
          Keep R1 ints in memory in canonical form, NReq=448662239.
          There are     1 degrees of freedom in the 1st order CPHF.  IDoFFX=0.
 LinEq1:  Iter=  0 NonCon=     1 RMS=3.11D-03 Max=1.20D-01
 AX will form     1 AO Fock derivatives at one time.
 LinEq1:  Iter=  1 NonCon=     1 RMS=6.94D-04 Max=9.48D-03
 LinEq1:  Iter=  2 NonCon=     1 RMS=2.30D-04 Max=5.72D-03
 LinEq1:  Iter=  3 NonCon=     1 RMS=9.49D-05 Max=1.45D-03
 LinEq1:  Iter=  4 NonCon=     1 RMS=3.84D-05 Max=4.10D-04
 LinEq1:  Iter=  5 NonCon=     1 RMS=1.06D-05 Max=2.26D-04
 LinEq1:  Iter=  6 NonCon=     1 RMS=2.42D-06 Max=4.25D-05
 LinEq1:  Iter=  7 NonCon=     1 RMS=6.06D-07 Max=9.14D-06
 LinEq1:  Iter=  8 NonCon=     1 RMS=1.49D-07 Max=1.80D-06
 LinEq1:  Iter=  9 NonCon=     1 RMS=3.03D-08 Max=7.47D-07
 LinEq1:  Iter= 10 NonCon=     1 RMS=6.54D-09 Max=8.91D-08
 LinEq1:  Iter= 11 NonCon=     1 RMS=1.05D-09 Max=1.16D-08
 LinEq1:  Iter= 12 NonCon=     1 RMS=1.68D-10 Max=2.85D-09
 LinEq1:  Iter= 13 NonCon=     0 RMS=2.40D-11 Max=3.21D-10
 Linear equations converged to 1.000D-10 1.000D-09 after    13 iterations.
 End of Minotr Frequency-dependent properties file   721 does not exist.
 End of Minotr Frequency-dependent properties file   722 does not exist.

 **********************************************************************

            Population analysis using the QCI/CC density.

 **********************************************************************

     Natural Orbital Coefficients:
                           1         2         3         4         5
     Eigenvalues --     2.00003   2.00003   2.00002   2.00001   2.00001
   1 1   C  1S          0.00004   0.00004  -0.04328   0.08032   0.97619
   2        2S          0.00000   0.00000   0.00131   0.00050  -0.01332
   3        3S          0.00000   0.00000  -0.00132   0.00400   0.03985
   4        4S         -0.00013  -0.00013  -0.01265  -0.02360   0.00312
   5        5S         -0.00001  -0.00001  -0.00120  -0.00062  -0.00061
   6        6PX         0.00004   0.00004   0.00000   0.00000   0.00000
   7        6PY        -0.00004   0.00004   0.00000   0.00000   0.00000
   8        6PZ         0.00000   0.00000   0.00053   0.00168   0.00087
   9        7PX         0.00059   0.00061   0.00000   0.00000  -0.00003
  10        7PY        -0.00060   0.00060   0.00000   0.00000   0.00000
  11        7PZ         0.00000   0.00000   0.00142   0.00304  -0.00091
  12        8PX         0.00318   0.00327   0.00004   0.00004  -0.00005
  13        8PY        -0.00323   0.00322   0.00000   0.00000   0.00000
  14        8PZ         0.00001   0.00001  -0.00373  -0.00410  -0.00309
  15        9PX         0.00030   0.00030   0.00000   0.00000   0.00000
  16        9PY        -0.00031   0.00029   0.00000   0.00000   0.00000
  17        9PZ         0.00000   0.00000   0.00021   0.00017  -0.00049
  18       10D 0        0.00000   0.00000   0.00011   0.00033  -0.00057
  19       10D+1       -0.00011  -0.00011   0.00000   0.00000   0.00000
  20       10D-1        0.00011  -0.00011   0.00000   0.00000   0.00000
  21       10D+2       -0.00003   0.00003   0.00000   0.00000   0.00000
  22       10D-2        0.00003   0.00003   0.00000   0.00000   0.00000
  23       11D 0        0.00001   0.00001   0.00022  -0.00009  -0.00029
  24       11D+1        0.00018   0.00018   0.00000   0.00000   0.00000
  25       11D-1       -0.00018   0.00018   0.00000   0.00000   0.00000
  26       11D+2       -0.00071   0.00072   0.00000   0.00000   0.00000
  27       11D-2        0.00071   0.00072   0.00000  -0.00001  -0.00003
  28       12D 0       -0.00002  -0.00002  -0.00078   0.00122  -0.00236
  29       12D+1       -0.00091  -0.00094   0.00001   0.00001  -0.00002
  30       12D-1        0.00092  -0.00092   0.00000   0.00000   0.00000
  31       12D+2       -0.00114   0.00116   0.00000   0.00000   0.00000
  32       12D-2        0.00114   0.00115   0.00001  -0.00001  -0.00002
  33       13F 0        0.00000   0.00000   0.00001   0.00003   0.00019
  34       13F+1       -0.00013  -0.00014   0.00000   0.00000   0.00000
  35       13F-1        0.00013  -0.00013   0.00000   0.00000   0.00000
  36       13F+2       -0.00001   0.00001   0.00000   0.00000   0.00000
  37       13F-2        0.00001   0.00001   0.00000   0.00000   0.00000
  38       13F+3        0.00000   0.00000   0.00000   0.00000   0.00001
  39       13F-3        0.00000   0.00000  -0.00006   0.00007   0.00090
  40       14F 0        0.00000   0.00000  -0.00113  -0.00215  -0.00019
  41       14F+1        0.00040   0.00041   0.00000   0.00000   0.00001
  42       14F-1       -0.00041   0.00041   0.00000   0.00000   0.00000
  43       14F+2       -0.00024   0.00024   0.00000   0.00000   0.00000
  44       14F-2        0.00024   0.00024   0.00000   0.00001   0.00001
  45       14F+3        0.00001  -0.00001  -0.00001  -0.00001  -0.00002
  46       14F-3       -0.00002  -0.00002  -0.00086  -0.00136  -0.00191
  47 2   H  1S          0.00011  -0.00011  -0.00002  -0.00035  -0.00135
  48        2S         -0.00081   0.00088   0.00245   0.00333  -0.00067
  49        3S         -0.00614   0.00617   0.00182   0.00529  -0.00434
  50        4S          0.00019  -0.00019   0.00011   0.00009  -0.00013
  51        5PX         0.00000   0.00000   0.00000   0.00000  -0.00001
  52        5PY        -0.00002   0.00002   0.00004  -0.00003  -0.00048
  53        5PZ        -0.00001   0.00001   0.00001   0.00002  -0.00009
  54        6PX         0.00013   0.00014   0.00002   0.00002   0.00000
  55        6PY        -0.00046   0.00047   0.00046   0.00070  -0.00080
  56        6PZ        -0.00044   0.00044  -0.00001  -0.00010   0.00024
  57        7PX         0.00062   0.00068   0.00002   0.00002  -0.00003
  58        7PY        -0.00148   0.00149   0.00054   0.00135  -0.00102
  59        7PZ        -0.00020   0.00019   0.00047   0.00092  -0.00006
  60        8D 0       -0.00003   0.00003   0.00001   0.00007   0.00014
  61        8D+1       -0.00001  -0.00001   0.00000   0.00000   0.00000
  62        8D-1       -0.00007   0.00007   0.00002   0.00005  -0.00004
  63        8D+2        0.00003  -0.00003  -0.00004  -0.00005   0.00028
  64        8D-2        0.00001   0.00001   0.00000   0.00000  -0.00001
  65        9D 0       -0.00027   0.00028   0.00015   0.00025   0.00063
  66        9D+1        0.00017   0.00018   0.00000   0.00000   0.00001
  67        9D-1       -0.00009   0.00009  -0.00014  -0.00025   0.00001
  68        9D+2        0.00009  -0.00009   0.00001   0.00003  -0.00010
  69        9D-2        0.00008   0.00009   0.00000   0.00000  -0.00001
  70 3   H  1S         -0.00015  -0.00004  -0.00002  -0.00035  -0.00134
  71        2S          0.00117   0.00035   0.00246   0.00333  -0.00070
  72        3S          0.00837   0.00232   0.00188   0.00532  -0.00440
  73        4S         -0.00025  -0.00007   0.00011   0.00009  -0.00013
  74        5PX         0.00003   0.00001   0.00004  -0.00002  -0.00042
  75        5PY        -0.00002   0.00000  -0.00002   0.00001   0.00024
  76        5PZ         0.00001   0.00000   0.00001   0.00002  -0.00009
  77        6PX         0.00052   0.00025   0.00040   0.00061  -0.00070
  78        6PY        -0.00036   0.00008  -0.00022  -0.00034   0.00041
  79        6PZ         0.00060   0.00016  -0.00001  -0.00010   0.00024
  80        7PX         0.00163   0.00094   0.00048   0.00118  -0.00090
  81        7PY        -0.00122   0.00050  -0.00027  -0.00068   0.00050
  82        7PZ         0.00026   0.00007   0.00048   0.00093  -0.00007
  83        8D 0        0.00004   0.00001   0.00001   0.00007   0.00014
  84        8D+1        0.00008   0.00001   0.00002   0.00004  -0.00003
  85        8D-1       -0.00004  -0.00002  -0.00001  -0.00002   0.00002
  86        8D+2        0.00002   0.00002   0.00002   0.00003  -0.00014
  87        8D-2       -0.00004  -0.00001  -0.00004  -0.00005   0.00024
  88        9D 0        0.00038   0.00011   0.00015   0.00025   0.00063
  89        9D+1        0.00007   0.00015  -0.00012  -0.00022   0.00001
  90        9D-1       -0.00012   0.00019   0.00007   0.00013   0.00000
  91        9D+2        0.00003   0.00012   0.00000  -0.00001   0.00004
  92        9D-2       -0.00012   0.00003   0.00001   0.00002  -0.00008
  93 4   H  1S          0.00004   0.00015  -0.00002  -0.00035  -0.00135
  94        2S         -0.00027  -0.00114   0.00244   0.00333  -0.00063
  95        3S         -0.00219  -0.00844   0.00177   0.00526  -0.00429
  96        4S          0.00007   0.00027   0.00011   0.00010  -0.00014
  97        5PX         0.00001   0.00003  -0.00004   0.00002   0.00042
  98        5PY         0.00000   0.00002  -0.00002   0.00001   0.00024
  99        5PZ         0.00000  -0.00001   0.00001   0.00002  -0.00009
 100        6PX         0.00023   0.00053  -0.00039  -0.00060   0.00068
 101        6PY        -0.00007   0.00036  -0.00023  -0.00035   0.00039
 102        6PZ        -0.00016  -0.00060  -0.00001  -0.00010   0.00024
 103        7PX         0.00089   0.00164  -0.00045  -0.00116   0.00086
 104        7PY        -0.00050   0.00122  -0.00027  -0.00067   0.00051
 105        7PZ        -0.00007  -0.00026   0.00046   0.00092  -0.00005
 106        8D 0       -0.00001  -0.00004   0.00001   0.00007   0.00014
 107        8D+1        0.00001   0.00008  -0.00002  -0.00004   0.00003
 108        8D-1        0.00002   0.00004  -0.00001  -0.00002   0.00002
 109        8D+2       -0.00001  -0.00002   0.00002   0.00003  -0.00014
 110        8D-2       -0.00001  -0.00004   0.00004   0.00005  -0.00024
 111        9D 0       -0.00009  -0.00037   0.00015   0.00025   0.00063
 112        9D+1        0.00015   0.00007   0.00012   0.00022  -0.00001
 113        9D-1       -0.00019   0.00012   0.00007   0.00013  -0.00001
 114        9D+2       -0.00011  -0.00004  -0.00001  -0.00001   0.00005
 115        9D-2        0.00003  -0.00012  -0.00001  -0.00002   0.00009
 116 5   Cl 1S         -0.00003  -0.00003  -0.25059   0.14801  -0.02282
 117        2S          0.00010   0.00010   0.84589  -0.50031   0.07824
 118        3S         -0.00001  -0.00001  -0.02309   0.00933  -0.00239
 119        4S          0.00001   0.00001   0.06655  -0.04076   0.00643
 120        5S          0.00002   0.00002  -0.00211   0.00778   0.00350
 121        6S          0.00001   0.00001  -0.00154  -0.00213   0.00300
 122        7PX         0.68643   0.69785   0.00002   0.00030  -0.00007
 123        7PY        -0.69785   0.68643   0.00022   0.00036  -0.00002
 124        7PZ         0.00011  -0.00049   0.50091   0.83587  -0.04716
 125        8PX        -0.01343  -0.01365   0.00000  -0.00001   0.00000
 126        8PY         0.01365  -0.01343   0.00000  -0.00001   0.00000
 127        8PZ         0.00000   0.00001  -0.00878  -0.01404   0.00011
 128        9PX         0.03670   0.03731   0.00000   0.00002   0.00000
 129        9PY        -0.03731   0.03670   0.00001   0.00002   0.00000
 130        9PZ         0.00001  -0.00003   0.02844   0.04954  -0.00267
 131       10PX        -0.00406  -0.00412   0.00000   0.00000   0.00001
 132       10PY         0.00412  -0.00405   0.00000   0.00000   0.00000
 133       10PZ        -0.00001   0.00000  -0.00435  -0.00275  -0.00347
 134       11PX        -0.00151  -0.00153   0.00000   0.00000   0.00000
 135       11PY         0.00153  -0.00150   0.00000   0.00000   0.00000
 136       11PZ         0.00000   0.00000  -0.00036  -0.00015  -0.00053
 137       12D 0        0.00000   0.00000   0.00001  -0.00051  -0.00017
 138       12D+1       -0.00022  -0.00023   0.00000   0.00000   0.00000
 139       12D-1        0.00023  -0.00022   0.00000   0.00000   0.00000
 140       12D+2       -0.00001   0.00001   0.00000   0.00000   0.00000
 141       12D-2        0.00001   0.00001   0.00000   0.00000   0.00000
 142       13D 0        0.00000   0.00000   0.00088   0.00244   0.00042
 143       13D+1        0.00057   0.00058   0.00000   0.00000   0.00000
 144       13D-1       -0.00058   0.00057   0.00000   0.00000   0.00000
 145       13D+2        0.00001  -0.00001   0.00000   0.00000   0.00000
 146       13D-2       -0.00001  -0.00001   0.00000   0.00000   0.00000
 147       14D 0        0.00000   0.00000   0.00058  -0.00018   0.00080
 148       14D+1       -0.00050  -0.00051   0.00000   0.00000   0.00000
 149       14D-1        0.00051  -0.00050   0.00000   0.00000   0.00000
 150       14D+2       -0.00002   0.00002   0.00000   0.00000   0.00000
 151       14D-2        0.00002   0.00002   0.00000   0.00000   0.00000
 152       15F 0        0.00000   0.00000   0.00001  -0.00007  -0.00003
 153       15F+1        0.00000   0.00000   0.00000   0.00000   0.00000
 154       15F-1        0.00000   0.00000   0.00000   0.00000   0.00000
 155       15F+2       -0.00002   0.00002   0.00000   0.00000   0.00000
 156       15F-2        0.00002   0.00002   0.00000   0.00000   0.00000
 157       15F+3        0.00000   0.00000   0.00000   0.00000   0.00000
 158       15F-3        0.00000   0.00000   0.00001   0.00003   0.00000
 159       16F 0        0.00000   0.00000  -0.00032  -0.00058  -0.00031
 160       16F+1       -0.00016  -0.00016   0.00000   0.00000   0.00000
 161       16F-1        0.00016  -0.00016   0.00000   0.00000   0.00000
 162       16F+2        0.00002  -0.00002   0.00000   0.00000   0.00000
 163       16F-2       -0.00002  -0.00002   0.00000   0.00000   0.00000
 164       16F+3        0.00000   0.00000   0.00000   0.00000   0.00000
 165       16F-3        0.00000   0.00000  -0.00002  -0.00005   0.00002
 166 6   F  1S          0.00000   0.00000  -0.00144  -0.01041  -0.04976
 167        2S          0.00000   0.00000   0.00020   0.00043   0.00080
 168        3S          0.00000   0.00000  -0.00007  -0.00045  -0.00202
 169        4S          0.00001   0.00001  -0.00055  -0.00105   0.00056
 170        5S          0.00001   0.00001   0.00010  -0.00168   0.00178
 171        6PX        -0.00003  -0.00003   0.00000   0.00000   0.00000
 172        6PY         0.00003  -0.00003   0.00000   0.00000   0.00000
 173        6PZ         0.00000   0.00000   0.00058   0.00111   0.00011
 174        7PX         0.00000   0.00000   0.00000   0.00000   0.00000
 175        7PY         0.00000   0.00000   0.00000   0.00000   0.00000
 176        7PZ         0.00000   0.00000   0.00069   0.00132   0.00002
 177        8PX        -0.00017  -0.00017   0.00000   0.00000   0.00000
 178        8PY         0.00017  -0.00017   0.00000   0.00000   0.00000
 179        8PZ         0.00000   0.00000   0.00008   0.00017   0.00048
 180        9PX        -0.00025  -0.00025   0.00000   0.00000   0.00000
 181        9PY         0.00026  -0.00025   0.00000   0.00000   0.00000
 182        9PZ         0.00000   0.00000   0.00017  -0.00009   0.00071
 183       10D 0        0.00000   0.00000   0.00001   0.00001  -0.00002
 184       10D+1        0.00000   0.00000   0.00000   0.00000   0.00000
 185       10D-1        0.00000   0.00000   0.00000   0.00000   0.00000
 186       10D+2        0.00000   0.00000   0.00000   0.00000   0.00000
 187       10D-2        0.00000   0.00000   0.00000   0.00000   0.00000
 188       11D 0        0.00000   0.00000  -0.00003  -0.00010   0.00001
 189       11D+1        0.00003   0.00003   0.00000   0.00000   0.00000
 190       11D-1       -0.00003   0.00003   0.00000   0.00000   0.00000
 191       11D+2        0.00002  -0.00002   0.00000   0.00000   0.00000
 192       11D-2       -0.00002  -0.00002   0.00000   0.00000   0.00000
 193       12D 0        0.00000   0.00000  -0.00019  -0.00012   0.00011
 194       12D+1       -0.00016  -0.00016   0.00000   0.00000   0.00000
 195       12D-1        0.00016  -0.00016   0.00000   0.00000   0.00000
 196       12D+2       -0.00008   0.00008   0.00000   0.00000   0.00000
 197       12D-2        0.00008   0.00008   0.00000   0.00000   0.00000
 198       13F 0        0.00000   0.00000   0.00001  -0.00001  -0.00004
 199       13F+1        0.00001   0.00001   0.00000   0.00000   0.00000
 200       13F-1       -0.00001   0.00001   0.00000   0.00000   0.00000
 201       13F+2        0.00001  -0.00001   0.00000   0.00000   0.00000
 202       13F-2       -0.00001  -0.00001   0.00000   0.00000   0.00000
 203       13F+3        0.00000   0.00000   0.00000   0.00000   0.00000
 204       13F-3        0.00000   0.00000   0.00000   0.00000   0.00000
 205       14F 0        0.00000   0.00000  -0.00004   0.00002   0.00013
 206       14F+1       -0.00004  -0.00004   0.00000   0.00000   0.00000
 207       14F-1        0.00004  -0.00004   0.00000   0.00000   0.00000
 208       14F+2       -0.00003   0.00003   0.00000   0.00000   0.00000
 209       14F-2        0.00003   0.00003   0.00000   0.00000   0.00000
 210       14F+3        0.00000   0.00000   0.00000   0.00000   0.00000
 211       14F-3        0.00000   0.00000   0.00000   0.00000  -0.00001
                           6         7         8         9        10
     Eigenvalues --     2.00000   2.00000   1.98361   1.97543   1.96949
   1 1   C  1S          0.05039  -0.00046   0.01542  -0.07337  -0.14372
   2        2S         -0.00012  -0.00001  -0.04201   0.19909   0.39728
   3        3S          0.00230  -0.00003  -0.01040   0.04619   0.09614
   4        4S         -0.00699   0.00016   0.00557   0.07906   0.19078
   5        5S         -0.00016   0.00010   0.00785  -0.00690  -0.02890
   6        6PX         0.00000   0.00000   0.00002  -0.00019  -0.00083
   7        6PY         0.00000   0.00000   0.00000   0.00001   0.00002
   8        6PZ         0.00004   0.00000   0.00646   0.01034  -0.02723
   9        7PX         0.00000   0.00000   0.00006  -0.00029  -0.00117
  10        7PY         0.00000   0.00000   0.00000   0.00002   0.00002
  11        7PZ        -0.00075   0.00000   0.00706   0.01790  -0.03246
  12        8PX         0.00002   0.00000  -0.00007   0.00020  -0.00018
  13        8PY         0.00000   0.00000   0.00001   0.00001   0.00001
  14        8PZ         0.00519   0.00009   0.01660   0.00589  -0.02271
  15        9PX         0.00000   0.00000  -0.00003   0.00005   0.00008
  16        9PY         0.00000   0.00000   0.00000   0.00000   0.00000
  17        9PZ         0.00011   0.00001  -0.00071   0.00033  -0.00407
  18       10D 0        0.00004   0.00000   0.00051  -0.00214  -0.00956
  19       10D+1        0.00000   0.00000   0.00000   0.00001   0.00002
  20       10D-1        0.00000   0.00000   0.00000   0.00000  -0.00001
  21       10D+2        0.00000   0.00000   0.00000   0.00000   0.00000
  22       10D-2        0.00000   0.00000  -0.00001   0.00004   0.00006
  23       11D 0       -0.00023  -0.00002  -0.00529   0.00462  -0.01876
  24       11D+1        0.00000   0.00000  -0.00002   0.00002   0.00004
  25       11D-1        0.00000   0.00000   0.00000   0.00000  -0.00001
  26       11D+2        0.00000   0.00000   0.00000   0.00000   0.00001
  27       11D-2        0.00000   0.00000   0.00002   0.00011   0.00018
  28       12D 0        0.00027   0.00008   0.00206  -0.00841  -0.01668
  29       12D+1       -0.00002   0.00000  -0.00002  -0.00006  -0.00004
  30       12D-1        0.00000   0.00000   0.00000  -0.00001  -0.00001
  31       12D+2        0.00000   0.00000   0.00000   0.00000   0.00000
  32       12D-2        0.00001   0.00000   0.00010   0.00001  -0.00005
  33       13F 0       -0.00007   0.00000   0.00000   0.00242   0.00064
  34       13F+1        0.00000   0.00000   0.00000   0.00001   0.00002
  35       13F-1        0.00000   0.00000   0.00000   0.00000   0.00000
  36       13F+2        0.00000   0.00000   0.00000   0.00000   0.00000
  37       13F-2        0.00000   0.00000   0.00000  -0.00001  -0.00001
  38       13F+3        0.00000   0.00000   0.00000   0.00002   0.00004
  39       13F-3        0.00001   0.00000  -0.00014   0.00194   0.00397
  40       14F 0        0.00127  -0.00001   0.00471   0.00261  -0.00198
  41       14F+1        0.00000   0.00000   0.00002  -0.00001   0.00000
  42       14F-1        0.00000   0.00000   0.00001   0.00000   0.00000
  43       14F+2        0.00000   0.00000   0.00000   0.00000   0.00000
  44       14F-2        0.00000   0.00000  -0.00002  -0.00001  -0.00001
  45       14F+3        0.00000   0.00000   0.00002  -0.00001   0.00004
  46       14F-3       -0.00044   0.00003   0.00188  -0.00100   0.00404
  47 2   H  1S         -0.00008   0.00000  -0.00857   0.03716   0.08051
  48        2S          0.00098  -0.00006  -0.01531   0.04377   0.08371
  49        3S          0.00181   0.00004  -0.00090  -0.00490  -0.01203
  50        4S          0.00003   0.00000  -0.00047   0.00051   0.00039
  51        5PX         0.00000   0.00000  -0.00001   0.00003   0.00006
  52        5PY         0.00001   0.00000  -0.00109   0.00399   0.00863
  53        5PZ        -0.00004   0.00000   0.00028   0.00095   0.00034
  54        6PX         0.00001   0.00000  -0.00002   0.00006   0.00003
  55        6PY         0.00008   0.00000  -0.00073   0.00080   0.00121
  56        6PZ         0.00032  -0.00001   0.00008   0.00243  -0.00051
  57        7PX         0.00001   0.00000   0.00010  -0.00007  -0.00016
  58        7PY         0.00043   0.00001   0.00135  -0.00496  -0.01032
  59        7PZ        -0.00055   0.00001  -0.00280  -0.00173  -0.00131
  60        8D 0        0.00006   0.00000   0.00014  -0.00035  -0.00091
  61        8D+1        0.00000   0.00000   0.00000   0.00000   0.00000
  62        8D-1       -0.00001   0.00000  -0.00015   0.00049   0.00023
  63        8D+2       -0.00002   0.00000   0.00003  -0.00054  -0.00137
  64        8D-2        0.00000   0.00000   0.00000   0.00001   0.00003
  65        9D 0        0.00009  -0.00001  -0.00006   0.00122   0.00101
  66        9D+1        0.00000   0.00000  -0.00001   0.00000   0.00000
  67        9D-1        0.00014   0.00000  -0.00006   0.00004  -0.00038
  68        9D+2        0.00004   0.00000  -0.00098   0.00225   0.00415
  69        9D-2        0.00000   0.00000   0.00002  -0.00001  -0.00003
  70 3   H  1S         -0.00008   0.00000  -0.00857   0.03723   0.08087
  71        2S          0.00098  -0.00006  -0.01527   0.04386   0.08412
  72        3S          0.00184   0.00004  -0.00083  -0.00464  -0.01188
  73        4S          0.00003   0.00000  -0.00049   0.00055   0.00047
  74        5PX         0.00001   0.00000  -0.00094   0.00346   0.00750
  75        5PY        -0.00001   0.00000   0.00054  -0.00200  -0.00434
  76        5PZ        -0.00004   0.00000   0.00028   0.00096   0.00035
  77        6PX         0.00007   0.00000  -0.00062   0.00069   0.00101
  78        6PY        -0.00004   0.00000   0.00035  -0.00037  -0.00057
  79        6PZ         0.00032  -0.00001   0.00006   0.00243  -0.00050
  80        7PX         0.00038   0.00001   0.00120  -0.00426  -0.00898
  81        7PY        -0.00022   0.00000  -0.00064   0.00245   0.00515
  82        7PZ        -0.00056   0.00001  -0.00281  -0.00175  -0.00133
  83        8D 0        0.00006   0.00000   0.00014  -0.00035  -0.00091
  84        8D+1       -0.00001   0.00000  -0.00013   0.00043   0.00020
  85        8D-1        0.00000   0.00000   0.00007  -0.00025  -0.00012
  86        8D+2        0.00001   0.00000  -0.00002   0.00027   0.00069
  87        8D-2       -0.00001   0.00000   0.00003  -0.00047  -0.00119
  88        9D 0        0.00009  -0.00001  -0.00006   0.00123   0.00103
  89        9D+1        0.00012   0.00000  -0.00005   0.00003  -0.00033
  90        9D-1       -0.00007   0.00000   0.00003  -0.00002   0.00019
  91        9D+2       -0.00002   0.00000   0.00050  -0.00112  -0.00207
  92        9D-2        0.00003   0.00000  -0.00086   0.00197   0.00364
  93 4   H  1S         -0.00008   0.00000  -0.00858   0.03712   0.08019
  94        2S          0.00097  -0.00006  -0.01535   0.04368   0.08333
  95        3S          0.00178   0.00004  -0.00098  -0.00518  -0.01221
  96        4S          0.00003   0.00000  -0.00045   0.00047   0.00031
  97        5PX        -0.00001   0.00000   0.00094  -0.00345  -0.00745
  98        5PY        -0.00001   0.00000   0.00054  -0.00199  -0.00429
  99        5PZ        -0.00004   0.00000   0.00027   0.00096   0.00035
 100        6PX        -0.00006   0.00000   0.00065  -0.00070  -0.00109
 101        6PY        -0.00004   0.00000   0.00038  -0.00043  -0.00064
 102        6PZ         0.00032  -0.00001   0.00009   0.00242  -0.00052
 103        7PX        -0.00037  -0.00001  -0.00115   0.00433   0.00891
 104        7PY        -0.00022   0.00000  -0.00071   0.00251   0.00517
 105        7PZ        -0.00054   0.00001  -0.00279  -0.00172  -0.00131
 106        8D 0        0.00006   0.00000   0.00014  -0.00035  -0.00091
 107        8D+1        0.00001   0.00000   0.00013  -0.00043  -0.00020
 108        8D-1        0.00000   0.00000   0.00007  -0.00025  -0.00012
 109        8D+2        0.00001   0.00000  -0.00002   0.00027   0.00068
 110        8D-2        0.00001   0.00000  -0.00003   0.00047   0.00118
 111        9D 0        0.00009  -0.00001  -0.00006   0.00121   0.00099
 112        9D+1       -0.00012   0.00000   0.00005  -0.00003   0.00033
 113        9D-1       -0.00007   0.00000   0.00003  -0.00002   0.00019
 114        9D+2       -0.00002   0.00000   0.00049  -0.00113  -0.00208
 115        9D-2       -0.00003   0.00000   0.00084  -0.00193  -0.00356
 116 5   Cl 1S          0.00007   0.99708  -0.00064   0.06648  -0.03479
 117        2S         -0.00007   0.01040   0.00292  -0.25194   0.13075
 118        3S          0.00005   0.00017  -0.00391   0.52472  -0.27820
 119        4S          0.00008   0.00026  -0.00025   0.06428  -0.03748
 120        5S         -0.00181  -0.00020  -0.01230   0.35097  -0.17053
 121        6S         -0.00050  -0.00011  -0.00461   0.02452   0.01131
 122        7PX         0.00000   0.00000   0.00000   0.00001   0.00007
 123        7PY         0.00000   0.00000   0.00000   0.00000   0.00001
 124        7PZ         0.00733   0.00016   0.00152   0.00459   0.02880
 125        8PX         0.00000   0.00000   0.00000  -0.00002  -0.00017
 126        8PY         0.00000   0.00000   0.00000   0.00000  -0.00003
 127        8PZ         0.00051  -0.00003  -0.00227  -0.00602  -0.07208
 128        9PX         0.00000   0.00000   0.00000   0.00000  -0.00007
 129        9PY         0.00000   0.00000   0.00000   0.00000  -0.00001
 130        9PZ         0.00032   0.00003  -0.00264   0.00068  -0.03141
 131       10PX         0.00001   0.00000   0.00001   0.00000  -0.00008
 132       10PY         0.00000   0.00000   0.00000   0.00000  -0.00002
 133       10PZ         0.00096   0.00015   0.00271   0.00302  -0.05237
 134       11PX         0.00000   0.00000   0.00000   0.00000  -0.00001
 135       11PY         0.00000   0.00000   0.00000   0.00000   0.00000
 136       11PZ         0.00002   0.00002  -0.00040   0.00263  -0.00875
 137       12D 0       -0.00003   0.00001  -0.00035   0.00448   0.00453
 138       12D+1        0.00000   0.00000   0.00000   0.00000   0.00002
 139       12D-1        0.00000   0.00000   0.00000   0.00000   0.00000
 140       12D+2        0.00000   0.00000   0.00000   0.00000   0.00000
 141       12D-2        0.00000   0.00000   0.00000   0.00000   0.00000
 142       13D 0       -0.00022   0.00000  -0.00163   0.00820   0.00969
 143       13D+1        0.00000   0.00000   0.00000   0.00001   0.00003
 144       13D-1        0.00000   0.00000   0.00000   0.00001   0.00001
 145       13D+2        0.00000   0.00000   0.00000   0.00000   0.00000
 146       13D-2        0.00000   0.00000   0.00000   0.00001   0.00000
 147       14D 0       -0.00014  -0.00004  -0.00184  -0.00018   0.00539
 148       14D+1        0.00000   0.00000  -0.00001   0.00000   0.00001
 149       14D-1        0.00000   0.00000   0.00000   0.00000   0.00000
 150       14D+2        0.00000   0.00000   0.00000   0.00000   0.00000
 151       14D-2        0.00000   0.00000   0.00000   0.00001   0.00001
 152       15F 0        0.00005   0.00000   0.00023  -0.00180  -0.00192
 153       15F+1        0.00000   0.00000   0.00000   0.00000  -0.00001
 154       15F-1        0.00000   0.00000   0.00000   0.00000   0.00000
 155       15F+2        0.00000   0.00000   0.00000   0.00000   0.00000
 156       15F-2        0.00000   0.00000   0.00000   0.00000   0.00000
 157       15F+3        0.00000   0.00000   0.00000   0.00000   0.00000
 158       15F-3       -0.00001   0.00000  -0.00001   0.00002   0.00009
 159       16F 0       -0.00005   0.00001   0.00005  -0.00093  -0.00171
 160       16F+1        0.00000   0.00000   0.00000   0.00000  -0.00001
 161       16F-1        0.00000   0.00000   0.00000   0.00000   0.00000
 162       16F+2        0.00000   0.00000   0.00000   0.00000   0.00000
 163       16F-2        0.00000   0.00000   0.00000   0.00000   0.00000
 164       16F+3        0.00000   0.00000   0.00000   0.00000   0.00000
 165       16F-3        0.00003   0.00000   0.00002  -0.00001  -0.00021
 166 6   F  1S          0.97743  -0.00002   0.21189   0.01315   0.02162
 167        2S         -0.01503   0.00000  -0.53161  -0.03404  -0.05732
 168        3S          0.04206   0.00000  -0.16471  -0.01081  -0.01853
 169        4S          0.00193  -0.00001  -0.36876  -0.02363  -0.04391
 170        5S         -0.00083  -0.00006  -0.04529   0.00420   0.00781
 171        6PX         0.00000   0.00000  -0.00002  -0.00003  -0.00032
 172        6PY         0.00000   0.00000   0.00001   0.00001   0.00005
 173        6PZ         0.00048   0.00000   0.01352   0.01270   0.08750
 174        7PX         0.00000   0.00000  -0.00002  -0.00004  -0.00039
 175        7PY         0.00000   0.00000   0.00001   0.00001   0.00006
 176        7PZ        -0.00012   0.00000   0.01475   0.01551   0.10528
 177        8PX         0.00000   0.00000  -0.00002  -0.00003  -0.00031
 178        8PY         0.00000   0.00000   0.00001   0.00001   0.00004
 179        8PZ         0.00240  -0.00001   0.01247   0.01225   0.08373
 180        9PX         0.00000   0.00000   0.00000  -0.00001  -0.00009
 181        9PY         0.00000   0.00000   0.00000   0.00000   0.00001
 182        9PZ        -0.00008  -0.00002   0.00220   0.00315   0.02424
 183       10D 0       -0.00002   0.00000  -0.00013   0.00017   0.00060
 184       10D+1        0.00000   0.00000   0.00000   0.00000   0.00000
 185       10D-1        0.00000   0.00000   0.00000   0.00000   0.00000
 186       10D+2        0.00000   0.00000   0.00000   0.00000   0.00000
 187       10D-2        0.00000   0.00000   0.00000   0.00000   0.00000
 188       11D 0       -0.00003   0.00000  -0.00104   0.00091   0.00275
 189       11D+1        0.00000   0.00000   0.00000   0.00000  -0.00001
 190       11D-1        0.00000   0.00000   0.00000   0.00000   0.00000
 191       11D+2        0.00000   0.00000   0.00000   0.00000   0.00000
 192       11D-2        0.00000   0.00000   0.00000   0.00000   0.00000
 193       12D 0        0.00080   0.00000  -0.00055   0.00035   0.00386
 194       12D+1        0.00000   0.00000   0.00000   0.00000  -0.00001
 195       12D-1        0.00000   0.00000   0.00000   0.00000   0.00000
 196       12D+2        0.00000   0.00000   0.00000   0.00000   0.00000
 197       12D-2        0.00000   0.00000  -0.00001   0.00000   0.00000
 198       13F 0       -0.00006   0.00000  -0.00002   0.00013   0.00027
 199       13F+1        0.00000   0.00000   0.00000   0.00000   0.00000
 200       13F-1        0.00000   0.00000   0.00000   0.00000   0.00000
 201       13F+2        0.00000   0.00000   0.00000   0.00000   0.00000
 202       13F-2        0.00000   0.00000   0.00000   0.00000   0.00000
 203       13F+3        0.00000   0.00000   0.00000   0.00000   0.00000
 204       13F-3        0.00001   0.00000   0.00001   0.00002   0.00003
 205       14F 0        0.00020   0.00000  -0.00040  -0.00006   0.00063
 206       14F+1        0.00000   0.00000   0.00000   0.00000   0.00000
 207       14F-1        0.00000   0.00000   0.00000   0.00000   0.00000
 208       14F+2        0.00000   0.00000   0.00000   0.00000   0.00000
 209       14F-2        0.00000   0.00000   0.00000   0.00000   0.00000
 210       14F+3        0.00000   0.00000   0.00000   0.00000   0.00000
 211       14F-3       -0.00001   0.00000  -0.00007  -0.00006  -0.00009
                          11        12        13        14        15
     Eigenvalues --     1.96437   1.96436   1.95927   1.95920   1.94911
   1 1   C  1S         -0.00025  -0.00025  -0.00028  -0.00029   0.00035
   2        2S          0.00071   0.00072   0.00081   0.00083  -0.00098
   3        3S          0.00017   0.00017   0.00019   0.00019  -0.00024
   4        4S          0.00058   0.00057   0.00066   0.00062  -0.00175
   5        5S          0.00005   0.00004   0.00021   0.00020  -0.00024
   6        6PX         0.07053   0.06783   0.16525   0.16148   0.04890
   7        6PY         0.06900  -0.06932   0.16105  -0.16567   0.04685
   8        6PZ        -0.00009  -0.00003  -0.00014   0.00000  -0.00036
   9        7PX         0.09449   0.09088   0.21902   0.21404   0.06798
  10        7PY         0.09245  -0.09288   0.21346  -0.21960   0.06514
  11        7PZ        -0.00011  -0.00003  -0.00019   0.00000  -0.00051
  12        8PX         0.06897   0.06673   0.16885   0.16545   0.05219
  13        8PY         0.06747  -0.06819   0.16456  -0.16974   0.05000
  14        8PZ        -0.00006  -0.00001  -0.00019  -0.00005  -0.00051
  15        9PX        -0.00162  -0.00148   0.01348   0.01331   0.00880
  16        9PY        -0.00159   0.00152   0.01314  -0.01366   0.00843
  17        9PZ         0.00001   0.00000  -0.00002  -0.00001  -0.00001
  18       10D 0        0.00000  -0.00001   0.00001   0.00000   0.00007
  19       10D+1       -0.00194  -0.00188  -0.00092  -0.00089  -0.00270
  20       10D-1       -0.00190   0.00192  -0.00089   0.00090  -0.00258
  21       10D+2        0.00441  -0.00440   0.01037  -0.01060   0.00348
  22       10D-2        0.00442   0.00439   0.01043   0.01054   0.00356
  23       11D 0       -0.00001  -0.00002   0.00000   0.00001   0.00035
  24       11D+1       -0.00913  -0.00888   0.00546   0.00532  -0.01119
  25       11D-1       -0.00892   0.00906   0.00535  -0.00549  -0.01072
  26       11D+2        0.01462  -0.01457   0.03171  -0.03239   0.01181
  27       11D-2        0.01464   0.01454   0.03191   0.03221   0.01208
  28       12D 0       -0.00011  -0.00012  -0.00004  -0.00004   0.00025
  29       12D+1       -0.00435  -0.00427   0.00407   0.00395   0.00086
  30       12D-1       -0.00425   0.00435   0.00399  -0.00408   0.00083
  31       12D+2        0.01410  -0.01428   0.02505  -0.02584   0.00693
  32       12D-2        0.01413   0.01426   0.02521   0.02570   0.00710
  33       13F 0        0.00000   0.00000   0.00000   0.00000  -0.00001
  34       13F+1        0.00017   0.00018  -0.00145  -0.00140  -0.00161
  35       13F-1        0.00017  -0.00019  -0.00141   0.00143  -0.00155
  36       13F+2       -0.00045   0.00045  -0.00008   0.00009  -0.00023
  37       13F-2       -0.00045  -0.00045  -0.00009  -0.00009  -0.00024
  38       13F+3       -0.00001   0.00001  -0.00003   0.00003  -0.00001
  39       13F-3        0.00001   0.00001   0.00003   0.00003  -0.00001
  40       14F 0        0.00001   0.00001   0.00001   0.00000  -0.00004
  41       14F+1        0.00027   0.00028  -0.00420  -0.00404  -0.00524
  42       14F-1        0.00026  -0.00028  -0.00410   0.00415  -0.00503
  43       14F+2       -0.00273   0.00273  -0.00009   0.00008  -0.00226
  44       14F-2       -0.00274  -0.00272  -0.00010  -0.00009  -0.00231
  45       14F+3       -0.00005   0.00006  -0.00017   0.00017  -0.00001
  46       14F-3       -0.00001  -0.00001   0.00000  -0.00001  -0.00008
  47 2   H  1S         -0.04761   0.04756  -0.10608   0.10826  -0.03262
  48        2S         -0.04303   0.04283  -0.10815   0.11029  -0.03198
  49        3S          0.04048  -0.04136   0.08304  -0.08567   0.00366
  50        4S         -0.00411   0.00407   0.01210  -0.01248   0.00073
  51        5PX         0.00145   0.00150   0.00301   0.00317   0.00073
  52        5PY        -0.00376   0.00371  -0.00872   0.00880  -0.00252
  53        5PZ         0.00002  -0.00003  -0.00197   0.00199   0.00011
  54        6PX         0.00581   0.00555   0.00972   0.00954   0.00274
  55        6PY         0.00504  -0.00515   0.00773  -0.00815   0.00387
  56        6PZ        -0.00196   0.00197   0.00026  -0.00030  -0.00081
  57        7PX         0.00678   0.00631   0.00982   0.00906   0.00208
  58        7PY         0.00993  -0.00995   0.03185  -0.03263   0.00677
  59        7PZ         0.00045  -0.00047   0.00531  -0.00542   0.00212
  60        8D 0        0.00029  -0.00029   0.00095  -0.00097   0.00028
  61        8D+1        0.00001   0.00002   0.00022   0.00022  -0.00003
  62        8D-1       -0.00053   0.00053  -0.00017   0.00017  -0.00020
  63        8D+2        0.00044  -0.00041   0.00139  -0.00133   0.00038
  64        8D-2        0.00075   0.00074   0.00157   0.00160   0.00042
  65        9D 0       -0.00039   0.00038   0.00099  -0.00108  -0.00012
  66        9D+1       -0.00113  -0.00105   0.00073   0.00068  -0.00087
  67        9D-1       -0.00234   0.00238   0.00241  -0.00243  -0.00030
  68        9D+2       -0.00113   0.00115  -0.00184   0.00194  -0.00073
  69        9D-2        0.00123   0.00110   0.00211   0.00196   0.00083
  70 3   H  1S         -0.01803  -0.06423  -0.04062  -0.14617  -0.01314
  71        2S         -0.01630  -0.05787  -0.04143  -0.14898  -0.01280
  72        3S          0.01529   0.05568   0.03173   0.11543   0.00154
  73        4S         -0.00156  -0.00552   0.00462   0.01682   0.00029
  74        5PX        -0.00021  -0.00463  -0.00079  -0.01093  -0.00037
  75        5PY         0.00246   0.00203   0.00530   0.00494   0.00138
  76        5PZ         0.00000   0.00003  -0.00076  -0.00270   0.00003
  77        6PX         0.00557   0.00491   0.00916   0.00755   0.00313
  78        6PY         0.00578  -0.00528   0.00987  -0.00864   0.00229
  79        6PZ        -0.00074  -0.00265   0.00009   0.00040  -0.00033
  80        7PX         0.00772   0.01040   0.01697   0.03634   0.00370
  81        7PY         0.00578  -0.00876   0.00489  -0.02509   0.00090
  82        7PZ         0.00016   0.00062   0.00204   0.00735   0.00088
  83        8D 0        0.00011   0.00039   0.00036   0.00131   0.00011
  84        8D+1       -0.00016  -0.00062   0.00009  -0.00024  -0.00009
  85        8D-1        0.00012   0.00035   0.00030   0.00004   0.00002
  86        8D+2        0.00080  -0.00052   0.00160  -0.00145   0.00042
  87        8D-2        0.00065   0.00036   0.00153   0.00130   0.00042
  88        9D 0       -0.00014  -0.00050   0.00038   0.00144  -0.00005
  89        9D+1       -0.00151  -0.00258   0.00128   0.00271  -0.00067
  90        9D-1       -0.00084   0.00195   0.00037  -0.00188  -0.00092
  91        9D+2        0.00159   0.00041   0.00274   0.00064   0.00107
  92        9D-2        0.00041  -0.00154   0.00075  -0.00261   0.00028
  93 4   H  1S          0.06578   0.01682   0.14662   0.03784   0.04496
  94        2S          0.05941   0.01513   0.14935   0.03852   0.04440
  95        3S         -0.05614  -0.01469  -0.11510  -0.03003  -0.00485
  96        4S          0.00565   0.00143  -0.01676  -0.00437  -0.00104
  97        5PX        -0.00474  -0.00014  -0.01093  -0.00055  -0.00313
  98        5PY        -0.00213  -0.00240  -0.00507  -0.00522  -0.00152
  99        5PZ        -0.00002  -0.00001   0.00271   0.00069  -0.00019
 100        6PX         0.00507   0.00542   0.00773   0.00904   0.00422
 101        6PY         0.00528  -0.00579   0.00832  -0.01002   0.00350
 102        6PZ         0.00271   0.00070  -0.00037  -0.00010   0.00111
 103        7PX         0.01072   0.00752   0.03649   0.01637   0.00770
 104        7PY         0.00896  -0.00607   0.02493  -0.00566   0.00524
 105        7PZ        -0.00065  -0.00017  -0.00737  -0.00190  -0.00281
 106        8D 0       -0.00040  -0.00010  -0.00132  -0.00034  -0.00039
 107        8D+1       -0.00063  -0.00015  -0.00024   0.00010  -0.00024
 108        8D-1       -0.00036  -0.00011  -0.00005  -0.00030  -0.00015
 109        8D+2        0.00053  -0.00080   0.00142  -0.00165   0.00038
 110        8D-2        0.00038   0.00064   0.00134   0.00150   0.00036
 111        9D 0        0.00055   0.00014  -0.00140  -0.00038   0.00016
 112        9D+1       -0.00259  -0.00147   0.00276   0.00121  -0.00025
 113        9D-1       -0.00195   0.00087   0.00187  -0.00042  -0.00049
 114        9D+2       -0.00041  -0.00158  -0.00065  -0.00276  -0.00028
 115        9D-2       -0.00158   0.00045  -0.00259   0.00084  -0.00105
 116 5   Cl 1S         -0.00003  -0.00003  -0.00003  -0.00003   0.00007
 117        2S          0.00012   0.00013   0.00010   0.00011  -0.00027
 118        3S         -0.00027  -0.00028  -0.00022  -0.00023   0.00056
 119        4S         -0.00004  -0.00004  -0.00003  -0.00003   0.00009
 120        5S         -0.00014  -0.00014  -0.00015  -0.00015   0.00043
 121        6S          0.00002   0.00002  -0.00005  -0.00005   0.00010
 122        7PX        -0.00635  -0.00610  -0.03102  -0.03064   0.16146
 123        7PY        -0.00621   0.00623  -0.03024   0.03144   0.15473
 124        7PZ         0.00007   0.00006   0.00013   0.00011   0.00010
 125        8PX         0.01503   0.01443   0.07333   0.07239  -0.36936
 126        8PY         0.01471  -0.01475   0.07147  -0.07427  -0.35397
 127        8PZ        -0.00016  -0.00015  -0.00029  -0.00024  -0.00023
 128        9PX         0.00697   0.00670   0.03391   0.03349  -0.17842
 129        9PY         0.00682  -0.00685   0.03305  -0.03436  -0.17099
 130        9PZ        -0.00007  -0.00007  -0.00013  -0.00011  -0.00012
 131       10PX         0.00750   0.00720   0.03967   0.03922  -0.26549
 132       10PY         0.00734  -0.00736   0.03866  -0.04024  -0.25443
 133       10PZ        -0.00010  -0.00010  -0.00015  -0.00013  -0.00033
 134       11PX         0.00153   0.00147   0.00240   0.00239  -0.04487
 135       11PY         0.00149  -0.00151   0.00234  -0.00245  -0.04300
 136       11PZ        -0.00002  -0.00002   0.00000   0.00000  -0.00013
 137       12D 0        0.00001   0.00001   0.00002   0.00002  -0.00003
 138       12D+1       -0.00136  -0.00131  -0.00441  -0.00433   0.00017
 139       12D-1       -0.00133   0.00134  -0.00430   0.00444   0.00016
 140       12D+2        0.00008  -0.00008   0.00038  -0.00039   0.00017
 141       12D-2        0.00008   0.00008   0.00038   0.00039   0.00017
 142       13D 0        0.00002   0.00002   0.00003   0.00002  -0.00005
 143       13D+1       -0.00210  -0.00201  -0.00783  -0.00766   0.00051
 144       13D-1       -0.00205   0.00205  -0.00763   0.00786   0.00049
 145       13D+2        0.00023  -0.00023   0.00045  -0.00047   0.00039
 146       13D-2        0.00023   0.00023   0.00045   0.00046   0.00040
 147       14D 0        0.00000   0.00000   0.00001   0.00001   0.00001
 148       14D+1        0.00004   0.00005   0.00003   0.00004   0.00243
 149       14D-1        0.00004  -0.00005   0.00002  -0.00004   0.00233
 150       14D+2       -0.00046   0.00047  -0.00005   0.00005   0.00005
 151       14D-2       -0.00046  -0.00047  -0.00005  -0.00005   0.00006
 152       15F 0       -0.00001   0.00000  -0.00001  -0.00001   0.00001
 153       15F+1        0.00064   0.00061   0.00188   0.00184  -0.00102
 154       15F-1        0.00062  -0.00063   0.00183  -0.00189  -0.00098
 155       15F+2       -0.00008   0.00008  -0.00024   0.00024  -0.00007
 156       15F-2       -0.00008  -0.00008  -0.00024  -0.00024  -0.00007
 157       15F+3        0.00000   0.00000   0.00000   0.00000   0.00000
 158       15F-3        0.00000   0.00000   0.00000   0.00000   0.00000
 159       16F 0        0.00000   0.00000  -0.00001   0.00000   0.00001
 160       16F+1        0.00043   0.00041   0.00144   0.00140  -0.00130
 161       16F-1        0.00042  -0.00042   0.00140  -0.00144  -0.00124
 162       16F+2        0.00001  -0.00001   0.00013  -0.00013  -0.00014
 163       16F-2        0.00001   0.00001   0.00013   0.00013  -0.00015
 164       16F+3        0.00000   0.00000   0.00000   0.00000   0.00001
 165       16F-3        0.00000   0.00000   0.00000   0.00000   0.00000
 166 6   F  1S          0.00004   0.00004   0.00002   0.00003  -0.00008
 167        2S         -0.00010  -0.00010  -0.00007  -0.00007   0.00018
 168        3S         -0.00003  -0.00003  -0.00002  -0.00003   0.00005
 169        4S         -0.00006  -0.00006  -0.00008  -0.00008   0.00009
 170        5S          0.00003   0.00003  -0.00003  -0.00003  -0.00003
 171        6PX         0.23703   0.23276  -0.11685  -0.11217  -0.01630
 172        6PY         0.23191  -0.23789  -0.11390   0.11509  -0.01562
 173        6PZ         0.00013   0.00036   0.00044   0.00036   0.00256
 174        7PX         0.28275   0.27765  -0.13856  -0.13299  -0.01930
 175        7PY         0.27664  -0.28378  -0.13506   0.13646  -0.01849
 176        7PZ         0.00016   0.00043   0.00052   0.00043   0.00306
 177        8PX         0.22859   0.22448  -0.11652  -0.11191  -0.01653
 178        8PY         0.22365  -0.22943  -0.11357   0.11483  -0.01583
 179        8PZ         0.00013   0.00035   0.00041   0.00033   0.00250
 180        9PX         0.07186   0.07056  -0.04104  -0.03951  -0.00804
 181        9PY         0.07031  -0.07212  -0.04001   0.04054  -0.00770
 182        9PZ         0.00004   0.00011   0.00012   0.00009   0.00077
 183       10D 0        0.00000   0.00000   0.00000   0.00000   0.00001
 184       10D+1        0.00043   0.00042   0.00006   0.00007   0.00009
 185       10D-1        0.00042  -0.00043   0.00006  -0.00007   0.00008
 186       10D+2        0.00002  -0.00002   0.00003  -0.00003   0.00001
 187       10D-2        0.00002   0.00002   0.00003   0.00003   0.00001
 188       11D 0        0.00001   0.00001   0.00001   0.00001   0.00001
 189       11D+1        0.00173   0.00169   0.00087   0.00086   0.00043
 190       11D-1        0.00170  -0.00173   0.00084  -0.00088   0.00041
 191       11D+2        0.00003  -0.00003   0.00018  -0.00018   0.00012
 192       11D-2        0.00004   0.00004   0.00018   0.00018   0.00012
 193       12D 0        0.00001   0.00001   0.00001   0.00001   0.00007
 194       12D+1        0.00424   0.00416  -0.00256  -0.00246   0.00023
 195       12D-1        0.00414  -0.00425  -0.00250   0.00253   0.00022
 196       12D+2        0.00002  -0.00003  -0.00020   0.00020  -0.00025
 197       12D-2        0.00002   0.00003  -0.00020  -0.00020  -0.00026
 198       13F 0        0.00000   0.00000   0.00000   0.00000   0.00000
 199       13F+1        0.00016   0.00015   0.00018   0.00018   0.00004
 200       13F-1        0.00015  -0.00016   0.00018  -0.00018   0.00004
 201       13F+2        0.00004  -0.00004   0.00008  -0.00008   0.00004
 202       13F-2        0.00004   0.00004   0.00008   0.00008   0.00005
 203       13F+3        0.00000   0.00000   0.00000   0.00000   0.00000
 204       13F-3        0.00000   0.00000   0.00000   0.00000   0.00000
 205       14F 0        0.00000   0.00000   0.00000   0.00000   0.00001
 206       14F+1        0.00104   0.00102  -0.00063  -0.00060   0.00001
 207       14F-1        0.00101  -0.00105  -0.00061   0.00062   0.00001
 208       14F+2       -0.00009   0.00009  -0.00017   0.00017  -0.00011
 209       14F-2       -0.00009  -0.00009  -0.00017  -0.00017  -0.00011
 210       14F+3        0.00000   0.00000   0.00000   0.00000   0.00000
 211       14F-3        0.00000   0.00000   0.00000   0.00000   0.00000
                          16        17        18        19        20
     Eigenvalues --     1.94910   1.94879   1.93535   0.06018   0.02494
   1 1   C  1S         -0.00037   0.05334  -0.01580  -0.02406  -0.00004
   2        2S          0.00106  -0.15185   0.05098   0.06679   0.00014
   3        3S          0.00026  -0.03584   0.01676   0.02431   0.00009
   4        4S          0.00191  -0.29232   0.08713  -0.22161  -0.00109
   5        5S          0.00028  -0.05765   0.03920  -0.02903  -0.00016
   6        6PX        -0.04726  -0.00097   0.00003   0.00003   0.10739
   7        6PY         0.04931   0.00003  -0.00006   0.00012   0.10993
   8        6PZ         0.00034  -0.04569  -0.12871   0.27936   0.00000
   9        7PX        -0.06565  -0.00136   0.00008  -0.00001   0.19928
  10        7PY         0.06851   0.00005  -0.00008   0.00019   0.20400
  11        7PZ         0.00048  -0.06474  -0.18059   0.44329  -0.00006
  12        8PX        -0.05061  -0.00079   0.00009   0.00027   0.09179
  13        8PY         0.05280   0.00003  -0.00004   0.00008   0.09394
  14        8PZ         0.00050  -0.06421  -0.07658   0.20175   0.00012
  15        9PX        -0.00853  -0.00006  -0.00003  -0.00004   0.02076
  16        9PY         0.00890   0.00001   0.00000   0.00000   0.02123
  17        9PZ         0.00000  -0.00123  -0.00166  -0.00006  -0.00003
  18       10D 0       -0.00007   0.00935  -0.01106  -0.00881   0.00000
  19       10D+1        0.00258   0.00004   0.00000  -0.00002   0.01785
  20       10D-1       -0.00269   0.00000  -0.00001  -0.00001   0.01826
  21       10D+2        0.00363   0.00000   0.00000   0.00000   0.00288
  22       10D-2       -0.00355  -0.00013   0.00006  -0.00002   0.00278
  23       11D 0       -0.00036   0.04984  -0.04570   0.06670   0.00010
  24       11D+1        0.01069   0.00024  -0.00001  -0.00004   0.04193
  25       11D-1       -0.01115   0.00003  -0.00003   0.00005   0.04293
  26       11D+2        0.01234   0.00001   0.00000   0.00000   0.05006
  27       11D-2       -0.01206  -0.00059   0.00023  -0.00043   0.04797
  28       12D 0       -0.00027   0.02816  -0.00380  -0.01696   0.00012
  29       12D+1       -0.00081  -0.00009   0.00019  -0.00019   0.01300
  30       12D-1        0.00085   0.00002   0.00000  -0.00001   0.01332
  31       12D+2        0.00736   0.00000   0.00000  -0.00001   0.01010
  32       12D-2       -0.00720  -0.00060   0.00024  -0.00062   0.00966
  33       13F 0        0.00002  -0.00208  -0.00328  -0.00586   0.00002
  34       13F+1        0.00155   0.00002   0.00000   0.00001  -0.00668
  35       13F-1       -0.00161   0.00000   0.00000  -0.00001  -0.00684
  36       13F+2       -0.00024   0.00000   0.00000   0.00000   0.00224
  37       13F-2        0.00024   0.00000  -0.00001   0.00008   0.00214
  38       13F+3       -0.00001  -0.00003   0.00001  -0.00001  -0.00005
  39       13F-3        0.00002  -0.00308   0.00115  -0.00053   0.00001
  40       14F 0        0.00005  -0.00547  -0.00087   0.01161   0.00007
  41       14F+1        0.00502   0.00001   0.00000   0.00003  -0.00177
  42       14F-1       -0.00524  -0.00001   0.00000   0.00001  -0.00181
  43       14F+2       -0.00233   0.00001  -0.00001   0.00002  -0.00149
  44       14F-2        0.00228   0.00012  -0.00003  -0.00012  -0.00142
  45       14F+3       -0.00001  -0.00015   0.00009  -0.00037  -0.00026
  46       14F-3        0.00009  -0.01509   0.00917  -0.03770  -0.00013
  47 2   H  1S         -0.03354  -0.03383   0.02885  -0.00683   0.02860
  48        2S         -0.03319  -0.00315   0.02282   0.07999   0.18372
  49        3S          0.00389   0.02199   0.02032   0.06875   0.11760
  50        4S          0.00081   0.00012   0.00193   0.00722   0.05186
  51        5PX        -0.00077  -0.00003   0.00002  -0.00003   0.00183
  52        5PY        -0.00257  -0.00215   0.00248  -0.00200  -0.00633
  53        5PZ         0.00015  -0.00267  -0.00321   0.01429  -0.00880
  54        6PX        -0.00255   0.00005  -0.00007   0.00043   0.00554
  55        6PY         0.00405   0.00553  -0.00154   0.00982   0.04194
  56        6PZ        -0.00085  -0.00100  -0.01029   0.02820  -0.00416
  57        7PX        -0.00191  -0.00023   0.00015  -0.00025  -0.00114
  58        7PY         0.00698   0.01111  -0.00164   0.01271   0.03631
  59        7PZ         0.00205   0.00807   0.00317  -0.01401   0.00360
  60        8D 0        0.00029   0.00014  -0.00085   0.00060   0.00183
  61        8D+1        0.00002   0.00000  -0.00002   0.00009   0.00121
  62        8D-1       -0.00021  -0.00020  -0.00171   0.00673  -0.00289
  63        8D+2        0.00036   0.00052  -0.00061   0.00186   0.00190
  64        8D-2       -0.00043  -0.00002   0.00001  -0.00003   0.00139
  65        9D 0       -0.00009   0.00083  -0.00282   0.00597  -0.00236
  66        9D+1        0.00080   0.00009  -0.00002  -0.00012   0.00322
  67        9D-1       -0.00035   0.00202  -0.00055  -0.00588   0.01109
  68        9D+2       -0.00080   0.00108   0.00035  -0.00113  -0.00668
  69        9D-2       -0.00076  -0.00006   0.00002   0.00002   0.00096
  70 3   H  1S          0.04545  -0.03312   0.02872  -0.00680   0.00967
  71        2S          0.04460  -0.00254   0.02274   0.07973   0.06260
  72        3S         -0.00550   0.02166   0.02040   0.06836   0.04024
  73        4S         -0.00107   0.00020   0.00187   0.00715   0.01771
  74        5PX         0.00317  -0.00182   0.00215  -0.00174  -0.00055
  75        5PY        -0.00149   0.00104  -0.00124   0.00100   0.00337
  76        5PZ        -0.00015  -0.00268  -0.00321   0.01430  -0.00302
  77        6PX        -0.00420   0.00466  -0.00130   0.00852   0.01595
  78        6PY         0.00360  -0.00269   0.00072  -0.00472  -0.00095
  79        6PZ         0.00115  -0.00093  -0.01029   0.02808  -0.00142
  80        7PX        -0.00784   0.00940  -0.00134   0.01100   0.00975
  81        7PY         0.00542  -0.00562   0.00088  -0.00658  -0.00796
  82        7PZ        -0.00290   0.00799   0.00327  -0.01410   0.00121
  83        8D 0       -0.00039   0.00014  -0.00085   0.00060   0.00063
  84        8D+1        0.00024  -0.00017  -0.00148   0.00583   0.00002
  85        8D-1       -0.00015   0.00010   0.00085  -0.00335   0.00200
  86        8D+2        0.00040  -0.00026   0.00030  -0.00092   0.00142
  87        8D-2       -0.00036   0.00045  -0.00053   0.00162   0.00157
  88        9D 0        0.00014   0.00082  -0.00282   0.00594  -0.00080
  89        9D+1        0.00021   0.00178  -0.00048  -0.00511   0.00548
  90        9D-1       -0.00049  -0.00099   0.00026   0.00292   0.00188
  91        9D+2       -0.00026  -0.00058  -0.00016   0.00054   0.00207
  92        9D-2        0.00104   0.00097   0.00030  -0.00095  -0.00143
  93 4   H  1S         -0.01106  -0.03444   0.02897  -0.00686  -0.03849
  94        2S         -0.01105  -0.00365   0.02290   0.08024  -0.24588
  95        3S          0.00123   0.02231   0.02024   0.06920  -0.15685
  96        4S          0.00028   0.00003   0.00199   0.00730  -0.06948
  97        5PX         0.00022   0.00189  -0.00216   0.00174  -0.00764
  98        5PY         0.00132   0.00110  -0.00125   0.00102  -0.00355
  99        5PZ         0.00006  -0.00268  -0.00321   0.01429   0.01176
 100        6PX        -0.00299  -0.00491   0.00135  -0.00846   0.04774
 101        6PY         0.00252  -0.00283   0.00080  -0.00506   0.02989
 102        6PZ        -0.00028  -0.00106  -0.01029   0.02833   0.00553
 103        7PX        -0.00338  -0.00982   0.00149  -0.01103   0.04227
 104        7PY         0.00131  -0.00547   0.00077  -0.00617   0.02373
 105        7PZ         0.00064   0.00817   0.00306  -0.01390  -0.00491
 106        8D 0        0.00010   0.00015  -0.00085   0.00061  -0.00244
 107        8D+1        0.00007   0.00018   0.00148  -0.00582  -0.00357
 108        8D-1        0.00001   0.00010   0.00085  -0.00338  -0.00151
 109        8D+2        0.00045  -0.00026   0.00030  -0.00093   0.00172
 110        8D-2       -0.00040  -0.00046   0.00052  -0.00161   0.00187
 111        9D 0       -0.00002   0.00085  -0.00283   0.00599   0.00315
 112        9D+1        0.00068  -0.00172   0.00046   0.00508   0.01230
 113        9D-1       -0.00093  -0.00103   0.00027   0.00297   0.00849
 114        9D+2        0.00109  -0.00050  -0.00019   0.00059  -0.00419
 115        9D-2       -0.00032  -0.00091  -0.00031   0.00101  -0.00794
 116 5   Cl 1S         -0.00008   0.01021   0.00050  -0.01679   0.00000
 117        2S          0.00029  -0.03897  -0.00167   0.05630   0.00001
 118        3S         -0.00060   0.08054   0.01125  -0.15674  -0.00002
 119        4S         -0.00009   0.01243   0.00452  -0.03986  -0.00001
 120        5S         -0.00047   0.06906   0.01221  -0.04600  -0.00013
 121        6S         -0.00011   0.02044  -0.01255   0.01584  -0.00004
 122        7PX        -0.15465  -0.00233  -0.00005  -0.00005   0.01469
 123        7PY         0.16139   0.00014  -0.00009  -0.00007   0.01503
 124        7PZ        -0.00025   0.02662  -0.21013  -0.16340  -0.00005
 125        8PX         0.35380   0.00533   0.00012   0.00010  -0.02291
 126        8PY        -0.36922  -0.00032   0.00020   0.00016  -0.02344
 127        8PZ         0.00058  -0.06217   0.46463   0.36066   0.00015
 128        9PX         0.17091   0.00257   0.00005   0.00007  -0.02442
 129        9PY        -0.17836  -0.00015   0.00010   0.00009  -0.02498
 130        9PZ         0.00029  -0.03101   0.21829   0.20647   0.00008
 131       10PX         0.25432   0.00386   0.00002   0.00007   0.01177
 132       10PY        -0.26541  -0.00024   0.00014   0.00001   0.01204
 133       10PZ         0.00060  -0.07220   0.31777   0.02932   0.00000
 134       11PX         0.04300   0.00065   0.00001   0.00000   0.00413
 135       11PY        -0.04488  -0.00005   0.00002   0.00000   0.00422
 136       11PZ         0.00018  -0.02400   0.04618   0.00728  -0.00003
 137       12D 0        0.00003  -0.00473  -0.01240   0.06748   0.00015
 138       12D+1       -0.00014   0.00001  -0.00001   0.00003  -0.04047
 139       12D-1        0.00015   0.00000  -0.00001   0.00005  -0.04140
 140       12D+2        0.00018   0.00000   0.00000   0.00000   0.00075
 141       12D-2       -0.00017  -0.00001   0.00000   0.00001   0.00069
 142       13D 0        0.00005  -0.00754  -0.01943   0.09789   0.00020
 143       13D+1       -0.00046  -0.00001  -0.00002   0.00004  -0.06042
 144       13D-1        0.00048  -0.00001  -0.00001   0.00007  -0.06181
 145       13D+2        0.00040   0.00000   0.00000   0.00000   0.00118
 146       13D-2       -0.00039  -0.00001   0.00000   0.00002   0.00108
 147       14D 0       -0.00001   0.00153  -0.01324   0.03014   0.00003
 148       14D+1       -0.00231  -0.00004   0.00001  -0.00002  -0.00664
 149       14D-1        0.00241   0.00000  -0.00001   0.00002  -0.00679
 150       14D+2        0.00004   0.00000   0.00000   0.00000   0.00025
 151       14D-2       -0.00004   0.00000   0.00000   0.00004   0.00023
 152       15F 0       -0.00001   0.00099   0.00459  -0.00358  -0.00001
 153       15F+1        0.00097   0.00001   0.00000   0.00000   0.00346
 154       15F-1       -0.00101   0.00000   0.00000   0.00000   0.00354
 155       15F+2       -0.00007   0.00000   0.00000   0.00000  -0.00016
 156       15F-2        0.00007   0.00000   0.00000   0.00000  -0.00015
 157       15F+3        0.00000   0.00000   0.00000   0.00000   0.00000
 158       15F-3        0.00000  -0.00007   0.00004   0.00004   0.00000
 159       16F 0       -0.00001   0.00137   0.00401   0.00164   0.00000
 160       16F+1        0.00124   0.00002   0.00000   0.00002   0.00019
[...]
  78        6PY        -0.34853   1.48641   0.92411   0.36563  -0.51588
  79        6PZ        -0.32547  -0.04507   0.01599  -0.15822   0.15631
  80        7PX         1.41473  -6.68308   7.20735  -1.75071   6.69309
  81        7PY        -0.57023   6.94106   7.61102   1.06765  -2.81445
  82        7PZ        -1.32167  -3.28347   0.87039   0.04551   0.80633
  83        8D 0       -0.03786   0.01052  -0.00350   0.02634  -0.01799
  84        8D+1        0.01103  -0.01538   0.02643   0.00862  -0.01388
  85        8D-1       -0.00582   0.02150   0.03273  -0.00450   0.00645
  86        8D+2        0.06271  -0.02893  -0.10054   0.02351   0.01336
  87        8D-2       -0.11074  -0.01075  -0.05923  -0.04023  -0.03801
  88        9D 0       -0.49929   0.45525  -0.12296  -0.14585  -0.26026
  89        9D+1       -0.21355  -0.22495  -0.14262  -0.03602   0.24057
  90        9D-1        0.11694   0.01709  -0.35657   0.01772  -0.11176
  91        9D+2       -0.06770  -0.25656   1.70321  -0.34628   0.26113
  92        9D-2        0.18601   1.37827   0.57976   0.62558  -0.15015
  93 4   H  1S         -0.03374  -0.00358   0.00960  -0.00978   0.00613
  94        2S          0.05797   0.97575  -3.29144  -0.51267  -0.56437
  95        3S          6.34598   7.78790 -26.98834  -3.05853  -6.61303
  96        4S          1.56793  -0.43032   1.79739  -1.87864  -2.83588
  97        5PX        -0.03105   0.07567  -0.07586  -0.08074  -0.00104
  98        5PY        -0.01234  -0.07525  -0.07578  -0.04549  -0.05879
  99        5PZ         0.05984   0.00560  -0.01162   0.03171   0.00288
 100        6PX        -0.47907  -1.28308   1.79852   0.60099   0.04304
 101        6PY        -0.34258   0.90663   1.48844   0.33577   0.60043
 102        6PZ        -0.33725  -0.00743  -0.01853  -0.16893  -0.04374
 103        7PX        -0.64882  -7.31081   6.61864   1.70902  -0.00164
 104        7PY        -0.88052   7.56948   7.06695   0.93484   3.87446
 105        7PZ        -1.68737   0.81960  -3.19322  -0.00608  -0.20853
 106        8D 0       -0.03668  -0.00281   0.00982   0.02374   0.00479
 107        8D+1       -0.00952  -0.02623   0.01497  -0.00803  -0.00059
 108        8D-1       -0.00696   0.03210   0.02160  -0.00503  -0.00686
 109        8D+2        0.06687  -0.09720  -0.03059   0.02546  -0.02983
 110        8D-2        0.10893   0.06163   0.01034   0.04452   0.00630
 111        9D 0       -0.49699  -0.13525   0.46896  -0.15091   0.06327
 112        9D+1        0.22576   0.15145   0.21115   0.03924   0.01504
 113        9D-1        0.14459  -0.34528   0.00027   0.02478   0.11249
 114        9D+2       -0.20014   1.72063  -0.23259  -0.36990   0.44099
 115        9D-2       -0.19984  -0.59001  -1.37642  -0.61557  -0.34624
 116 5   Cl 1S          0.02030   0.00077  -0.00043   0.01177   0.00015
 117        2S          0.28081   0.01047  -0.00565   0.16371   0.00238
 118        3S          0.78295   0.02972  -0.01633   0.45997   0.00610
 119        4S         -0.04219  -0.00080   0.00002  -0.01469  -0.00105
 120        5S         -4.35810  -0.17337   0.09885  -3.02543  -0.03796
 121        6S         -9.82137  -0.41201   0.24886 -13.25307  -0.07333
 122        7PX         0.00008   0.00054  -0.00057   0.00014  -0.00212
 123        7PY         0.00000  -0.00053  -0.00058  -0.00001   0.00216
 124        7PZ        -0.00457  -0.00042   0.00035  -0.02274  -0.00009
 125        8PX         0.00110   0.01254  -0.01338   0.00245  -0.04212
 126        8PY         0.00008  -0.01236  -0.01353  -0.00017   0.04292
 127        8PZ        -0.06462  -0.00565   0.00464  -0.31759  -0.00111
 128        9PX        -0.00025  -0.00270   0.00280  -0.00051   0.00714
 129        9PY        -0.00003   0.00266   0.00283   0.00004  -0.00728
 130        9PZ         0.00185   0.00094  -0.00092   0.07963   0.00034
 131       10PX        -0.01634  -0.04354   0.04970  -0.01370   0.29811
 132       10PY         0.00315   0.04261   0.04994   0.00228  -0.30375
 133       10PZ         5.91644   0.24841  -0.14887   5.08195   0.03656
 134       11PX         0.03972  -0.80825   0.81571   0.00299  -0.16920
 135       11PY        -0.01191   0.79907   0.82562   0.00173   0.17250
 136       11PZ         0.79391   0.03268  -0.02100   3.36074   0.01731
 137       12D 0        0.06815   0.00279  -0.00160   0.00181  -0.00002
 138       12D+1       -0.00127   0.02160  -0.02187   0.00003  -0.00273
 139       12D-1        0.00039  -0.02136  -0.02214  -0.00001   0.00276
 140       12D+2       -0.00014   0.00539   0.00549   0.00001  -0.00868
 141       12D-2        0.00155  -0.00550   0.00527   0.00022   0.00870
 142       13D 0       -0.38844  -0.01536   0.00869  -0.07058  -0.00026
 143       13D+1        0.00468  -0.07941   0.08048  -0.00076   0.01860
 144       13D-1       -0.00157   0.07851   0.08147   0.00000  -0.01889
 145       13D+2        0.00034  -0.01226  -0.01246  -0.00002   0.03127
 146       13D-2       -0.00431   0.01247  -0.01194  -0.00062  -0.03132
 147       14D 0       -1.39467  -0.06082   0.03785  -1.24233  -0.00723
 148       14D+1       -0.00259   0.21284  -0.21958   0.00932  -0.23041
 149       14D-1        0.00161  -0.21020  -0.22206  -0.00111   0.23457
 150       14D+2       -0.00062   0.04429   0.04727   0.00003  -0.14308
 151       14D-2        0.00302  -0.04546   0.04557   0.00074   0.14311
 152       15F 0       -0.04305  -0.00200   0.00128   0.00122   0.00007
 153       15F+1       -0.00001   0.00315  -0.00333   0.00076  -0.01306
 154       15F-1        0.00000  -0.00311  -0.00337  -0.00001   0.01330
 155       15F+2       -0.00007   0.00672   0.00697  -0.00001  -0.00730
 156       15F-2        0.00015  -0.00692   0.00675   0.00013   0.00729
 157       15F+3       -0.00010   0.00017   0.00018   0.00023  -0.00022
 158       15F-3       -0.00932  -0.00071   0.00055   0.02293   0.00009
 159       16F 0        0.23347   0.01047  -0.00660   0.08911  -0.00003
 160       16F+1       -0.00057  -0.01015   0.01118  -0.00242   0.04455
 161       16F-1        0.00018   0.00998   0.01125   0.00012  -0.04535
 162       16F+2        0.00040  -0.03171  -0.03319   0.00002   0.03004
 163       16F-2       -0.00102   0.03269  -0.03212  -0.00028  -0.03003
 164       16F+3        0.00020  -0.00032  -0.00034  -0.00042   0.00049
 165       16F-3        0.01936   0.00158  -0.00127  -0.04284  -0.00016
 166 6   F  1S          0.04016   0.00138  -0.00068  -0.02262   0.00025
 167        2S          0.14127   0.00461  -0.00210  -0.08589   0.00109
 168        3S         -0.07200  -0.00269   0.00144   0.03665  -0.00022
 169        4S         -0.37909  -0.01168   0.00481  -0.02070  -0.00677
 170        5S         -0.05893   0.02096  -0.02085  -5.93491  -0.04057
 171        6PX         0.00035  -0.00510   0.00520  -0.00003   0.00121
 172        6PY        -0.00008   0.00505   0.00526   0.00000  -0.00123
 173        6PZ         0.00538   0.00038  -0.00029   0.00222   0.00000
 174        7PX        -0.00161   0.02633  -0.02690   0.00007  -0.00440
 175        7PY         0.00038  -0.02604  -0.02723  -0.00001   0.00448
 176        7PZ        -0.06363  -0.00337   0.00230   0.00264   0.00003
 177        8PX         0.00968  -0.18430   0.18777   0.00092   0.00145
 178        8PY        -0.00251   0.18218   0.18999  -0.00005  -0.00143
 179        8PZ         0.62863   0.03193  -0.02144  -0.24683  -0.00324
 180        9PX         0.01824  -0.59101   0.59642   0.00005  -0.15891
 181        9PY        -0.00889   0.58393   0.60349  -0.00102   0.16188
 182        9PZ        -0.86563  -0.03565   0.02091  -2.49188  -0.01599
 183       10D 0        0.01136   0.00030  -0.00012  -0.00797  -0.00002
 184       10D+1        0.00019  -0.01036   0.01055  -0.00025   0.00161
 185       10D-1       -0.00014   0.01023   0.01067   0.00000  -0.00165
 186       10D+2        0.00006  -0.00341  -0.00357   0.00000  -0.00204
 187       10D-2       -0.00034   0.00350  -0.00345  -0.00004   0.00205
 188       11D 0       -0.04203  -0.00120   0.00052   0.01569  -0.00005
 189       11D+1       -0.00059   0.03329  -0.03392   0.00075  -0.00289
 190       11D-1        0.00043  -0.03287  -0.03430   0.00000   0.00296
 191       11D+2       -0.00022   0.01160   0.01205   0.00000   0.00720
 192       11D-2        0.00145  -0.01190   0.01162   0.00024  -0.00722
 193       12D 0        0.41633   0.01674  -0.00979  -0.01116   0.00039
 194       12D+1        0.00190  -0.09606   0.09925  -0.00092  -0.02152
 195       12D-1       -0.00098   0.09480   0.10031   0.00003   0.02191
 196       12D+2        0.00085  -0.04373  -0.04462  -0.00002  -0.01356
 197       12D-2       -0.00583   0.04489  -0.04304  -0.00072   0.01355
 198       13F 0       -0.02737  -0.00115   0.00066  -0.00760  -0.00007
 199       13F+1        0.00043  -0.01327   0.01314   0.00002   0.00566
 200       13F-1       -0.00023   0.01313   0.01331  -0.00001  -0.00576
 201       13F+2       -0.00011   0.00635   0.00651   0.00000  -0.00195
 202       13F-2        0.00037  -0.00656   0.00631  -0.00022   0.00196
 203       13F+3        0.00013  -0.00031  -0.00033  -0.00001  -0.00004
 204       13F-3        0.01272   0.00022   0.00000  -0.00137  -0.00014
 205       14F 0        0.06816   0.00277  -0.00156   0.01184   0.00014
 206       14F+1       -0.00128   0.02876  -0.02827  -0.00001  -0.01253
 207       14F-1        0.00052  -0.02847  -0.02867   0.00001   0.01277
 208       14F+2        0.00030  -0.01766  -0.01801  -0.00001   0.00468
 209       14F-2       -0.00101   0.01824  -0.01746   0.00034  -0.00470
 210       14F+3       -0.00018   0.00050   0.00054   0.00003   0.00008
 211       14F-3       -0.01715  -0.00025  -0.00005   0.00259   0.00026
                         211
     Eigenvalues --     0.00000
   1 1   C  1S         -0.00109
   2        2S         -0.00621
   3        3S         -0.00138
   4        4S         -0.13474
   5        5S         -0.07506
   6        6PX         0.00554
   7        6PY         0.00544
   8        6PZ        -0.00005
   9        7PX        -1.10087
  10        7PY        -1.08109
  11        7PZ         0.00210
  12        8PX       -12.39770
  13        8PY       -12.17350
  14        8PZ        -0.00363
  15        9PX        -5.65097
  16        9PY        -5.54945
  17        9PZ        -0.00939
  18       10D 0       -0.00023
  19       10D+1        0.00138
  20       10D-1        0.00134
  21       10D+2       -0.01542
  22       10D-2       -0.01537
  23       11D 0       -0.00017
  24       11D+1        0.14758
  25       11D-1        0.14479
  26       11D+2       -0.29055
  27       11D-2       -0.29058
  28       12D 0       -0.07638
  29       12D+1        0.91892
  30       12D-1        0.90348
  31       12D+2        0.44166
  32       12D-2        0.43916
  33       13F 0        0.00003
  34       13F+1       -0.02737
  35       13F-1       -0.02689
  36       13F+2       -0.00667
  37       13F-2       -0.00672
  38       13F+3       -0.00062
  39       13F-3        0.00117
  40       14F 0        0.00098
  41       14F+1        0.29083
  42       14F-1        0.28563
  43       14F+2        0.05459
  44       14F-2        0.05496
  45       14F+3        0.00132
  46       14F-3       -0.01241
  47 2   H  1S          0.01950
  48        2S         -1.56640
  49        3S        -18.17133
  50        4S         -7.84682
  51        5PX        -0.03608
  52        5PY         0.08211
  53        5PZ         0.00737
  54        6PX         0.35716
  55        6PY        -0.93138
  56        6PZ        -0.11740
  57        7PX         2.46281
  58        7PY        -5.20380
  59        7PZ        -0.56994
  60        8D 0        0.01317
  61        8D+1       -0.00409
  62        8D-1        0.01078
  63        8D+2        0.02898
  64        8D-2       -0.02148
  65        9D 0        0.19112
  66        9D+1        0.06502
  67        9D-1       -0.19343
  68        9D+2        0.19118
  69        9D-2        0.40202
  70 3   H  1S          0.00766
  71        2S         -0.58673
  72        3S         -6.83621
  73        4S         -2.94770
  74        5PX         0.00141
  75        5PY        -0.05827
  76        5PZ         0.00267
  77        6PX        -0.05085
  78        6PY         0.60575
  79        6PZ        -0.04353
  80        7PX         0.02731
  81        7PY         3.90178
  82        7PZ        -0.22032
  83        8D 0        0.00491
  84        8D+1        0.00084
  85        8D-1       -0.00668
  86        8D+2       -0.02947
  87        8D-2       -0.00378
  88        9D 0        0.07402
  89        9D+1       -0.01863
  90        9D-1        0.11393
  91        9D+2        0.44322
  92        9D-2        0.32956
  93 4   H  1S         -0.02557
  94        2S          2.16706
  95        3S         25.02781
  96        4S         10.81549
  97        5PX         0.10528
  98        5PY         0.04550
  99        5PZ        -0.01080
 100        6PX        -1.17769
 101        6PY        -0.52980
 102        6PZ         0.16682
 103        7PX        -6.69685
 104        7PY        -2.82443
 105        7PZ         0.77967
 106        8D 0       -0.01830
 107        8D+1        0.01342
 108        8D-1        0.00592
 109        8D+2        0.01276
 110        8D-2        0.03748
 111        9D 0       -0.25393
 112        9D+1       -0.24172
 113        9D-1       -0.11152
 114        9D+2        0.26173
 115        9D-2        0.16287
 116 5   Cl 1S         -0.00015
 117        2S         -0.00230
 118        3S         -0.00590
 119        4S          0.00103
 120        5S          0.03684
 121        6S          0.06988
 122        7PX         0.00208
 123        7PY         0.00205
 124        7PZ         0.00009
 125        8PX         0.04157
 126        8PY         0.04084
 127        8PZ         0.00102
 128        9PX        -0.00698
 129        9PY        -0.00686
 130        9PZ        -0.00033
 131       10PX        -0.29848
 132       10PY        -0.29324
 133       10PZ        -0.03483
 134       11PX         0.18276
 135       11PY         0.17960
 136       11PZ        -0.01675
 137       12D 0        0.00002
 138       12D+1        0.00240
 139       12D-1        0.00234
 140       12D+2       -0.00851
 141       12D-2       -0.00850
 142       13D 0        0.00024
 143       13D+1       -0.01729
 144       13D-1       -0.01693
 145       13D+2        0.03078
 146       13D-2        0.03074
 147       14D 0        0.00660
 148       14D+1        0.22799
 149       14D-1        0.22378
 150       14D+2       -0.14234
 151       14D-2       -0.14195
 152       15F 0       -0.00009
 153       15F+1        0.01302
 154       15F-1        0.01278
 155       15F+2       -0.00737
 156       15F-2       -0.00734
 157       15F+3       -0.00020
 158       15F-3       -0.00009
 159       16F 0        0.00014
 160       16F+1       -0.04427
 161       16F-1       -0.04345
 162       16F+2        0.03002
 163       16F-2        0.02991
 164       16F+3        0.00045
 165       16F-3        0.00017
 166 6   F  1S         -0.00025
 167        2S         -0.00109
 168        3S          0.00022
 169        4S          0.00666
 170        5S          0.03900
 171        6PX        -0.00119
 172        6PY        -0.00117
 173        6PZ         0.00000
 174        7PX         0.00427
 175        7PY         0.00418
 176        7PZ        -0.00003
 177        8PX        -0.00027
 178        8PY        -0.00023
 179        8PZ         0.00316
 180        9PX         0.16698
 181        9PY         0.16401
 182        9PZ         0.01525
 183       10D 0        0.00002
 184       10D+1       -0.00147
 185       10D-1       -0.00145
 186       10D+2       -0.00198
 187       10D-2       -0.00198
 188       11D 0        0.00004
 189       11D+1        0.00243
 190       11D-1        0.00240
 191       11D+2        0.00705
 192       11D-2        0.00704
 193       12D 0       -0.00040
 194       12D+1        0.02338
 195       12D-1        0.02295
 196       12D+2       -0.01344
 197       12D-2       -0.01340
 198       13F 0        0.00008
 199       13F+1       -0.00574
 200       13F-1       -0.00564
 201       13F+2       -0.00180
 202       13F-2       -0.00181
 203       13F+3       -0.00004
 204       13F-3        0.00014
 205       14F 0       -0.00017
 206       14F+1        0.01273
 207       14F-1        0.01251
 208       14F+2        0.00440
 209       14F-2        0.00441
 210       14F+3        0.00007
 211       14F-3       -0.00025
          Condensed to atoms (all electrons):
              1          2          3          4          5          6
     1  C    7.012086  -0.009199  -0.009233  -0.009296  -0.050902  -0.099841
     2  H   -0.009199   0.547062   0.020911   0.019216  -0.018748   0.004332
     3  H   -0.009233   0.020911   0.547196   0.020073  -0.018648   0.004220
     4  H   -0.009296   0.019216   0.020073   0.546977  -0.018833   0.004461
     5  Cl  -0.050902  -0.018748  -0.018648  -0.018833  17.709253   0.026400
     6  F   -0.099841   0.004332   0.004220   0.004461   0.026400   9.907594
 Mulliken atomic charges:
              1
     1  C   -0.833617
     2  H    0.436424
     3  H    0.435480
     4  H    0.437402
     5  Cl  -0.628523
     6  F   -0.847167
 Sum of Mulliken atomic charges =  -1.00000
 Mulliken charges with hydrogens summed into heavy atoms:
              1
     1  C    0.475691
     5  Cl  -0.628523
     6  F   -0.847167
 Sum of Mulliken charges with hydrogens summed into heavy atoms =  -1.00000
 Electronic spatial extent (au):  <R**2>=            490.3149
 Charge=             -1.0000 electrons
 Dipole moment (field-independent basis, Debye):
    X=             -0.0038    Y=              0.0007    Z=              4.0662  Tot=              4.0662
 Quadrupole moment (field-independent basis, Debye-Ang):
   XX=            -28.1813   YY=            -28.1815   ZZ=            -62.8203
   XY=              0.0175   XZ=             -0.0017   YZ=             -0.0145
 Traceless Quadrupole moment (field-independent basis, Debye-Ang):
   XX=             11.5464   YY=             11.5462   ZZ=            -23.0926
   XY=              0.0175   XZ=             -0.0017   YZ=             -0.0145
 Octapole moment (field-independent basis, Debye-Ang**2):
  XXX=              0.0026  YYY=             -0.9745  ZZZ=             49.6881  XYY=             -0.0116
  XXY=              0.9404  XXZ=             -4.2364  XZZ=              0.0015  YZZ=              0.0111
  YYZ=             -4.2354  XYZ=             -0.0111
 Hexadecapole moment (field-independent basis, Debye-Ang**3):
 XXXX=            -41.2687 YYYY=            -41.2689 ZZZZ=           -761.6418 XXXY=             -0.0113
 XXXZ=             -0.0659 YYYX=              0.0070 YYYZ=              0.5141 ZZZX=             -0.0795
 ZZZY=             -0.1890 XXYY=            -13.7562 XXZZ=           -103.3854 YYZZ=           -103.3866
 XXYZ=             -0.6772 YYXZ=             -0.0136 ZZXY=              0.0011
 N-N= 8.498408762834D+01 E-N=-1.604180125326D+03  KE= 5.991953787056D+02
 1\1\GINC-TRAPISTA\SP\RQCISD-FC\Aug-CC-pVTZ\C1H3Cl1F1(1-)\BRUNS\23-Aug-
 2020\0\\# QCISD aug-cc-pvtz nosymm density=current output=wfn\\clch3f_
 ts-wavefunction\\-1,1\C,0,0.000175,0.000029,-0.497709\H,0,-0.009981,-1
 .05257,-0.620726\H,0,-0.911312,0.526365,-0.621245\H,0,0.91175,0.526132
 ,-0.62157\Cl,0,0.000555,0.000962,1.644718\F,0,-0.000186,-0.000921,-2.5
 93468\\Version=EM64L-G09RevB.01\HF=-598.6171148\MP2=-599.2912593\MP3=-
 599.3099602\MP4D=-599.3248507\MP4DQ=-599.3104117\MP4SDQ=-599.319778\QC
 ISD=-599.3191601\RMSD=9.411e-09\Dipole=-0.0015416,0.0007319,1.5872899\
 Quadrupole=8.5844968,8.5843002,-17.168797,0.0130076,-0.0012418,-0.0107
 666\PG=C01 [X(C1H3Cl1F1)]\\@

 Writing a WFN file to GAUSSIAN.wfn.


 BULLDOZER: SOMEONE WHO SLEEPS THROUGH SPEECHES.
 Job cpu time:  0 days  3 hours 13 minutes  9.9 seconds.
 File lengths (MBytes):  RWF=  29002 Int=      0 D2E=      0 Chk=      4 Scr=      1
 Normal termination of Gaussian 09 at Sun Aug 23 22:40:47 2020.
