 clch3f_ts-wavefunction
GAUSSIAN            211 MOL ORBITALS    339 PRIMITIVES        6 NUCLEI
  C    1    (CENTRE  1)   0.00033070  0.00005480 -0.94053370  CHARGE =  6.0
  H    2    (CENTRE  2)   0.00003590 -1.98906904 -1.17300214  CHARGE =  1.0
  H    3    (CENTRE  3)  -1.72213010  0.99468570 -1.15508565  CHARGE =  1.0
  H    4    (CENTRE  4)   1.72295780  0.99424539 -1.17459707  CHARGE =  1.0
  Cl   5    (CENTRE  5)   0.00104880  0.00181792  3.10806659  CHARGE = 17.0
  F    6    (CENTRE  6)  -0.00035149 -0.00174044 -4.90094425  CHARGE =  9.0
CENTRE ASSIGNMENTS    1  1  1  1  1  1  1  1  1  1  1  1  1  1  1  1  1  1  1  1
CENTRE ASSIGNMENTS    1  1  1  1  1  1  1  1  1  1  1  1  1  1  1  1  1  1  1  1
CENTRE ASSIGNMENTS    1  1  1  1  1  1  1  1  1  1  1  1  1  1  1  1  1  1  1  1
CENTRE ASSIGNMENTS    1  1  1  1  1  1  1  1  1  1  1  1  2  2  2  2  2  2  2  2
CENTRE ASSIGNMENTS    2  2  2  2  2  2  2  2  2  2  2  2  2  2  2  2  2  2  2  3
CENTRE ASSIGNMENTS    3  3  3  3  3  3  3  3  3  3  3  3  3  3  3  3  3  3  3  3
CENTRE ASSIGNMENTS    3  3  3  3  3  3  4  4  4  4  4  4  4  4  4  4  4  4  4  4
CENTRE ASSIGNMENTS    4  4  4  4  4  4  4  4  4  4  4  4  4  5  5  5  5  5  5  5
CENTRE ASSIGNMENTS    5  5  5  5  5  5  5  5  5  5  5  5  5  5  5  5  5  5  5  5
CENTRE ASSIGNMENTS    5  5  5  5  5  5  5  5  5  5  5  5  5  5  5  5  5  5  5  5
CENTRE ASSIGNMENTS    5  5  5  5  5  5  5  5  5  5  5  5  5  5  5  5  5  5  5  5
CENTRE ASSIGNMENTS    5  5  5  5  5  5  5  5  5  5  5  5  5  5  5  5  5  5  5  5
CENTRE ASSIGNMENTS    5  5  5  5  5  5  5  5  5  5  5  5  5  5  5  5  5  5  5  5
CENTRE ASSIGNMENTS    5  5  5  5  5  5  5  6  6  6  6  6  6  6  6  6  6  6  6  6
CENTRE ASSIGNMENTS    6  6  6  6  6  6  6  6  6  6  6  6  6  6  6  6  6  6  6  6
CENTRE ASSIGNMENTS    6  6  6  6  6  6  6  6  6  6  6  6  6  6  6  6  6  6  6  6
CENTRE ASSIGNMENTS    6  6  6  6  6  6  6  6  6  6  6  6  6  6  6  6  6  6  6
TYPE ASSIGNMENTS      1  1  1  1  1  1  1  1  1  1  1  1  1  1  1  1  2  2  2  3
TYPE ASSIGNMENTS      3  3  4  4  4  2  3  4  2  3  4  2  3  4  5  6  7  8  9 10
TYPE ASSIGNMENTS      5  6  7  8  9 10  5  6  7  8  9 10 11 12 13 17 14 15 18 19
TYPE ASSIGNMENTS     16 20 11 12 13 17 14 15 18 19 16 20  1  1  1  1  1  1  2  3
TYPE ASSIGNMENTS      4  2  3  4  2  3  4  5  6  7  8  9 10  5  6  7  8  9 10  1
TYPE ASSIGNMENTS      1  1  1  1  1  2  3  4  2  3  4  2  3  4  5  6  7  8  9 10
TYPE ASSIGNMENTS      5  6  7  8  9 10  1  1  1  1  1  1  2  3  4  2  3  4  2  3
TYPE ASSIGNMENTS      4  5  6  7  8  9 10  5  6  7  8  9 10  1  1  1  1  1  1  1
TYPE ASSIGNMENTS      1  1  1  1  1  1  1  1  1  1  1  1  1  1  1  1  1  1  1  1
TYPE ASSIGNMENTS      1  1  1  1  2  2  2  2  2  2  3  3  3  3  3  3  4  4  4  4
TYPE ASSIGNMENTS      4  4  2  2  2  2  2  2  3  3  3  3  3  3  4  4  4  4  4  4
TYPE ASSIGNMENTS      2  3  4  2  3  4  2  3  4  5  6  7  8  9 10  5  6  7  8  9
TYPE ASSIGNMENTS     10  5  6  7  8  9 10 11 12 13 17 14 15 18 19 16 20 11 12 13
TYPE ASSIGNMENTS     17 14 15 18 19 16 20  1  1  1  1  1  1  1  1  1  1  1  1  1
TYPE ASSIGNMENTS      1  1  1  2  2  2  3  3  3  4  4  4  2  3  4  2  3  4  2  3
TYPE ASSIGNMENTS      4  5  6  7  8  9 10  5  6  7  8  9 10  5  6  7  8  9 10 11
TYPE ASSIGNMENTS     12 13 17 14 15 18 19 16 20 11 12 13 17 14 15 18 19 16 20
EXPONENTS  0.8236000D+04 0.1235000D+04 0.2808000D+03 0.7927000D+02 0.2559000D+02
EXPONENTS  0.8997000D+01 0.3319000D+01 0.2808000D+03 0.7927000D+02 0.2559000D+02
EXPONENTS  0.8997000D+01 0.3319000D+01 0.3643000D+00 0.9059000D+00 0.1285000D+00
EXPONENTS  0.4402000D-01 0.1871000D+02 0.4133000D+01 0.1200000D+01 0.1871000D+02
EXPONENTS  0.4133000D+01 0.1200000D+01 0.1871000D+02 0.4133000D+01 0.1200000D+01
EXPONENTS  0.3827000D+00 0.3827000D+00 0.3827000D+00 0.1209000D+00 0.1209000D+00
EXPONENTS  0.1209000D+00 0.3569000D-01 0.3569000D-01 0.3569000D-01 0.1097000D+01
EXPONENTS  0.1097000D+01 0.1097000D+01 0.1097000D+01 0.1097000D+01 0.1097000D+01
EXPONENTS  0.3180000D+00 0.3180000D+00 0.3180000D+00 0.3180000D+00 0.3180000D+00
EXPONENTS  0.3180000D+00 0.1000000D+00 0.1000000D+00 0.1000000D+00 0.1000000D+00
EXPONENTS  0.1000000D+00 0.1000000D+00 0.7610000D+00 0.7610000D+00 0.7610000D+00
EXPONENTS  0.7610000D+00 0.7610000D+00 0.7610000D+00 0.7610000D+00 0.7610000D+00
EXPONENTS  0.7610000D+00 0.7610000D+00 0.2680000D+00 0.2680000D+00 0.2680000D+00
EXPONENTS  0.2680000D+00 0.2680000D+00 0.2680000D+00 0.2680000D+00 0.2680000D+00
EXPONENTS  0.2680000D+00 0.2680000D+00 0.3387000D+02 0.5095000D+01 0.1159000D+01
EXPONENTS  0.3258000D+00 0.1027000D+00 0.2526000D-01 0.1407000D+01 0.1407000D+01
EXPONENTS  0.1407000D+01 0.3880000D+00 0.3880000D+00 0.3880000D+00 0.1020000D+00
EXPONENTS  0.1020000D+00 0.1020000D+00 0.1057000D+01 0.1057000D+01 0.1057000D+01
EXPONENTS  0.1057000D+01 0.1057000D+01 0.1057000D+01 0.2470000D+00 0.2470000D+00
EXPONENTS  0.2470000D+00 0.2470000D+00 0.2470000D+00 0.2470000D+00 0.3387000D+02
EXPONENTS  0.5095000D+01 0.1159000D+01 0.3258000D+00 0.1027000D+00 0.2526000D-01
EXPONENTS  0.1407000D+01 0.1407000D+01 0.1407000D+01 0.3880000D+00 0.3880000D+00
EXPONENTS  0.3880000D+00 0.1020000D+00 0.1020000D+00 0.1020000D+00 0.1057000D+01
EXPONENTS  0.1057000D+01 0.1057000D+01 0.1057000D+01 0.1057000D+01 0.1057000D+01
EXPONENTS  0.2470000D+00 0.2470000D+00 0.2470000D+00 0.2470000D+00 0.2470000D+00
EXPONENTS  0.2470000D+00 0.3387000D+02 0.5095000D+01 0.1159000D+01 0.3258000D+00
EXPONENTS  0.1027000D+00 0.2526000D-01 0.1407000D+01 0.1407000D+01 0.1407000D+01
EXPONENTS  0.3880000D+00 0.3880000D+00 0.3880000D+00 0.1020000D+00 0.1020000D+00
EXPONENTS  0.1020000D+00 0.1057000D+01 0.1057000D+01 0.1057000D+01 0.1057000D+01
EXPONENTS  0.1057000D+01 0.1057000D+01 0.2470000D+00 0.2470000D+00 0.2470000D+00
EXPONENTS  0.2470000D+00 0.2470000D+00 0.2470000D+00 0.4561000D+06 0.6833000D+05
EXPONENTS  0.1555000D+05 0.4405000D+04 0.1439000D+04 0.5204000D+03 0.2031000D+03
EXPONENTS  0.8396000D+02 0.3620000D+02 0.1583000D+02 0.6334000D+01 0.4405000D+04
EXPONENTS  0.1439000D+04 0.5204000D+03 0.2031000D+03 0.8396000D+02 0.3620000D+02
EXPONENTS  0.1583000D+02 0.6334000D+01 0.2694000D+01 0.1439000D+04 0.2031000D+03
EXPONENTS  0.8396000D+02 0.3620000D+02 0.1583000D+02 0.6334000D+01 0.2694000D+01
EXPONENTS  0.4313000D+00 0.9768000D+00 0.1625000D+00 0.5910000D-01 0.6633000D+03
EXPONENTS  0.1568000D+03 0.4998000D+02 0.1842000D+02 0.7240000D+01 0.2922000D+01
EXPONENTS  0.6633000D+03 0.1568000D+03 0.4998000D+02 0.1842000D+02 0.7240000D+01
EXPONENTS  0.2922000D+01 0.6633000D+03 0.1568000D+03 0.4998000D+02 0.1842000D+02
EXPONENTS  0.7240000D+01 0.2922000D+01 0.1568000D+03 0.4998000D+02 0.1842000D+02
EXPONENTS  0.7240000D+01 0.2922000D+01 0.3818000D+00 0.1568000D+03 0.4998000D+02
EXPONENTS  0.1842000D+02 0.7240000D+01 0.2922000D+01 0.3818000D+00 0.1568000D+03
EXPONENTS  0.4998000D+02 0.1842000D+02 0.7240000D+01 0.2922000D+01 0.3818000D+00
EXPONENTS  0.1022000D+01 0.1022000D+01 0.1022000D+01 0.1301000D+00 0.1301000D+00
EXPONENTS  0.1301000D+00 0.4190000D-01 0.4190000D-01 0.4190000D-01 0.1046000D+01
EXPONENTS  0.1046000D+01 0.1046000D+01 0.1046000D+01 0.1046000D+01 0.1046000D+01
EXPONENTS  0.3440000D+00 0.3440000D+00 0.3440000D+00 0.3440000D+00 0.3440000D+00
EXPONENTS  0.3440000D+00 0.1350000D+00 0.1350000D+00 0.1350000D+00 0.1350000D+00
EXPONENTS  0.1350000D+00 0.1350000D+00 0.7060000D+00 0.7060000D+00 0.7060000D+00
EXPONENTS  0.7060000D+00 0.7060000D+00 0.7060000D+00 0.7060000D+00 0.7060000D+00
EXPONENTS  0.7060000D+00 0.7060000D+00 0.3120000D+00 0.3120000D+00 0.3120000D+00
EXPONENTS  0.3120000D+00 0.3120000D+00 0.3120000D+00 0.3120000D+00 0.3120000D+00
EXPONENTS  0.3120000D+00 0.3120000D+00 0.1950000D+05 0.2923000D+04 0.6645000D+03
EXPONENTS  0.1875000D+03 0.6062000D+02 0.2142000D+02 0.7950000D+01 0.6645000D+03
EXPONENTS  0.1875000D+03 0.6062000D+02 0.2142000D+02 0.7950000D+01 0.8815000D+00
EXPONENTS  0.2257000D+01 0.3041000D+00 0.9158000D-01 0.4388000D+02 0.9926000D+01
EXPONENTS  0.2930000D+01 0.4388000D+02 0.9926000D+01 0.2930000D+01 0.4388000D+02
EXPONENTS  0.9926000D+01 0.2930000D+01 0.9132000D+00 0.9132000D+00 0.9132000D+00
EXPONENTS  0.2672000D+00 0.2672000D+00 0.2672000D+00 0.7361000D-01 0.7361000D-01
EXPONENTS  0.7361000D-01 0.3107000D+01 0.3107000D+01 0.3107000D+01 0.3107000D+01
EXPONENTS  0.3107000D+01 0.3107000D+01 0.8550000D+00 0.8550000D+00 0.8550000D+00
EXPONENTS  0.8550000D+00 0.8550000D+00 0.8550000D+00 0.2920000D+00 0.2920000D+00
EXPONENTS  0.2920000D+00 0.2920000D+00 0.2920000D+00 0.2920000D+00 0.1917000D+01
EXPONENTS  0.1917000D+01 0.1917000D+01 0.1917000D+01 0.1917000D+01 0.1917000D+01
EXPONENTS  0.1917000D+01 0.1917000D+01 0.1917000D+01 0.1917000D+01 0.7240000D+00
EXPONENTS  0.7240000D+00 0.7240000D+00 0.7240000D+00 0.7240000D+00 0.7240000D+00
EXPONENTS  0.7240000D+00 0.7240000D+00 0.7240000D+00 0.7240000D+00
MO    1     MO 0.0        OCC NO =    2.0000300  ORB. ENERGY =    0.000000
  0.56463789D-04  0.10525988D-03  0.17790353D-03  0.26742219D-03  0.32848027D-03
  0.27722576D-03  0.10424412D-03 -0.16449466D-07 -0.12294957D-06 -0.45949061D-06
 -0.12819072D-05 -0.17174023D-05  0.20279319D-05  0.84508704D-05 -0.31172311D-04
 -0.98109325D-06  0.99082211D-04  0.92895871D-04  0.66147394D-04 -0.57244197D-04
 -0.53670074D-04 -0.38216290D-04  0.61249732D-05  0.57425517D-05  0.40890389D-05
  0.31748953D-03 -0.18343955D-03  0.11930600D-05  0.40459232D-03 -0.23377306D-03
 -0.69874085D-05  0.79920494D-05 -0.46177570D-05 -0.33081471D-07 -0.31935693D-04
  0.31250374D-04  0.68531996D-06  0.10898102D-03 -0.44040196D-03  0.25439978D-03
 -0.99194578D-04  0.97617711D-04  0.15768672D-05  0.34102195D-03  0.90659830D-04
 -0.52591664D-04 -0.20919468D-04  0.20872086D-04  0.47382409D-07  0.72331498D-04
 -0.56117807D-04  0.32379390D-04  0.80352124D-04 -0.46252674D-04  0.14546173D-05
  0.80375637D-04 -0.46936422D-04 -0.15895599D-04 -0.32143201D-03  0.18569444D-03
  0.11531747D-04  0.46641249D-04 -0.23405130D-04  0.14478868D-04 -0.67291365D-06
 -0.23355508D-04  0.10683630D-04 -0.24789992D-04  0.93570899D-04 -0.54120234D-04
  0.26808733D-04  0.89639999D-04  0.20035598D-04  0.36135027D-04  0.53281076D-04
 -0.17494367D-03 -0.56300430D-03  0.62896680D-05  0.35081800D-05 -0.35517931D-04
 -0.11763480D-04  0.74428640D-04 -0.14332895D-03 -0.13706466D-03  0.66919654D-04
 -0.86144007D-04 -0.11367054D-04  0.54742281D-04 -0.21408800D-04 -0.33333481D-04
  0.27466881D-04 -0.39093311D-04 -0.14968281D-03  0.21779173D-04  0.58257465D-05
 -0.27604920D-04  0.25919957D-04  0.53221671D-04 -0.16059030D-04 -0.38971287D-04
 -0.70286321D-04 -0.10363714D-03  0.38659496D-03  0.11390954D-02 -0.12425471D-04
  0.65189808D-04 -0.37634635D-04  0.26767239D-04  0.25379719D-03 -0.14644252D-03
  0.27729495D-03  0.15089169D-03 -0.87148510D-04  0.23245951D-04  0.36913630D-05
 -0.72901668D-04  0.69210305D-04 -0.13247377D-03  0.25865883D-03 -0.14917121D-03
 -0.20022373D-04 -0.35906364D-04  0.55928737D-04 -0.27510655D-04  0.27396452D-04
 -0.15727987D-04  0.20021099D-04  0.36108876D-04  0.53242517D-04 -0.17481576D-03
 -0.56259630D-03  0.62847900D-05  0.32491759D-04  0.14691513D-04 -0.11783944D-04
  0.16120112D-03  0.69894121D-05 -0.13704380D-03  0.10800721D-03 -0.14964239D-04
 -0.11395384D-04 -0.14228626D-04  0.47676699D-04 -0.33448073D-04 -0.51997745D-04
  0.11002941D-03  0.10851802D-03 -0.14004865D-05  0.28973829D-04 -0.27573342D-04
 -0.81279596D-06  0.40481446D-04 -0.38179495D-04 -0.48591138D-05 -0.90908835D-05
 -0.15707030D-04 -0.25462942D-04 -0.38667920D-04 -0.53744771D-04 -0.63898415D-04
 -0.56922928D-04 -0.28269130D-04 -0.45510907D-05 -0.48016695D-07 -0.19597742D-07
 -0.65374787D-06 -0.22781805D-05 -0.82040967D-05 -0.18084910D-04 -0.25457717D-04
  0.12144161D-05  0.33315843D-04  0.19699450D-04 -0.40612559D-08 -0.49191727D-07
 -0.10258416D-06 -0.29419351D-06 -0.15277059D-07  0.12687051D-05  0.32780903D-05
 -0.26708337D-05  0.27483804D-06  0.60176636D-05 -0.24012107D-06  0.10053187D+02
  0.13242399D+02  0.14608439D+02  0.12133452D+02  0.64431997D+01  0.16623792D+01
 -0.58087358D+01 -0.76514639D+01 -0.84407624D+01 -0.70107141D+01 -0.37228837D+01
 -0.96052346D+00  0.26686551D-01  0.35152430D-01  0.38778633D-01  0.32208691D-01
  0.17103709D-01  0.44128462D-02 -0.39788703D-03  0.38465158D-02  0.54239888D-02
  0.77577388D-02 -0.39284097D-04 -0.71145781D-02  0.22989904D-03 -0.22225160D-02
 -0.31339795D-02 -0.44824198D-02  0.22698343D-04  0.41108017D-02 -0.12938594D-05
  0.12508200D-04  0.17637868D-04  0.25226817D-04 -0.12774505D-06 -0.23135370D-04
  0.66375614D-01 -0.38351853D-01  0.18239083D-03 -0.55729124D-03  0.32200293D-03
 -0.34088393D-05 -0.50224824D-04  0.29020014D-04 -0.39461544D-07 -0.41742646D-05
  0.78743446D-05 -0.37000801D-05  0.19955935D-04 -0.84914048D-03  0.49061311D-03
  0.12674900D-05 -0.33539083D-05  0.20864183D-05 -0.76726228D-05  0.30935170D-03
 -0.17873334D-03 -0.76100659D-06  0.58634160D-06  0.17466499D-06  0.22766296D-05
 -0.52850394D-04  0.30535442D-04  0.22783548D-05 -0.14885132D-05  0.80653847D-07
  0.23115880D-05 -0.77974706D-06 -0.18160875D-04 -0.91466524D-05  0.52452866D-05
  0.17918914D-04  0.62471643D-04  0.12736655D-04 -0.73051946D-05 -0.30713011D-06
  0.12729889D-04 -0.75241232D-05  0.41384680D-05 -0.50939853D-04  0.29439707D-04
 -0.32170777D-05 -0.12877507D-04 -0.30474165D-05 -0.56803896D-05 -0.96295260D-05
 -0.14580405D-04 -0.18228717D-04 -0.15679966D-04 -0.60136043D-05 -0.41990257D-08
 -0.55587238D-07 -0.20190296D-06 -0.59894133D-06 -0.69015891D-06  0.83830080D-06
 -0.21250272D-06 -0.14924325D-05  0.86407251D-06 -0.25120310D-03 -0.24567115D-03
 -0.16232532D-03  0.14515562D-03  0.14195902D-03  0.93798329D-04  0.16249958D-04
  0.15892104D-04  0.10500585D-04 -0.61717426D-05  0.35717542D-05  0.28197177D-05
 -0.58479685D-04  0.33786417D-04  0.89994530D-07 -0.16957938D-04  0.97983817D-05
  0.23387180D-06 -0.35109712D-04  0.34314248D-04  0.79546467D-06  0.12012570D-03
 -0.11607517D-03  0.66993669D-04  0.17675117D-04 -0.17202185D-04 -0.47293205D-06
 -0.60314778D-04  0.88930958D-04 -0.51346332D-04 -0.87483351D-05  0.89717500D-05
 -0.22341491D-06  0.30621800D-04 -0.64777338D-04  0.37405869D-04 -0.61837088D-04
  0.36093926D-04  0.79314524D-06 -0.62022085D-04  0.34521021D-04  0.93279201D-04
  0.24753335D-03 -0.14280280D-03 -0.95658637D-04 -0.32657871D-03  0.21980654D-04
 -0.12817204D-04 -0.39423735D-06  0.22039253D-04 -0.12312314D-04 -0.29388534D-04
 -0.87981215D-04  0.50763926D-04  0.30571246D-04  0.10361382D-03
MO    2     MO 0.0        OCC NO =    2.0000300  ORB. ENERGY =    0.000000
  0.21956856D-08  0.40932003D-08  0.69180662D-08  0.10399144D-07  0.12773486D-07
  0.10780371D-07  0.40537011D-08 -0.17875340D-10 -0.13360709D-09 -0.49932020D-09
 -0.13930256D-08 -0.18662703D-08  0.22037172D-08  0.30839485D-08 -0.16116400D-07
 -0.57220746D-08  0.55231866D-04  0.51783385D-04  0.36872855D-04  0.95585380D-04
  0.89617369D-04  0.63812906D-04 -0.45402105D-07 -0.42567359D-07 -0.30310496D-07
  0.18289179D-03  0.31652028D-03 -0.17429173D-06  0.23301271D-03  0.40326595D-03
 -0.20980745D-06  0.46324667D-05  0.80172521D-05 -0.42416107D-08  0.55195013D-04
 -0.55434286D-04  0.23927355D-06  0.63594021D-04 -0.25509234D-03 -0.44137100D-03
  0.17013548D-03 -0.17009342D-03 -0.42061341D-07  0.19646858D-03  0.48296231D-04
  0.83949789D-04  0.36110064D-04 -0.36139244D-04  0.29179477D-07  0.41674090D-04
 -0.33061186D-04 -0.57139993D-04  0.46435550D-04  0.80076023D-04  0.17036626D-06
  0.45811601D-04  0.80098274D-04  0.22278665D-04 -0.18511825D-03 -0.32032634D-03
 -0.22789764D-04  0.25518312D-04 -0.13206517D-04 -0.23055577D-04 -0.48367094D-07
 -0.13592749D-04 -0.23014216D-04  0.42742112D-04  0.53212299D-04  0.92180946D-04
 -0.42597011D-04  0.49411622D-04 -0.34674164D-04 -0.62536283D-04 -0.92209713D-04
  0.32313714D-03  0.98086914D-03 -0.10646286D-04  0.17549063D-05  0.62337632D-04
  0.21286155D-04  0.43589326D-04  0.25154891D-03  0.23340910D-03  0.38596562D-04
  0.15020980D-03  0.19511927D-04 -0.95480053D-04  0.36897192D-04  0.58582861D-04
  0.16516628D-04 -0.23354383D-04  0.25762072D-03 -0.37654947D-04 -0.10224136D-04
  0.47879083D-04  0.14984215D-04  0.30280528D-04  0.26886387D-04 -0.88189293D-08
 -0.15905302D-07 -0.23452359D-07  0.96530590D-07  0.24689837D-06 -0.22165900D-08
  0.14582674D-05  0.24878541D-05  0.49536899D-08  0.43143354D-04  0.74568439D-04
  0.19557476D-07  0.38641667D-04  0.66834846D-04 -0.31747009D-07  0.13096001D-04
 -0.13135061D-04  0.39060521D-07  0.15065004D-04 -0.25409209D-04 -0.44092126D-04
  0.13086818D-04 -0.13072633D-04 -0.14184601D-07  0.15118302D-04  0.29556699D-04
  0.51191638D-04  0.34682086D-04  0.62550570D-04  0.92230779D-04 -0.32319946D-03
 -0.98111648D-03  0.10649224D-04  0.53121485D-04  0.32664360D-04 -0.21345492D-04
  0.19605414D-03  0.16328753D-03 -0.23368558D-03  0.11085216D-03  0.10848021D-03
 -0.19654604D-04  0.34211463D-05  0.55372804D-04 -0.58793950D-04 -0.12265577D-03
  0.23489940D-03  0.10844070D-03  0.23564505D-04  0.24360455D-04 -0.47924961D-04
 -0.31222576D-04  0.81289575D-05  0.39544528D-04  0.11311022D-06  0.21161714D-06
  0.36562749D-06  0.59272512D-06  0.90010997D-06  0.12510682D-05  0.14874242D-05
  0.13250492D-05  0.65804743D-06  0.10594007D-06  0.11177303D-08  0.53127425D-09
  0.17722420D-07  0.61759084D-07  0.22240446D-06  0.49026296D-06  0.69013202D-06
 -0.32921546D-07 -0.90315759D-06 -0.53403143D-06  0.96559333D-11  0.11695693D-09
  0.24390135D-09  0.69946661D-09  0.36322327D-10 -0.30164393D-08 -0.77938997D-08
  0.63501027D-08 -0.31862985D-07  0.39136427D-08  0.13777262D-08  0.58087571D+01
  0.76514920D+01  0.84407934D+01  0.70107398D+01  0.37228974D+01  0.96052698D+00
  0.10053199D+02  0.13242414D+02  0.14608456D+02  0.12133467D+02  0.64432075D+01
  0.16623812D+01 -0.53976003D-02 -0.71099022D-02 -0.78433351D-02 -0.65145039D-02
 -0.34593823D-02 -0.89253873D-03 -0.22983411D-03  0.22218883D-02  0.31330944D-02
  0.44811539D-02 -0.22691932D-04 -0.41096407D-02 -0.39777297D-03  0.38454131D-02
  0.54224339D-02  0.77555149D-02 -0.39272836D-04 -0.71125387D-02  0.21368560D-06
 -0.20657749D-05 -0.29129583D-05 -0.41663009D-05  0.21097561D-07  0.38208909D-05
  0.38352019D-01  0.66375720D-01 -0.35638766D-04 -0.32203395D-03 -0.55734467D-03
  0.29937292D-06 -0.29020070D-04 -0.50225012D-04  0.26825879D-07  0.11303788D-04
 -0.11758456D-04  0.45466839D-06  0.12787174D-04 -0.48929168D-03 -0.84678533D-03
 -0.37019291D-05  0.38683476D-05 -0.16641855D-06 -0.41791139D-05  0.17799696D-03
  0.30804647D-03  0.11504759D-05 -0.11785492D-05  0.28073299D-07  0.13116358D-05
 -0.30404819D-04 -0.52618210D-04  0.12776830D-05  0.19622440D-05  0.44296364D-08
  0.76036226D-06  0.19953770D-05  0.30552259D-04 -0.45934111D-05 -0.78821090D-05
 -0.30565548D-04  0.35271169D-04  0.72780892D-05  0.12701257D-04  0.27513794D-07
  0.75094140D-05  0.12694293D-04 -0.64246902D-05 -0.29343682D-04 -0.50798065D-04
  0.63421488D-05 -0.74490443D-05 -0.14805318D-07 -0.27597138D-07 -0.46783296D-07
 -0.70836238D-07 -0.88560899D-07 -0.76178254D-07 -0.29216000D-07  0.30886700D-10
  0.40888207D-09  0.14851341D-08  0.44056223D-08  0.50765898D-08 -0.61662745D-08
 -0.48458177D-09  0.10821245D-07  0.10842997D-07 -0.14572407D-03 -0.14251496D-03
 -0.94165657D-04 -0.25220583D-03 -0.24665179D-03 -0.16297327D-03  0.15118687D-06
  0.14785745D-06  0.97695672D-07 -0.41625012D-05 -0.72112917D-05  0.11222278D-08
 -0.33412656D-04 -0.57821460D-04  0.42873510D-07 -0.97543619D-05 -0.16881704D-04
  0.10558316D-07  0.61488393D-04 -0.61547302D-04  0.58908783D-07  0.70953164D-04
 -0.66743599D-04 -0.11537766D-03 -0.30823682D-04  0.30870586D-04 -0.46903566D-07
 -0.35558545D-04  0.51221922D-04  0.88580589D-04  0.15563868D-04 -0.15600869D-04
  0.37001576D-07  0.17949514D-04 -0.37153013D-04 -0.64261572D-04 -0.35238666D-04
 -0.61804653D-04 -0.13738284D-06 -0.37448926D-04 -0.61981374D-04 -0.16315394D-03
  0.14316492D-03  0.24739533D-03  0.16356609D-03 -0.18821000D-03  0.12541588D-04
  0.21946448D-04  0.49303310D-07  0.13200721D-04  0.22002449D-04  0.51755097D-04
 -0.50825485D-04 -0.87841793D-04 -0.51903007D-04  0.59698016D-04
MO    3     MO 0.0        OCC NO =    2.0000210  ORB. ENERGY =    0.000000
 -0.14423746D-01 -0.26888769D-01 -0.45445683D-01 -0.68313338D-01 -0.83910700D-01
 -0.70817671D-01 -0.26629293D-01 -0.38200044D-05 -0.28552167D-04 -0.10670597D-03
 -0.29769303D-03 -0.39882659D-03  0.47093983D-03 -0.86852311D-03 -0.19420909D-02
 -0.82647395D-04  0.24297585D-05  0.22780531D-05  0.16221095D-05 -0.77363641D-06
 -0.72533331D-06 -0.51648053D-06  0.11722997D-02  0.10991054D-02  0.78262855D-03
  0.83492115D-06 -0.15506527D-06  0.60838904D-03  0.24722215D-05 -0.16365105D-05
 -0.38285707D-03  0.42875317D-07 -0.22310901D-07  0.46377501D-05 -0.10546245D-03
 -0.10604395D-03  0.21150640D-03 -0.10060960D-05  0.13537499D-05 -0.44188939D-06
 -0.24734787D-04 -0.24204427D-04  0.48939214D-04  0.91751255D-06  0.27544842D-05
 -0.15102335D-05  0.11327070D-04  0.11628876D-04 -0.22955946D-04  0.52289830D-06
  0.44419967D-06 -0.29399528D-06 -0.11618045D-06  0.36573949D-04  0.85441817D-05
 -0.60039616D-07 -0.10951295D-03 -0.13328299D-04  0.40858097D-06 -0.20889805D-06
 -0.12304246D-04  0.19812692D-05  0.15112898D-06  0.52064445D-04 -0.86057824D-04
  0.23026182D-06 -0.15630851D-03  0.12886938D-03 -0.68364878D-06  0.11517169D-06
  0.12930409D-03  0.10443690D-05 -0.47031084D-05 -0.84822497D-05 -0.12507072D-04
  0.75509717D-03  0.23339988D-03  0.49936512D-05  0.30792717D-06  0.96234381D-04
  0.28609624D-04  0.83444920D-07  0.19985895D-03 -0.50115895D-05  0.56041510D-06
  0.43699214D-04  0.38640360D-04 -0.74245766D-04  0.54323885D-04  0.19921881D-04
  0.40303500D-06  0.65103919D-06  0.75974985D-04 -0.97723669D-05 -0.12062432D-04
  0.21834799D-04  0.17332171D-06 -0.73439525D-07 -0.34757554D-04 -0.44686452D-05
 -0.80593856D-05 -0.11883559D-04  0.75802864D-03  0.24410274D-03  0.52822871D-05
  0.84928612D-04 -0.49031119D-04  0.31416601D-04  0.17204397D-03 -0.99361696D-04
 -0.88726363D-05  0.39076919D-04 -0.22546598D-04  0.39446392D-04  0.20940027D-04
 -0.43664455D-04  0.22724428D-04 -0.11189107D-03  0.65274888D-04 -0.37591551D-04
 -0.11529922D-04 -0.10123437D-04  0.21653359D-04  0.24046322D-05 -0.30120088D-04
  0.17428606D-04 -0.47026626D-05 -0.84814457D-05 -0.12505887D-04  0.75510100D-03
  0.23341021D-03  0.49939971D-05 -0.83187792D-04 -0.48340921D-04  0.28688748D-04
 -0.17307048D-03 -0.99961599D-04 -0.48560840D-05 -0.37553428D-04 -0.22295308D-04
  0.38675694D-04  0.22004382D-04 -0.41989723D-04  0.19985341D-04  0.11144390D-03
 -0.65569818D-04 -0.38485741D-04 -0.11551345D-04 -0.10255137D-04  0.21806482D-04
 -0.18631805D-05  0.30101909D-04  0.17488140D-04 -0.15450775D+00 -0.28906751D+00
 -0.49944455D+00 -0.80965829D+00 -0.12295438D+01 -0.17089502D+01 -0.20318109D+01
 -0.18100077D+01 -0.89888810D+00 -0.14471338D+00 -0.15268116D-02 -0.72240047D-03
 -0.24098070D-01 -0.83976950D-01 -0.30241459D+00 -0.66663534D+00 -0.93840740D+00
  0.44765091D-01  0.12280690D+01  0.72614954D+00 -0.15524237D-04 -0.18803642D-03
 -0.39213013D-03 -0.11245609D-02 -0.58396883D-04  0.48496521D-02  0.12530570D-01
 -0.10209318D-01  0.46572561D-01 -0.37988773D-03 -0.13192698D-03 -0.10601353D-01
 -0.13964462D-01 -0.15404988D-01 -0.12795049D-01 -0.67945259D-02 -0.17530232D-02
  0.93280914D-02  0.12287278D-01  0.13554792D-01  0.11258316D-01  0.59784780D-02
  0.15424786D-02  0.59515538D+01  0.78395886D+01  0.86482934D+01  0.71830848D+01
  0.38144174D+01  0.98413962D+00  0.31453922D-06 -0.30407628D-05 -0.42877930D-05
 -0.61326782D-05  0.31055019D-07  0.56242443D-05 -0.29545647D-06  0.28562830D-05
  0.40276572D-05  0.57606153D-05 -0.29170945D-07 -0.52830275D-05 -0.21128981D-03
  0.20426140D-02  0.28802989D-02  0.41195894D-02 -0.20861021D-04 -0.37780520D-02
 -0.72695487D-04  0.64456194D-04  0.41727134D-01  0.56008737D-06 -0.58457133D-06
 -0.48546659D-03  0.62408089D-07 -0.41383887D-07 -0.98744886D-05 -0.63880951D-05
 -0.60313000D-05  0.12419395D-04  0.61694578D-06 -0.15999736D-05  0.94387987D-06
 -0.11190687D-03 -0.11205338D-03  0.22396024D-03 -0.25388149D-06  0.21885077D-06
  0.23462382D-06 -0.14408462D-04 -0.14336776D-04  0.28745239D-04  0.12383652D-06
 -0.17911818D-06  0.14951500D-06  0.16655109D-06 -0.74494011D-05  0.53407945D-05
  0.15579544D-06  0.21953396D-04 -0.82021675D-05 -0.65544870D-06  0.39480766D-06
 -0.78202159D-05  0.61693449D-06 -0.53560369D-07  0.21614755D-05 -0.33852259D-04
 -0.50475508D-07 -0.62538415D-05  0.50829625D-04  0.21115661D-06 -0.23058514D-06
  0.50727153D-04 -0.16422481D-06 -0.87690870D-03 -0.16345593D-02 -0.27709422D-02
 -0.41955812D-02 -0.52454006D-02 -0.45119852D-02 -0.17304434D-02 -0.68377627D-06
 -0.90519174D-05 -0.32878211D-04 -0.97532594D-04 -0.11238661D-03  0.13651028D-03
 -0.95833050D-04 -0.16039956D-03  0.12275262D-04 -0.42731506D-06 -0.41790480D-06
 -0.27612737D-06  0.24196144D-05  0.23663300D-05  0.15635343D-05  0.39105487D-02
  0.38244313D-02  0.25269634D-02  0.26177875D-06  0.34000485D-06  0.88061144D-03
 -0.13741474D-06  0.89784040D-07  0.21057990D-04  0.81417747D-07 -0.41695418D-07
  0.93452751D-05 -0.35813918D-04 -0.36267242D-04  0.72081160D-04 -0.78961310D-06
 -0.38723640D-06  0.34502008D-06  0.21201976D-04  0.21454528D-04 -0.42656504D-04
  0.43949330D-06  0.28625103D-06 -0.23636487D-06  0.18252271D-04  0.18104267D-04
 -0.36356538D-04 -0.25681679D-06 -0.17275866D-06  0.37850631D-07 -0.21431718D-06
 -0.25731667D-05  0.46849789D-04 -0.21637250D-06  0.80505012D-05 -0.71279883D-04
  0.85932405D-06 -0.33100105D-06 -0.69269484D-04  0.34616426D-05  0.56650922D-07
  0.82950337D-06 -0.25614132D-04  0.57313720D-07 -0.25309470D-05  0.38733260D-04
 -0.22726649D-06  0.42436877D-07  0.38109134D-04 -0.10742651D-05
MO    4     MO 0.0        OCC NO =    2.0000124  ORB. ENERGY =    0.000000
  0.27129394D-01  0.50574656D-01  0.85478059D-01  0.12848947D+00  0.15782629D+00
  0.13319982D+00  0.50086613D-01 -0.14299324D-05 -0.10687859D-04 -0.39942969D-04
 -0.11143466D-03 -0.14929173D-03  0.17628569D-03  0.26725150D-02 -0.36229340D-02
 -0.44084905D-04  0.12299362D-04  0.11531434D-04  0.82110679D-05 -0.51252779D-05
 -0.48052739D-05 -0.34216412D-05  0.36700904D-02  0.34409431D-02  0.24501564D-02
 -0.11865280D-05  0.13808091D-05  0.13032242D-02  0.44205526D-05 -0.27843057D-05
 -0.42174376D-03  0.10786739D-06 -0.60498482D-07  0.36500385D-05 -0.31606741D-03
 -0.31845617D-03  0.63452357D-03 -0.41364561D-05  0.14654850D-06  0.94302749D-06
  0.75948030D-05  0.79273274D-05 -0.15522130D-04  0.57093081D-06  0.78175097D-05
 -0.45405455D-05 -0.17804401D-04 -0.17283746D-04  0.35088147D-04  0.90142755D-06
  0.84284586D-06 -0.42956475D-06 -0.39662062D-06 -0.42082865D-04  0.23725796D-04
 -0.45862082D-06  0.12712422D-03 -0.36651052D-04  0.16484827D-05 -0.87562965D-06
 -0.34526335D-04  0.34476243D-05  0.29333165D-06  0.82998313D-04 -0.16357276D-03
  0.42036568D-06 -0.24921528D-03  0.24454515D-03 -0.13003606D-05  0.22034055D-06
  0.24617312D-03  0.32844300D-05 -0.89970817D-04 -0.16226607D-03 -0.23926123D-03
  0.10317300D-02  0.67852835D-03  0.41204330D-05  0.87074131D-06 -0.57323242D-04
  0.33797563D-04 -0.50883526D-08  0.30632437D-03 -0.44203761D-04  0.89937814D-06
  0.11035043D-03  0.75296909D-04 -0.14244168D-03  0.23866732D-04  0.11857495D-03
  0.14354335D-05  0.10319452D-05  0.14192742D-03 -0.15443839D-04 -0.21094782D-04
  0.36538621D-04  0.19903908D-06  0.32292011D-06 -0.63193567D-04 -0.90243136D-04
 -0.16275721D-03 -0.23998541D-03  0.10288924D-02  0.69760058D-03  0.47774992D-05
 -0.47574145D-04  0.27496463D-04  0.42319664D-04  0.25921763D-03 -0.14972467D-03
 -0.43168351D-04  0.97652666D-04 -0.56355468D-04  0.76486187D-04 -0.22525795D-04
 -0.10517002D-03  0.12769581D-03 -0.14308731D-03  0.13057389D-03 -0.75112602D-04
 -0.20278567D-04 -0.16711630D-04  0.36990197D-04  0.61226674D-05 -0.53785418D-04
  0.31117877D-04 -0.89970691D-04 -0.16226585D-03 -0.23926090D-03  0.10317454D-02
  0.67854407D-03  0.41214358D-05  0.50098342D-04  0.27919127D-04  0.33757565D-04
 -0.26535080D-03 -0.15312768D-03 -0.43960470D-04 -0.95097075D-04 -0.55870711D-04
  0.75386729D-04 -0.18355018D-04 -0.10034136D-03  0.11869637D-03  0.14457480D-03
 -0.12240661D-03 -0.71541158D-04 -0.19743715D-04 -0.16743307D-04  0.36487022D-04
 -0.47335958D-05  0.54951924D-04  0.31390912D-04  0.91459005D-01  0.17111004D+00
  0.29564019D+00  0.47926749D+00  0.72781367D+00  0.10115925D+01  0.12027060D+01
  0.10714123D+01  0.53208600D+00  0.85661345D-01  0.90377779D-03  0.42821496D-03
  0.14284534D-01  0.49778742D-01  0.17926131D+00  0.39515925D+00  0.55625669D+00
 -0.26535257D-01 -0.72795847D+00 -0.43043729D+00  0.62941296D-05  0.76237280D-04
  0.15898481D-03  0.45594076D-03  0.23676369D-04 -0.19662377D-02 -0.50803805D-02
  0.41392549D-02 -0.28587931D-01  0.14244082D-02 -0.18071830D-03 -0.17456406D-01
 -0.22994170D-01 -0.25366169D-01 -0.21068589D-01 -0.11188005D-01 -0.28865639D-02
  0.15401763D-01  0.20287725D-01  0.22380537D-01  0.18588788D-01  0.98711624D-02
  0.25468115D-02  0.99081029D+01  0.13051289D+02  0.14397615D+02  0.11958347D+02
  0.63502139D+01  0.16383884D+01  0.40741752D-06 -0.39386504D-05 -0.55539083D-05
 -0.79435580D-05  0.40225060D-07  0.72849919D-05 -0.41620618D-06  0.40236135D-05
  0.56737151D-05  0.81149135D-05 -0.41092779D-07 -0.74421410D-05 -0.33697694D-03
  0.32576762D-02  0.45936635D-02  0.65701540D-02 -0.33270335D-04 -0.60254509D-02
 -0.12312675D-03  0.11003921D-03  0.72502151D-01  0.87141195D-06 -0.67007239D-06
 -0.30834624D-03  0.97256688D-07 -0.58398335D-07 -0.40302951D-05  0.45344897D-03
  0.45407776D-03 -0.90752673D-03  0.10903368D-05  0.17128187D-06 -0.15604486D-05
 -0.30930716D-03 -0.30966527D-03  0.61897243D-03 -0.62051478D-06  0.28190349D-06
  0.83446623D-06  0.42119303D-05  0.43461939D-05 -0.85581242D-05  0.23203617D-06
 -0.41707235D-06  0.22743624D-06  0.41542520D-06 -0.14973931D-04 -0.47076842D-04
  0.39376291D-06  0.44127152D-04  0.70255863D-04 -0.16400385D-05  0.79464026D-06
  0.70974662D-04  0.11570362D-05 -0.95743485D-07  0.43629311D-05 -0.62444311D-04
 -0.89394461D-07 -0.12670167D-04  0.93713169D-04  0.37662492D-06 -0.41862617D-06
  0.93619765D-04 -0.13616546D-06 -0.63310510D-02 -0.11801090D-01 -0.20005477D-01