 Entering Gaussian System, Link 0=/home/bruns/programas/chemistry/gaussian/g09/g09
 Input=GAUSSIAN.com
 Output=GAUSSIAN.log
 Initial command:
 /home/bruns/programas/chemistry/gaussian/g09/l1.exe /home/bruns/programas/chemistry/gaussian/work/Gau-76841.inp -scrdir=/home/bruns/programas/chemistry/gaussian/work/
 Entering Link 1 = /home/bruns/programas/chemistry/gaussian/g09/l1.exe PID=     76843.
  
 Copyright (c) 1988,1990,1992,1993,1995,1998,2003,2009,2010,
            Gaussian, Inc.  All Rights Reserved.
  
 This is part of the Gaussian(R) 09 program.  It is based on
 the Gaussian(R) 03 system (copyright 2003, Gaussian, Inc.),
 the Gaussian(R) 98 system (copyright 1998, Gaussian, Inc.),
 the Gaussian(R) 94 system (copyright 1995, Gaussian, Inc.),
 the Gaussian 92(TM) system (copyright 1992, Gaussian, Inc.),
 the Gaussian 90(TM) system (copyright 1990, Gaussian, Inc.),
 the Gaussian 88(TM) system (copyright 1988, Gaussian, Inc.),
 the Gaussian 86(TM) system (copyright 1986, Carnegie Mellon
 University), and the Gaussian 82(TM) system (copyright 1983,
 Carnegie Mellon University). Gaussian is a federally registered
 trademark of Gaussian, Inc.
  
 This software contains proprietary and confidential information,
 including trade secrets, belonging to Gaussian, Inc.
  
 This software is provided under written license and may be
 used, copied, transmitted, or stored only in accord with that
 written license.
  
 The following legend is applicable only to US Government
 contracts under FAR:
  
                    RESTRICTED RIGHTS LEGEND
  
 Use, reproduction and disclosure by the US Government is
 subject to restrictions as set forth in subparagraphs (a)
 and (c) of the Commercial Computer Software - Restricted
 Rights clause in FAR 52.227-19.
  
 Gaussian, Inc.
 340 Quinnipiac St., Bldg. 40, Wallingford CT 06492
  
  
 ---------------------------------------------------------------
 Warning -- This program may not be used in any manner that
 competes with the business of Gaussian, Inc. or will provide
 assistance to any competitor of Gaussian, Inc.  The licensee
 of this program is prohibited from giving any competitor of
 Gaussian, Inc. access to this program.  By using this program,
 the user acknowledges that Gaussian, Inc. is engaged in the
 business of creating and licensing software in the field of
 computational chemistry and represents and warrants to the
 licensee that it is not a competitor of Gaussian, Inc. and that
 it will not use this program in any manner prohibited above.
 ---------------------------------------------------------------
  

 Cite this work as:
 Gaussian 09, Revision B.01,
 M. J. Frisch, G. W. Trucks, H. B. Schlegel, G. E. Scuseria, 
 M. A. Robb, J. R. Cheeseman, G. Scalmani, V. Barone, B. Mennucci, 
 G. A. Petersson, H. Nakatsuji, M. Caricato, X. Li, H. P. Hratchian, 
 A. F. Izmaylov, J. Bloino, G. Zheng, J. L. Sonnenberg, M. Hada, 
 M. Ehara, K. Toyota, R. Fukuda, J. Hasegawa, M. Ishida, T. Nakajima, 
 Y. Honda, O. Kitao, H. Nakai, T. Vreven, J. A. Montgomery, Jr., 
 J. E. Peralta, F. Ogliaro, M. Bearpark, J. J. Heyd, E. Brothers, 
 K. N. Kudin, V. N. Staroverov, T. Keith, R. Kobayashi, J. Normand, 
 K. Raghavachari, A. Rendell, J. C. Burant, S. S. Iyengar, J. Tomasi, 
 M. Cossi, N. Rega, J. M. Millam, M. Klene, J. E. Knox, J. B. Cross, 
 V. Bakken, C. Adamo, J. Jaramillo, R. Gomperts, R. E. Stratmann, 
 O. Yazyev, A. J. Austin, R. Cammi, C. Pomelli, J. W. Ochterski, 
 R. L. Martin, K. Morokuma, V. G. Zakrzewski, G. A. Voth, 
 P. Salvador, J. J. Dannenberg, S. Dapprich, A. D. Daniels, 
 O. Farkas, J. B. Foresman, J. V. Ortiz, J. Cioslowski, 
 and D. J. Fox, Gaussian, Inc., Wallingford CT, 2010.
 
 ******************************************
 Gaussian 09:  EM64L-G09RevB.01 12-Aug-2010
                23-Aug-2020 
 ******************************************
 %nproc=8
 Will use up to    8 processors via shared memory.
 %mem=8GB
 -----------------------------------------------------
 # QCISD aug-cc-pvtz nosymm density=current output=wfn
 -----------------------------------------------------
 1/30=1,38=1/1;
 2/12=2,15=1,17=6,18=5,40=1/2;
 3/5=16,6=1,7=10,11=9,16=1,25=1,30=1,71=1/1,2,3;
 4//1;
 5/5=2,38=5/2;
 8/6=4,9=120000,10=1/1,4;
 9/5=8,15=1/13;
 11/28=-7,31=1,32=3,42=3/11;
 10/5=6,13=10,31=1/2;
 6/7=2,8=2,9=2,10=2,22=-1,31=1/1;
 99/5=1,6=1100,9=1/99;
 ----------------------
 clch3f_ts-wavefunction
 ----------------------
 Symbolic Z-matrix:
 Charge = -1 Multiplicity = 1
 C                     0.00018   0.00003  -0.49771 
 H                     0.00002  -1.05257  -0.61073 
 H                    -0.91131   0.52637  -0.62125 
 H                     0.91175   0.52613  -0.62157 
 Cl                    0.00056   0.00096   1.64472 
 F                    -0.00019  -0.00092  -2.59347 
 
                          Input orientation:                          
 ---------------------------------------------------------------------
 Center     Atomic      Atomic             Coordinates (Angstroms)
 Number     Number       Type             X           Y           Z
 ---------------------------------------------------------------------
      1          6           0        0.000175    0.000029   -0.497709
      2          1           0        0.000019   -1.052570   -0.610726
      3          1           0       -0.911312    0.526365   -0.621245
      4          1           0        0.911750    0.526132   -0.621570
      5         17           0        0.000555    0.000962    1.644718
      6          9           0       -0.000186   -0.000921   -2.593468
 ---------------------------------------------------------------------
                    Distance matrix (angstroms):
                    1          2          3          4          5
     1  C    0.000000
     2  H    1.058649   0.000000
     3  H    1.059764   1.823094   0.000000
     4  H    1.059762   1.823094   1.823062   0.000000
     5  Cl   2.142427   2.489369   2.498427   2.498428   0.000000
     6  F    2.095759   2.244378   2.235586   2.235575   4.238186
                    6
     6  F    0.000000
 Symmetry turned off by external request.
 This structure is nearly, but not quite of a higher symmetry.
 Consider Symm=Loose if the higher symmetry is desired.
 Stoichiometry    CH3ClF(1-)
 Framework group  C1[X(CH3ClF)]
 Deg. of freedom    12
 Full point group                 C1      NOp   1
 Rotational constants (GHZ):    150.8786635      2.2148439      2.2148438
 Standard basis: Aug-CC-pVTZ (5D, 7F)
 Integral buffers will be    131072 words long.
 Raffenetti 1 integral format.
 Two-electron integral symmetry is turned off.
   211 basis functions,   339 primitive gaussians,   244 cartesian basis functions
    18 alpha electrons       18 beta electrons
       nuclear repulsion energy        84.9921525940 Hartrees.
 NAtoms=    6 NActive=    6 NUniq=    6 SFac= 1.00D+00 NAtFMM=   50 NAOKFM=F Big=F
 One-electron integrals computed using PRISM.
 NBasis=   211 RedAO= T  NBF=   211
 NBsUse=   211 1.00D-06 NBFU=   211
 Harris functional with IExCor=  205 diagonalized for initial guess.
 ExpMin= 2.53D-02 ExpMax= 4.56D+05 ExpMxC= 1.44D+03 IAcc=3 IRadAn=         0 AccDes= 0.00D+00
 HarFok:  IExCor=  205 AccDes= 0.00D+00 IRadAn=         0 IDoV= 1
 ScaDFX=  1.000000  1.000000  1.000000  1.000000
 FoFCou: FMM=F IPFlag=           0 FMFlag=      100000 FMFlg1=           0
         NFxFlg=           0 DoJE=T BraDBF=F KetDBF=T FulRan=T
         Omega=  0.000000  0.000000  1.000000  0.000000  0.000000 ICntrl=     500 IOpCl=  0
         NMat0=    1 NMatS0=    1 NMatT0=    0 NMatD0=    1 NMtDS0=    0 NMtDT0=    0
         I1Cent=           4 NGrid=           0.
 Symmetry not used in FoFCou.
 Requested convergence on RMS density matrix=1.00D-08 within 128 cycles.
 Requested convergence on MAX density matrix=1.00D-06.
 Requested convergence on             energy=1.00D-06.
 No special actions if energy rises.
 Keep R1 ints in memory in canonical form, NReq=454274131.
 SCF Done:  E(RHF) =  -598.617115476     A.U. after   12 cycles
             Convg  =    0.9463D-08             -V/T =  2.0001
 ExpMin= 2.53D-02 ExpMax= 4.56D+05 ExpMxC= 1.44D+03 IAcc=3 IRadAn=         5 AccDes= 0.00D+00
 HarFok:  IExCor=  205 AccDes= 0.00D+00 IRadAn=         5 IDoV=-2
 ScaDFX=  1.000000  1.000000  1.000000  1.000000
 Range of M.O.s used for correlation:     8   211
 NBasis=   211 NAE=    18 NBE=    18 NFC=     7 NFV=     0
 NROrb=    204 NOA=    11 NOB=    11 NVA=   193 NVB=   193

 **** Warning!!: The largest alpha MO coefficient is  0.35859287D+02

 Semi-Direct transformation.
 ModeAB=           2 MOrb=            11 LenV=    1072528236
 LASXX=     44979418 LTotXX=    44979418 LenRXX=    44979418
 LTotAB=    45631872 MaxLAS=    67073160 LenRXY=    67073160
 NonZer=    89958836 LenScr=   135708672 LnRSAI=           0
 LnScr1=           0 LExtra=           0 Total=    247761250
 MaxDsk=          -1 SrtSym=           F ITran=            4
 JobTyp=0 Pass  1:  I=   1 to  11.
 (rs|ai) integrals will be sorted in core.
 Spin components of T(2) and E(2):
     alpha-alpha T2 =       0.2567284493D-01 E2=     -0.8208097959D-01
     alpha-beta  T2 =       0.1452368474D+00 E2=     -0.5099612548D+00
     beta-beta   T2 =       0.2567284493D-01 E2=     -0.8208097959D-01
 ANorm=    0.1093884152D+01
 E2 =    -0.6741232140D+00 EUMP2 =    -0.59929123868954D+03
 R2 and R3 integrals will be kept in memory, NReq=   900794930.
 Iterations=  50 Convergence= 0.100D-07
 Iteration Nr.   1
 **********************
 DD1Dir will call FoFMem   1 times, MxPair=       132
 NAB=    66 NAA=     0 NBB=     0.
 MP4(R+Q)=  0.14436978D-01
 E3=       -0.18693221D-01        EUMP3=      -0.59930993191D+03
 E4(DQ)=   -0.45119806D-03        UMP4(DQ)=   -0.59931038311D+03
 E4(SDQ)=  -0.98192123D-02        UMP4(SDQ)=  -0.59931975112D+03
 DE(Corr)= -0.67837946     E(Corr)=     -599.29549493    
 NORM(A)=   0.10996707D+01
 Iteration Nr.   2
 **********************
 DD1Dir will call FoFMem   1 times, MxPair=       132
 NAB=    66 NAA=     0 NBB=     0.
 DE(Corr)= -0.70058058     E(CORR)=     -599.31769606     Delta=-2.22D-02
 NORM(A)=   0.11070260D+01
 Iteration Nr.   3
 **********************
 DD1Dir will call FoFMem   1 times, MxPair=       132
 NAB=    66 NAA=     0 NBB=     0.
 DE(Corr)= -0.69818331     E(CORR)=     -599.31529879     Delta= 2.40D-03
 NORM(A)=   0.11110120D+01
 Iteration Nr.   4
 **********************
 DD1Dir will call FoFMem   1 times, MxPair=       132
 NAB=    66 NAA=     0 NBB=     0.
 DE(Corr)= -0.70124250     E(CORR)=     -599.31835797     Delta=-3.06D-03
 NORM(A)=   0.11131170D+01
 Iteration Nr.   5
 **********************
 DD1Dir will call FoFMem   1 times, MxPair=       132
 NAB=    66 NAA=     0 NBB=     0.
 DE(Corr)= -0.70183744     E(CORR)=     -599.31895291     Delta=-5.95D-04
 NORM(A)=   0.11141465D+01
 Iteration Nr.   6
 **********************
 DD1Dir will call FoFMem   1 times, MxPair=       132
 NAB=    66 NAA=     0 NBB=     0.
 DE(Corr)= -0.70198394     E(CORR)=     -599.31909941     Delta=-1.46D-04
 NORM(A)=   0.11144710D+01
 Iteration Nr.   7
 **********************
 DD1Dir will call FoFMem   1 times, MxPair=       132
 NAB=    66 NAA=     0 NBB=     0.
 DE(Corr)= -0.70201354     E(CORR)=     -599.31912901     Delta=-2.96D-05
 NORM(A)=   0.11145018D+01
 Iteration Nr.   8
 **********************
 DD1Dir will call FoFMem   1 times, MxPair=       132
 NAB=    66 NAA=     0 NBB=     0.
 DE(Corr)= -0.70202730     E(CORR)=     -599.31914278     Delta=-1.38D-05
 NORM(A)=   0.11145195D+01
 Iteration Nr.   9
 **********************
 DD1Dir will call FoFMem   1 times, MxPair=       132
 NAB=    66 NAA=     0 NBB=     0.
 DE(Corr)= -0.70200421     E(CORR)=     -599.31911968     Delta= 2.31D-05
 NORM(A)=   0.11145226D+01
 Iteration Nr.  10
 **********************
 DD1Dir will call FoFMem   1 times, MxPair=       132
 NAB=    66 NAA=     0 NBB=     0.
 DE(Corr)= -0.70202341     E(CORR)=     -599.31913888     Delta=-1.92D-05
 NORM(A)=   0.11145228D+01
 Iteration Nr.  11
 **********************
 DD1Dir will call FoFMem   1 times, MxPair=       132
 NAB=    66 NAA=     0 NBB=     0.
 DE(Corr)= -0.70201425     E(CORR)=     -599.31912973     Delta= 9.16D-06
 NORM(A)=   0.11145257D+01
 Iteration Nr.  12
 **********************
 DD1Dir will call FoFMem   1 times, MxPair=       132
 NAB=    66 NAA=     0 NBB=     0.
 DE(Corr)= -0.70201800     E(CORR)=     -599.31913347     Delta=-3.75D-06
 NORM(A)=   0.11145261D+01
 Iteration Nr.  13
 **********************
 DD1Dir will call FoFMem   1 times, MxPair=       132
 NAB=    66 NAA=     0 NBB=     0.
 DE(Corr)= -0.70201857     E(CORR)=     -599.31913405     Delta=-5.72D-07
 NORM(A)=   0.11145268D+01
 Iteration Nr.  14
 **********************
 DD1Dir will call FoFMem   1 times, MxPair=       132
 NAB=    66 NAA=     0 NBB=     0.
 DE(Corr)= -0.70201879     E(CORR)=     -599.31913427     Delta=-2.21D-07
 NORM(A)=   0.11145269D+01
 Iteration Nr.  15
 **********************
 DD1Dir will call FoFMem   1 times, MxPair=       132
 NAB=    66 NAA=     0 NBB=     0.
 DE(Corr)= -0.70201870     E(CORR)=     -599.31913418     Delta= 8.83D-08
 NORM(A)=   0.11145269D+01
 Iteration Nr.  16
 **********************
 DD1Dir will call FoFMem   1 times, MxPair=       132
 NAB=    66 NAA=     0 NBB=     0.
 DE(Corr)= -0.70201891     E(CORR)=     -599.31913438     Delta=-2.03D-07
 NORM(A)=   0.11145267D+01
 Iteration Nr.  17
 **********************
 DD1Dir will call FoFMem   1 times, MxPair=       132
 NAB=    66 NAA=     0 NBB=     0.
 DE(Corr)= -0.70201878     E(CORR)=     -599.31913425     Delta= 1.29D-07
 NORM(A)=   0.11145266D+01
 Iteration Nr.  18
 **********************
 DD1Dir will call FoFMem   1 times, MxPair=       132
 NAB=    66 NAA=     0 NBB=     0.
 DE(Corr)= -0.70201881     E(CORR)=     -599.31913429     Delta=-3.64D-08
 NORM(A)=   0.11145265D+01
 Iteration Nr.  19
 **********************
 DD1Dir will call FoFMem   1 times, MxPair=       132
 NAB=    66 NAA=     0 NBB=     0.
 DE(Corr)= -0.70201876     E(CORR)=     -599.31913424     Delta= 5.17D-08
 NORM(A)=   0.11145264D+01
 Iteration Nr.  20
 **********************
 DD1Dir will call FoFMem   1 times, MxPair=       132
 NAB=    66 NAA=     0 NBB=     0.
 DE(Corr)= -0.70201876     E(CORR)=     -599.31913424     Delta=-2.71D-09
 NORM(A)=   0.11145263D+01
 Iteration Nr.  21
 **********************
 DD1Dir will call FoFMem   1 times, MxPair=       132
 NAB=    66 NAA=     0 NBB=     0.
 DE(Corr)= -0.70201874     E(CORR)=     -599.31913422     Delta= 1.99D-08
 NORM(A)=   0.11145263D+01
 Iteration Nr.  22
 **********************
 DD1Dir will call FoFMem   1 times, MxPair=       132
 NAB=    66 NAA=     0 NBB=     0.
 DE(Corr)= -0.70201874     E(CORR)=     -599.31913422     Delta= 1.97D-09
 NORM(A)=   0.11145263D+01
 Iteration Nr.  23
 **********************
 DD1Dir will call FoFMem   1 times, MxPair=       132
 NAB=    66 NAA=     0 NBB=     0.
 DE(Corr)= -0.70201874     E(CORR)=     -599.31913421     Delta= 5.17D-09
 NORM(A)=   0.11145263D+01
 Iteration Nr.  24
 **********************
 DD1Dir will call FoFMem   1 times, MxPair=       132
 NAB=    66 NAA=     0 NBB=     0.
 DE(Corr)= -0.70201874     E(CORR)=     -599.31913421     Delta=-6.79D-10
 NORM(A)=   0.11145263D+01
 Iteration Nr.  25
 **********************
 DD1Dir will call FoFMem   1 times, MxPair=       132
 NAB=    66 NAA=     0 NBB=     0.
 DE(Corr)= -0.70201873     E(CORR)=     -599.31913421     Delta= 4.79D-09
 NORM(A)=   0.11145263D+01
 Iteration Nr.  26
 **********************
 DD1Dir will call FoFMem   1 times, MxPair=       132
 NAB=    66 NAA=     0 NBB=     0.
 DE(Corr)= -0.70201874     E(CORR)=     -599.31913421     Delta=-4.35D-09
 NORM(A)=   0.11145263D+01
 Iteration Nr.  27
 **********************
 DD1Dir will call FoFMem   1 times, MxPair=       132
 NAB=    66 NAA=     0 NBB=     0.
 DE(Corr)= -0.70201873     E(CORR)=     -599.31913421     Delta= 4.19D-09
 NORM(A)=   0.11145263D+01
 Iteration Nr.  28
 **********************
 DD1Dir will call FoFMem   1 times, MxPair=       132
 NAB=    66 NAA=     0 NBB=     0.
 DE(Corr)= -0.70201874     E(CORR)=     -599.31913421     Delta=-4.40D-09
 NORM(A)=   0.11145263D+01
 Largest amplitude= 6.62D-02

 Z-AMPLITUDE ITERATIONS

 Iteration Nr.   1
 **********************
 DD1Dir will call FoFMem   1 times, MxPair=       132
 NAB=    66 NAA=     0 NBB=     0.
 DE(Z)  -0.68263002D+00          E(Z)=    -0.59929974550D+03
 NORM(A)=   0.11150131D+01
 Iteration Nr.   2
 **********************
 DD1Dir will call FoFMem   1 times, MxPair=       132
 NAB=    66 NAA=     0 NBB=     0.
 DE(Z)  -0.68268338D+00          E(Z)=    -0.59929979885D+03
 NORM(A)=   0.11147032D+01
 Iteration Nr.   3
 **********************
 DD1Dir will call FoFMem   1 times, MxPair=       132
 NAB=    66 NAA=     0 NBB=     0.
 DE(Z)  -0.68264684D+00          E(Z)=    -0.59929976231D+03
 NORM(A)=   0.11147725D+01
 Iteration Nr.   4
 **********************
 DD1Dir will call FoFMem   1 times, MxPair=       132
 NAB=    66 NAA=     0 NBB=     0.
 DE(Z)  -0.68265460D+00          E(Z)=    -0.59929977007D+03
 NORM(A)=   0.11122381D+01
 Iteration Nr.   5
 **********************
 DD1Dir will call FoFMem   1 times, MxPair=       132
 NAB=    66 NAA=     0 NBB=     0.
 DE(Z)  -0.68240513D+00          E(Z)=    -0.59929952060D+03
 NORM(A)=   0.11078719D+01
 Iteration Nr.   6
 **********************
 DD1Dir will call FoFMem   1 times, MxPair=       132
 NAB=    66 NAA=     0 NBB=     0.
 DE(Z)  -0.68196116D+00          E(Z)=    -0.59929907664D+03
 NORM(A)=   0.11078676D+01
 Iteration Nr.   7
 **********************
 DD1Dir will call FoFMem   1 times, MxPair=       132
 NAB=    66 NAA=     0 NBB=     0.
 DE(Z)  -0.68196406D+00          E(Z)=    -0.59929907953D+03
 NORM(A)=   0.11078606D+01
 Iteration Nr.   8
 **********************
 DD1Dir will call FoFMem   1 times, MxPair=       132
 NAB=    66 NAA=     0 NBB=     0.
 DE(Z)  -0.68196156D+00          E(Z)=    -0.59929907703D+03
 NORM(A)=   0.11078578D+01
 Iteration Nr.   9
 **********************
 DD1Dir will call FoFMem   1 times, MxPair=       132
 NAB=    66 NAA=     0 NBB=     0.
 DE(Z)  -0.68196118D+00          E(Z)=    -0.59929907665D+03
 NORM(A)=   0.11078570D+01
 Iteration Nr.  10
 **********************
 DD1Dir will call FoFMem   1 times, MxPair=       132
 NAB=    66 NAA=     0 NBB=     0.
 DE(Z)  -0.68196161D+00          E(Z)=    -0.59929907708D+03
 NORM(A)=   0.11078566D+01
 Iteration Nr.  11
 **********************
 DD1Dir will call FoFMem   1 times, MxPair=       132
 NAB=    66 NAA=     0 NBB=     0.
 DE(Z)  -0.68196141D+00          E(Z)=    -0.59929907688D+03
 NORM(A)=   0.11078565D+01
 Iteration Nr.  12
 **********************
 DD1Dir will call FoFMem   1 times, MxPair=       132
 NAB=    66 NAA=     0 NBB=     0.
 DE(Z)  -0.68196143D+00          E(Z)=    -0.59929907690D+03
 NORM(A)=   0.11078566D+01
 Iteration Nr.  13
 **********************
 DD1Dir will call FoFMem   1 times, MxPair=       132
 NAB=    66 NAA=     0 NBB=     0.
 DE(Z)  -0.68196150D+00          E(Z)=    -0.59929907697D+03
 NORM(A)=   0.11078566D+01
 Iteration Nr.  14
 **********************
 DD1Dir will call FoFMem   1 times, MxPair=       132
 NAB=    66 NAA=     0 NBB=     0.
 DE(Z)  -0.68196147D+00          E(Z)=    -0.59929907694D+03
 NORM(A)=   0.11078566D+01
 Iteration Nr.  15
 **********************
 DD1Dir will call FoFMem   1 times, MxPair=       132
 NAB=    66 NAA=     0 NBB=     0.
 DE(Z)  -0.68196149D+00          E(Z)=    -0.59929907697D+03
 NORM(A)=   0.11078565D+01
 Iteration Nr.  16
 **********************
 DD1Dir will call FoFMem   1 times, MxPair=       132
 NAB=    66 NAA=     0 NBB=     0.
 DE(Z)  -0.68196149D+00          E(Z)=    -0.59929907697D+03
 NORM(A)=   0.11078565D+01
 Iteration Nr.  17
 **********************
 DD1Dir will call FoFMem   1 times, MxPair=       132
 NAB=    66 NAA=     0 NBB=     0.
 DE(Z)  -0.68196147D+00          E(Z)=    -0.59929907694D+03
 NORM(A)=   0.11078565D+01
 Iteration Nr.  18
 **********************
 DD1Dir will call FoFMem   1 times, MxPair=       132
 NAB=    66 NAA=     0 NBB=     0.
 DE(Z)  -0.68196149D+00          E(Z)=    -0.59929907696D+03
 NORM(A)=   0.11078565D+01
 Iteration Nr.  19
 **********************
 DD1Dir will call FoFMem   1 times, MxPair=       132
 NAB=    66 NAA=     0 NBB=     0.
 DE(Z)  -0.68196149D+00          E(Z)=    -0.59929907696D+03
 NORM(A)=   0.11078565D+01
 Discarding MO integrals.
          Differentiating once with respect to electric field.
                with respect to dipole field.
          Electric field/nuclear overlap derivatives assumed to be zero.
          Keep R1 ints in memory in canonical form, NReq=448662239.
          There are     1 degrees of freedom in the 1st order CPHF.  IDoFFX=0.
 LinEq1:  Iter=  0 NonCon=     1 RMS=3.11D-03 Max=1.21D-01
 AX will form     1 AO Fock derivatives at one time.
 LinEq1:  Iter=  1 NonCon=     1 RMS=6.94D-04 Max=9.45D-03
 LinEq1:  Iter=  2 NonCon=     1 RMS=2.30D-04 Max=5.71D-03
 LinEq1:  Iter=  3 NonCon=     1 RMS=9.50D-05 Max=1.45D-03
 LinEq1:  Iter=  4 NonCon=     1 RMS=3.84D-05 Max=4.09D-04
 LinEq1:  Iter=  5 NonCon=     1 RMS=1.06D-05 Max=2.25D-04
 LinEq1:  Iter=  6 NonCon=     1 RMS=2.42D-06 Max=4.23D-05
 LinEq1:  Iter=  7 NonCon=     1 RMS=6.05D-07 Max=9.11D-06
 LinEq1:  Iter=  8 NonCon=     1 RMS=1.49D-07 Max=1.80D-06
 LinEq1:  Iter=  9 NonCon=     1 RMS=3.03D-08 Max=7.46D-07
 LinEq1:  Iter= 10 NonCon=     1 RMS=6.54D-09 Max=8.91D-08
 LinEq1:  Iter= 11 NonCon=     1 RMS=1.05D-09 Max=1.16D-08
 LinEq1:  Iter= 12 NonCon=     1 RMS=1.68D-10 Max=2.84D-09
 LinEq1:  Iter= 13 NonCon=     0 RMS=2.39D-11 Max=3.20D-10
 Linear equations converged to 1.000D-10 1.000D-09 after    13 iterations.
 End of Minotr Frequency-dependent properties file   721 does not exist.
 End of Minotr Frequency-dependent properties file   722 does not exist.

 **********************************************************************

            Population analysis using the QCI/CC density.

 **********************************************************************

     Natural Orbital Coefficients:
                           1         2         3         4         5
     Eigenvalues --     2.00003   2.00003   2.00002   2.00001   2.00001
   1 1   C  1S          0.00017   0.00000  -0.04319   0.08124   0.97613
   2        2S          0.00001   0.00000   0.00131   0.00049  -0.01332
   3        3S          0.00001   0.00000  -0.00131   0.00404   0.03985
   4        4S         -0.00020   0.00000  -0.01270  -0.02368   0.00290
   5        5S         -0.00001   0.00000  -0.00121  -0.00064  -0.00064
   6        6PX         0.00000   0.00005   0.00000   0.00000   0.00000
   7        6PY         0.00005   0.00000   0.00000   0.00001   0.00000
   8        6PZ         0.00000   0.00000   0.00054   0.00168   0.00086
   9        7PX         0.00000   0.00085   0.00000   0.00000   0.00000
  10        7PY         0.00085   0.00000   0.00000   0.00000  -0.00001
  11        7PZ         0.00000   0.00000   0.00142   0.00304  -0.00090
  12        8PX         0.00000   0.00458   0.00000   0.00000   0.00000
  13        8PY         0.00460   0.00000   0.00003   0.00005   0.00000
  14        8PZ        -0.00007   0.00000  -0.00377  -0.00415  -0.00305
  15        9PX         0.00000   0.00042   0.00000   0.00000   0.00000
  16        9PY         0.00042   0.00000   0.00000   0.00001   0.00000
  17        9PZ         0.00000   0.00000   0.00021   0.00017  -0.00049
  18       10D 0        0.00000   0.00000   0.00011   0.00033  -0.00058
  19       10D+1        0.00000  -0.00015   0.00000   0.00000   0.00000
  20       10D-1       -0.00015   0.00000   0.00000   0.00000  -0.00001
  21       10D+2        0.00004   0.00000   0.00000   0.00000   0.00000
  22       10D-2        0.00000   0.00004   0.00000   0.00000   0.00000
  23       11D 0        0.00001   0.00000   0.00022  -0.00007  -0.00027
  24       11D+1        0.00000   0.00025   0.00000   0.00000   0.00000
  25       11D-1        0.00027   0.00000   0.00001   0.00002   0.00002
  26       11D+2        0.00103   0.00000   0.00000   0.00000   0.00000
  27       11D-2        0.00000   0.00102   0.00000   0.00000   0.00000
  28       12D 0        0.00000   0.00000  -0.00078   0.00120  -0.00237
  29       12D+1        0.00000  -0.00130   0.00000   0.00000   0.00000
  30       12D-1       -0.00128   0.00000   0.00001   0.00002  -0.00002
  31       12D+2        0.00165   0.00000   0.00001   0.00002   0.00000
  32       12D-2        0.00000   0.00164   0.00000   0.00000   0.00000
  33       13F 0        0.00000   0.00000   0.00001   0.00003   0.00019
  34       13F+1        0.00000  -0.00019   0.00000   0.00000   0.00000
  35       13F-1       -0.00019   0.00000   0.00000   0.00000   0.00000
  36       13F+2        0.00002   0.00000   0.00000   0.00000  -0.00001
  37       13F-2        0.00000   0.00002   0.00000   0.00000   0.00000
  38       13F+3        0.00000   0.00000   0.00000   0.00000   0.00000
  39       13F-3        0.00000   0.00000  -0.00006   0.00007   0.00090
  40       14F 0       -0.00001   0.00000  -0.00113  -0.00215  -0.00018
  41       14F+1        0.00000   0.00057   0.00000   0.00000   0.00000
  42       14F-1        0.00058   0.00000   0.00000  -0.00001   0.00000
  43       14F+2        0.00035   0.00000   0.00000   0.00001   0.00002
  44       14F-2        0.00000   0.00034   0.00000   0.00000   0.00000
  45       14F+3        0.00000   0.00000   0.00000   0.00000   0.00000
  46       14F-3       -0.00002   0.00000  -0.00087  -0.00138  -0.00193
  47 2   H  1S         -0.00015   0.00000  -0.00002  -0.00035  -0.00135
  48        2S          0.00126   0.00000   0.00247   0.00335  -0.00062
  49        3S          0.00881   0.00000   0.00189   0.00540  -0.00430
  50        4S         -0.00028   0.00000   0.00012   0.00011  -0.00013
  51        5PX         0.00000   0.00000   0.00000   0.00000   0.00000
  52        5PY         0.00003   0.00000   0.00004  -0.00003  -0.00048
  53        5PZ         0.00001   0.00000   0.00001   0.00002  -0.00008
  54        6PX         0.00000   0.00020   0.00000   0.00000   0.00000
  55        6PY         0.00067   0.00000   0.00046   0.00069  -0.00080
  56        6PZ         0.00063   0.00000  -0.00002  -0.00010   0.00026
  57        7PX         0.00000   0.00094   0.00000   0.00000   0.00000
  58        7PY         0.00212   0.00000   0.00055   0.00137  -0.00101
  59        7PZ         0.00028   0.00000   0.00048   0.00093  -0.00004
  60        8D 0        0.00004   0.00000   0.00001   0.00007   0.00014
  61        8D+1        0.00000  -0.00002   0.00000   0.00000   0.00000
  62        8D-1        0.00010   0.00000   0.00002   0.00005  -0.00003
  63        8D+2       -0.00005   0.00000  -0.00004  -0.00005   0.00028
  64        8D-2        0.00000   0.00001   0.00000   0.00000   0.00000
  65        9D 0        0.00039   0.00000   0.00015   0.00026   0.00063
  66        9D+1        0.00000   0.00024   0.00000   0.00000   0.00000
  67        9D-1        0.00013   0.00000  -0.00014  -0.00025   0.00002
  68        9D+2       -0.00013   0.00000   0.00001   0.00003  -0.00010
  69        9D-2        0.00000   0.00012   0.00000   0.00000   0.00000
  70 3   H  1S          0.00008  -0.00014  -0.00002  -0.00035  -0.00135
  71        2S         -0.00057   0.00105   0.00246   0.00336  -0.00061
  72        3S         -0.00435   0.00759   0.00181   0.00525  -0.00431
  73        4S          0.00014  -0.00024   0.00011   0.00009  -0.00013
  74        5PX        -0.00001   0.00003   0.00004  -0.00002  -0.00042
  75        5PY         0.00001  -0.00001  -0.00002   0.00001   0.00024
  76        5PZ        -0.00001   0.00001   0.00001   0.00002  -0.00009
  77        6PX        -0.00020   0.00055   0.00040   0.00061  -0.00069
  78        6PY         0.00031  -0.00020  -0.00023  -0.00035   0.00040
  79        6PZ        -0.00031   0.00053  -0.00001  -0.00010   0.00023
  80        7PX        -0.00050   0.00182   0.00046   0.00117  -0.00087
  81        7PY         0.00123  -0.00051  -0.00026  -0.00066   0.00050
  82        7PZ        -0.00014   0.00024   0.00047   0.00092  -0.00006
  83        8D 0       -0.00002   0.00003   0.00001   0.00007   0.00014
  84        8D+1       -0.00005   0.00007   0.00002   0.00004  -0.00003
  85        8D-1        0.00001  -0.00005  -0.00001  -0.00002   0.00002
  86        8D+2        0.00000   0.00003   0.00002   0.00003  -0.00014
  87        8D-2        0.00003  -0.00003  -0.00004  -0.00005   0.00024
  88        9D 0       -0.00019   0.00034   0.00015   0.00026   0.00063
  89        9D+1        0.00005   0.00016  -0.00012  -0.00022   0.00001
  90        9D-1        0.00022   0.00005   0.00007   0.00013   0.00000
  91        9D+2        0.00006   0.00011   0.00000  -0.00001   0.00005
  92        9D-2        0.00011  -0.00007   0.00001   0.00002  -0.00009
  93 4   H  1S          0.00008   0.00014  -0.00002  -0.00035  -0.00135
  94        2S         -0.00057  -0.00105   0.00246   0.00336  -0.00061
  95        3S         -0.00435  -0.00759   0.00181   0.00525  -0.00431
  96        4S          0.00014   0.00024   0.00011   0.00009  -0.00013
  97        5PX         0.00001   0.00003  -0.00004   0.00002   0.00042
  98        5PY         0.00001   0.00001  -0.00002   0.00001   0.00024
  99        5PZ        -0.00001  -0.00001   0.00001   0.00002  -0.00009
 100        6PX         0.00020   0.00055  -0.00040  -0.00061   0.00069
 101        6PY         0.00031   0.00020  -0.00023  -0.00035   0.00040
 102        6PZ        -0.00031  -0.00054  -0.00001  -0.00010   0.00023
 103        7PX         0.00050   0.00182  -0.00046  -0.00117   0.00087
 104        7PY         0.00123   0.00051  -0.00026  -0.00066   0.00050
 105        7PZ        -0.00014  -0.00024   0.00047   0.00092  -0.00006
 106        8D 0       -0.00002  -0.00003   0.00001   0.00007   0.00014
 107        8D+1        0.00005   0.00007  -0.00002  -0.00004   0.00003
 108        8D-1        0.00001   0.00005  -0.00001  -0.00002   0.00002
 109        8D+2        0.00000  -0.00003   0.00002   0.00003  -0.00014
 110        8D-2       -0.00003  -0.00003   0.00004   0.00005  -0.00024
 111        9D 0       -0.00019  -0.00034   0.00015   0.00026   0.00063
 112        9D+1       -0.00005   0.00016   0.00012   0.00022  -0.00001
 113        9D-1        0.00022  -0.00005   0.00007   0.00013   0.00000
 114        9D+2        0.00006  -0.00011   0.00000  -0.00001   0.00005
 115        9D-2       -0.00011  -0.00007  -0.00001  -0.00002   0.00009
 116 5   Cl 1S         -0.00001   0.00000  -0.25044   0.14824  -0.02295
 117        2S          0.00002   0.00000   0.84537  -0.50111   0.07868
 118        3S         -0.00001   0.00000  -0.02308   0.00936  -0.00239
 119        4S          0.00000   0.00000   0.06651  -0.04082   0.00646
 120        5S          0.00003   0.00000  -0.00208   0.00781   0.00350
 121        6S          0.00000   0.00000  -0.00154  -0.00212   0.00300
 122        7PX        -0.00004   0.97886   0.00009   0.00015  -0.00001
 123        7PY         0.97886   0.00004  -0.00092  -0.00151  -0.00008
 124        7PZ         0.00176  -0.00017   0.50176   0.83532  -0.04790
 125        8PX         0.00000  -0.01914   0.00000   0.00000   0.00000
 126        8PY        -0.01915   0.00000   0.00001   0.00002   0.00000
 127        8PZ        -0.00004   0.00000  -0.00880  -0.01404   0.00012
 128        9PX         0.00000   0.05234   0.00001   0.00001   0.00000
 129        9PY         0.05234   0.00000  -0.00005  -0.00009   0.00000
 130        9PZ         0.00010  -0.00001   0.02849   0.04950  -0.00272
 131       10PX         0.00000  -0.00578   0.00000   0.00000   0.00000
 132       10PY        -0.00578   0.00000   0.00000   0.00001   0.00001
 133       10PZ        -0.00003   0.00000  -0.00436  -0.00277  -0.00346
 134       11PX         0.00000  -0.00215   0.00000   0.00000   0.00000
 135       11PY        -0.00215   0.00000   0.00000   0.00000   0.00000
 136       11PZ         0.00000   0.00000  -0.00037  -0.00015  -0.00053
 137       12D 0        0.00000   0.00000   0.00001  -0.00051  -0.00017
 138       12D+1        0.00000  -0.00032   0.00000   0.00000   0.00000
 139       12D-1       -0.00032   0.00000   0.00000   0.00000   0.00000
 140       12D+2        0.00001   0.00000   0.00000   0.00000   0.00000
 141       12D-2        0.00000   0.00001   0.00000   0.00000   0.00000
 142       13D 0        0.00001   0.00000   0.00088   0.00243   0.00041
 143       13D+1        0.00000   0.00081   0.00000   0.00000   0.00000
 144       13D-1        0.00081   0.00000   0.00000   0.00000   0.00000
 145       13D+2       -0.00002   0.00000   0.00000   0.00000   0.00000
 146       13D-2        0.00000  -0.00002   0.00000   0.00000   0.00000
 147       14D 0        0.00000   0.00000   0.00058  -0.00017   0.00079
 148       14D+1        0.00000  -0.00071   0.00000   0.00000   0.00000
 149       14D-1       -0.00071   0.00000   0.00000  -0.00001  -0.00001
 150       14D+2        0.00003   0.00000   0.00000   0.00000   0.00000
 151       14D-2        0.00000   0.00003   0.00000   0.00000   0.00000
 152       15F 0        0.00000   0.00000   0.00001  -0.00007  -0.00003
 153       15F+1        0.00000  -0.00001   0.00000   0.00000   0.00000
 154       15F-1       -0.00001   0.00000   0.00000   0.00000   0.00000
 155       15F+2        0.00003   0.00000   0.00000   0.00000   0.00000
 156       15F-2        0.00000   0.00003   0.00000   0.00000   0.00000
 157       15F+3        0.00000   0.00000   0.00000   0.00000   0.00000
 158       15F-3        0.00000   0.00000   0.00001   0.00003   0.00000
 159       16F 0        0.00000   0.00000  -0.00032  -0.00058  -0.00031
 160       16F+1        0.00000  -0.00022   0.00000   0.00000   0.00000
 161       16F-1       -0.00022   0.00000   0.00000   0.00000   0.00000
 162       16F+2       -0.00004   0.00000   0.00000   0.00000   0.00000
 163       16F-2        0.00000  -0.00004   0.00000   0.00000   0.00000
 164       16F+3        0.00000   0.00000   0.00000   0.00000   0.00000
 165       16F-3        0.00000   0.00000  -0.00002  -0.00005   0.00002
 166 6   F  1S         -0.00001   0.00000  -0.00144  -0.01037  -0.04967
 167        2S          0.00000   0.00000   0.00020   0.00043   0.00079
 168        3S          0.00000   0.00000  -0.00007  -0.00045  -0.00202
 169        4S         -0.00001   0.00000  -0.00055  -0.00105   0.00057
 170        5S          0.00001   0.00000   0.00010  -0.00166   0.00180
 171        6PX         0.00000  -0.00004   0.00000   0.00000   0.00000
 172        6PY        -0.00004   0.00000   0.00000   0.00000   0.00000
 173        6PZ         0.00000   0.00000   0.00058   0.00111   0.00011
 174        7PX         0.00000  -0.00001   0.00000   0.00000   0.00000
 175        7PY        -0.00001   0.00000   0.00000   0.00000   0.00000
 176        7PZ         0.00000   0.00000   0.00069   0.00132   0.00001
 177        8PX         0.00000  -0.00024   0.00000   0.00000   0.00000
 178        8PY        -0.00025   0.00000   0.00000   0.00000   0.00000
 179        8PZ         0.00000   0.00000   0.00008   0.00017   0.00049
 180        9PX         0.00000  -0.00036   0.00000   0.00000   0.00000
 181        9PY        -0.00036   0.00000   0.00000   0.00000   0.00000
 182        9PZ         0.00000   0.00000   0.00017  -0.00008   0.00072
 183       10D 0        0.00000   0.00000   0.00001   0.00001  -0.00002
 184       10D+1        0.00000  -0.00001   0.00000   0.00000   0.00000
 185       10D-1       -0.00001   0.00000   0.00000   0.00000   0.00000
 186       10D+2        0.00001   0.00000   0.00000   0.00000   0.00000
 187       10D-2        0.00000   0.00001   0.00000   0.00000   0.00000
 188       11D 0        0.00000   0.00000  -0.00003  -0.00010   0.00001
 189       11D+1        0.00000   0.00005   0.00000   0.00000   0.00000
 190       11D-1        0.00005   0.00000   0.00000   0.00000   0.00000
 191       11D+2       -0.00003   0.00000   0.00000   0.00000   0.00000
 192       11D-2        0.00000  -0.00003   0.00000   0.00000   0.00000
 193       12D 0        0.00000   0.00000  -0.00019  -0.00012   0.00012
 194       12D+1        0.00000  -0.00022   0.00000   0.00000   0.00000
 195       12D-1       -0.00023   0.00000   0.00000   0.00000   0.00000
 196       12D+2        0.00011   0.00000   0.00000   0.00000   0.00000
 197       12D-2        0.00000   0.00011   0.00000   0.00000   0.00000
 198       13F 0        0.00000   0.00000   0.00001  -0.00001  -0.00004
 199       13F+1        0.00000   0.00002   0.00000   0.00000   0.00000
 200       13F-1        0.00002   0.00000   0.00000   0.00000   0.00000
 201       13F+2       -0.00002   0.00000   0.00000   0.00000   0.00000
 202       13F-2        0.00000  -0.00002   0.00000   0.00000   0.00000
 203       13F+3        0.00000   0.00000   0.00000   0.00000   0.00000
 204       13F-3        0.00000   0.00000   0.00000   0.00000   0.00000
 205       14F 0        0.00000   0.00000  -0.00004   0.00002   0.00013
 206       14F+1        0.00000  -0.00006   0.00000   0.00000   0.00000
 207       14F-1       -0.00006   0.00000   0.00000   0.00000   0.00000
 208       14F+2        0.00004   0.00000   0.00000   0.00000   0.00000
 209       14F-2        0.00000   0.00004   0.00000   0.00000   0.00000
 210       14F+3        0.00000   0.00000   0.00000   0.00000   0.00000
 211       14F-3        0.00000   0.00000   0.00000   0.00000  -0.00001
                           6         7         8         9        10
     Eigenvalues --     2.00000   2.00000   1.98361   1.97544   1.96949
   1 1   C  1S          0.05030  -0.00046   0.01541  -0.07349  -0.14374
   2        2S         -0.00012  -0.00001  -0.04199   0.19941   0.39735
   3        3S          0.00230  -0.00003  -0.01040   0.04628   0.09617
   4        4S         -0.00715   0.00016   0.00577   0.07921   0.19077
   5        5S         -0.00018   0.00010   0.00791  -0.00691  -0.02898
   6        6PX         0.00000   0.00000   0.00000   0.00000   0.00000
   7        6PY         0.00000   0.00000  -0.00004  -0.00028  -0.00032
   8        6PZ         0.00004   0.00000   0.00642   0.01048  -0.02683
   9        7PX         0.00000   0.00000   0.00000   0.00000   0.00000
  10        7PY         0.00001   0.00000  -0.00011  -0.00030  -0.00038
  11        7PZ        -0.00075   0.00000   0.00700   0.01806  -0.03197
  12        8PX         0.00000   0.00000   0.00000   0.00000   0.00000
  13        8PY         0.00002   0.00000  -0.00024  -0.00012  -0.00011
  14        8PZ         0.00518   0.00009   0.01653   0.00595  -0.02252
  15        9PX         0.00000   0.00000   0.00000   0.00000   0.00000
  16        9PY         0.00000   0.00000  -0.00001  -0.00001  -0.00001
  17        9PZ         0.00011   0.00001  -0.00071   0.00032  -0.00409
  18       10D 0        0.00004   0.00000   0.00051  -0.00215  -0.00958
  19       10D+1        0.00000   0.00000   0.00000   0.00000   0.00000
  20       10D-1        0.00000   0.00000   0.00001  -0.00004  -0.00011
  21       10D+2        0.00000   0.00000   0.00000  -0.00003  -0.00003
  22       10D-2        0.00000   0.00000   0.00000   0.00000   0.00000
  23       11D 0       -0.00022  -0.00002  -0.00530   0.00458  -0.01878
  24       11D+1        0.00000   0.00000   0.00000   0.00000  -0.00001
  25       11D-1        0.00001   0.00000   0.00007  -0.00009  -0.00027
  26       11D+2        0.00001   0.00000  -0.00009  -0.00004  -0.00002
  27       11D-2        0.00000   0.00000   0.00000   0.00000   0.00000
  28       12D 0        0.00027   0.00008   0.00210  -0.00840  -0.01678
  29       12D+1        0.00000   0.00000   0.00000   0.00000  -0.00001
  30       12D-1        0.00001   0.00000   0.00001   0.00000  -0.00005
  31       12D+2        0.00001   0.00000  -0.00009   0.00002   0.00007
  32       12D-2        0.00000   0.00000   0.00000   0.00000   0.00000
  33       13F 0       -0.00007   0.00000   0.00001   0.00241   0.00062
  34       13F+1        0.00000   0.00000   0.00000   0.00000   0.00000
  35       13F-1        0.00000   0.00000   0.00000   0.00001   0.00001
  36       13F+2        0.00000   0.00000   0.00001  -0.00002  -0.00004
  37       13F-2        0.00000   0.00000   0.00000   0.00000   0.00000
  38       13F+3        0.00000   0.00000   0.00000   0.00000   0.00000
  39       13F-3        0.00001   0.00000  -0.00014   0.00194   0.00397
  40       14F 0        0.00127  -0.00001   0.00469   0.00263  -0.00194
  41       14F+1        0.00000   0.00000   0.00000   0.00000   0.00000
  42       14F-1        0.00001   0.00000   0.00000   0.00003   0.00002
  43       14F+2        0.00001   0.00000   0.00004  -0.00003  -0.00008
  44       14F-2        0.00000   0.00000   0.00000   0.00000   0.00000
  45       14F+3        0.00000   0.00000   0.00000   0.00000   0.00000
  46       14F-3       -0.00046   0.00003   0.00190  -0.00098   0.00402
  47 2   H  1S         -0.00008   0.00000  -0.00850   0.03752   0.08067
  48        2S          0.00103  -0.00006  -0.01544   0.04409   0.08382
  49        3S          0.00185   0.00004  -0.00138  -0.00496  -0.01197
  50        4S          0.00003   0.00000  -0.00049   0.00049   0.00041
  51        5PX         0.00000   0.00000   0.00000   0.00000   0.00000
  52        5PY         0.00001   0.00000  -0.00109   0.00404   0.00866
  53        5PZ        -0.00004   0.00000   0.00028   0.00093   0.00027
  54        6PX         0.00000   0.00000   0.00000   0.00000   0.00000
  55        6PY         0.00009   0.00000  -0.00079   0.00082   0.00118
  56        6PZ         0.00032  -0.00001   0.00019   0.00235  -0.00061
  57        7PX         0.00000   0.00000   0.00000   0.00000   0.00000
  58        7PY         0.00044   0.00001   0.00124  -0.00502  -0.01036
  59        7PZ        -0.00055   0.00001  -0.00277  -0.00169  -0.00122
  60        8D 0        0.00006   0.00000   0.00014  -0.00036  -0.00091
  61        8D+1        0.00000   0.00000   0.00000   0.00000   0.00000
  62        8D-1       -0.00001   0.00000  -0.00013   0.00048   0.00020
  63        8D+2       -0.00002   0.00000   0.00004  -0.00055  -0.00137
  64        8D-2        0.00000   0.00000   0.00000   0.00000   0.00000
  65        9D 0        0.00009  -0.00001  -0.00006   0.00123   0.00105
  66        9D+1        0.00000   0.00000   0.00000   0.00000   0.00000
  67        9D-1        0.00014   0.00000  -0.00004   0.00006  -0.00035
  68        9D+2        0.00003   0.00000  -0.00097   0.00226   0.00416
  69        9D-2        0.00000   0.00000   0.00000   0.00000   0.00000
  70 3   H  1S         -0.00008   0.00000  -0.00858   0.03714   0.08043
  71        2S          0.00100  -0.00006  -0.01530   0.04369   0.08362
  72        3S          0.00182   0.00004  -0.00075  -0.00492  -0.01213
  73        4S          0.00004   0.00000  -0.00047   0.00052   0.00040
  74        5PX         0.00001   0.00000  -0.00094   0.00345   0.00747
  75        5PY        -0.00001   0.00000   0.00054  -0.00200  -0.00432
  76        5PZ        -0.00004   0.00000   0.00028   0.00096   0.00035
  77        6PX         0.00007   0.00000  -0.00063   0.00069   0.00106
  78        6PY        -0.00004   0.00000   0.00034  -0.00040  -0.00061
  79        6PZ         0.00032  -0.00001   0.00005   0.00246  -0.00044
  80        7PX         0.00038   0.00001   0.00118  -0.00428  -0.00891
  81        7PY        -0.00021   0.00000  -0.00074   0.00249   0.00518
  82        7PZ        -0.00055   0.00001  -0.00279  -0.00172  -0.00129
  83        8D 0        0.00006   0.00000   0.00014  -0.00035  -0.00091
  84        8D+1       -0.00001   0.00000  -0.00013   0.00043   0.00021
  85        8D-1        0.00000   0.00000   0.00007  -0.00025  -0.00012
  86        8D+2        0.00001   0.00000  -0.00002   0.00027   0.00068
  87        8D-2       -0.00001   0.00000   0.00003  -0.00047  -0.00119
  88        9D 0        0.00009  -0.00001  -0.00007   0.00122   0.00102
  89        9D+1        0.00012   0.00000  -0.00005   0.00004  -0.00032
  90        9D-1       -0.00007   0.00000   0.00004  -0.00003   0.00017
  91        9D+2       -0.00002   0.00000   0.00048  -0.00113  -0.00207
  92        9D-2        0.00003   0.00000  -0.00086   0.00196   0.00359
  93 4   H  1S         -0.00008   0.00000  -0.00858   0.03714   0.08044
  94        2S          0.00100  -0.00006  -0.01530   0.04369   0.08362
  95        3S          0.00182   0.00004  -0.00074  -0.00492  -0.01213
  96        4S          0.00004   0.00000  -0.00047   0.00052   0.00040
  97        5PX        -0.00001   0.00000   0.00094  -0.00345  -0.00747
  98        5PY        -0.00001   0.00000   0.00054  -0.00200  -0.00431
  99        5PZ        -0.00004   0.00000   0.00028   0.00096   0.00035
 100        6PX        -0.00007   0.00000   0.00063  -0.00068  -0.00106
 101        6PY        -0.00004   0.00000   0.00034  -0.00040  -0.00061
 102        6PZ         0.00032  -0.00001   0.00005   0.00246  -0.00044
 103        7PX        -0.00038  -0.00001  -0.00118   0.00428   0.00891
 104        7PY        -0.00021   0.00000  -0.00074   0.00249   0.00518
 105        7PZ        -0.00055   0.00001  -0.00279  -0.00172  -0.00129
 106        8D 0        0.00006   0.00000   0.00014  -0.00035  -0.00091
 107        8D+1        0.00001   0.00000   0.00013  -0.00043  -0.00021
 108        8D-1        0.00000   0.00000   0.00007  -0.00025  -0.00012
 109        8D+2        0.00001   0.00000  -0.00002   0.00027   0.00068
 110        8D-2        0.00001   0.00000  -0.00003   0.00047   0.00119
 111        9D 0        0.00009  -0.00001  -0.00007   0.00122   0.00102
 112        9D+1       -0.00012   0.00000   0.00005  -0.00003   0.00032
 113        9D-1       -0.00007   0.00000   0.00004  -0.00002   0.00018
 114        9D+2       -0.00002   0.00000   0.00048  -0.00113  -0.00207
 115        9D-2       -0.00003   0.00000   0.00086  -0.00196  -0.00359
 116 5   Cl 1S          0.00006   0.99708  -0.00064   0.06644  -0.03486
 117        2S         -0.00005   0.01040   0.00293  -0.25179   0.13104
 118        3S          0.00005   0.00017  -0.00391   0.52441  -0.27879
 119        4S          0.00008   0.00026  -0.00025   0.06423  -0.03755
 120        5S         -0.00180  -0.00020  -0.01232   0.35076  -0.17097
 121        6S         -0.00049  -0.00011  -0.00462   0.02454   0.01127
 122        7PX         0.00000   0.00000   0.00000   0.00000   0.00001
 123        7PY        -0.00002   0.00000   0.00000   0.00003   0.00007
 124        7PZ         0.00725   0.00016   0.00153   0.00464   0.02890
 125        8PX         0.00000   0.00000   0.00000   0.00000  -0.00001
 126        8PY         0.00000   0.00000   0.00001  -0.00010  -0.00017
 127        8PZ         0.00051  -0.00003  -0.00229  -0.00618  -0.07231
 128        9PX         0.00000   0.00000   0.00000   0.00000  -0.00001
 129        9PY         0.00000   0.00000   0.00000  -0.00004  -0.00009
 130        9PZ         0.00031   0.00003  -0.00265   0.00060  -0.03154
 131       10PX         0.00000   0.00000   0.00000   0.00000  -0.00001
 132       10PY         0.00000   0.00000   0.00000  -0.00006  -0.00007
 133       10PZ         0.00094   0.00015   0.00270   0.00295  -0.05249
 134       11PX         0.00000   0.00000   0.00000   0.00000   0.00000
 135       11PY         0.00000   0.00000   0.00000   0.00000   0.00000
 136       11PZ         0.00002   0.00002  -0.00041   0.00262  -0.00876
 137       12D 0       -0.00003   0.00001  -0.00035   0.00450   0.00455
 138       12D+1        0.00000   0.00000   0.00000   0.00000   0.00000
 139       12D-1        0.00000   0.00000   0.00000   0.00001   0.00002
 140       12D+2        0.00000   0.00000   0.00000   0.00000   0.00000
 141       12D-2        0.00000   0.00000   0.00000   0.00000   0.00000
 142       13D 0       -0.00022   0.00000  -0.00163   0.00820   0.00970
 143       13D+1        0.00000   0.00000   0.00000   0.00000   0.00000
 144       13D-1        0.00000   0.00000   0.00000   0.00001   0.00001
 145       13D+2        0.00000   0.00000   0.00000   0.00000   0.00000
 146       13D-2        0.00000   0.00000   0.00000   0.00000   0.00000
 147       14D 0       -0.00014  -0.00004  -0.00184  -0.00018   0.00538
 148       14D+1        0.00000   0.00000   0.00000   0.00000   0.00000
 149       14D-1        0.00000   0.00000   0.00000   0.00001  -0.00002
 150       14D+2        0.00000   0.00000   0.00000   0.00000   0.00001
 151       14D-2        0.00000   0.00000   0.00000   0.00000   0.00000
 152       15F 0        0.00005   0.00000   0.00023  -0.00180  -0.00192
 153       15F+1        0.00000   0.00000   0.00000   0.00000   0.00000
 154       15F-1        0.00000   0.00000   0.00000  -0.00001  -0.00001
 155       15F+2        0.00000   0.00000   0.00000   0.00000   0.00000
 156       15F-2        0.00000   0.00000   0.00000   0.00000   0.00000
 157       15F+3        0.00000   0.00000   0.00000   0.00000   0.00000
 158       15F-3       -0.00001   0.00000  -0.00001   0.00002   0.00009
 159       16F 0       -0.00005   0.00001   0.00005  -0.00093  -0.00171
 160       16F+1        0.00000   0.00000   0.00000   0.00000   0.00000
 161       16F-1        0.00000   0.00000   0.00000   0.00001   0.00001
 162       16F+2        0.00000   0.00000   0.00001  -0.00001  -0.00001
 163       16F-2        0.00000   0.00000   0.00000   0.00000   0.00000
 164       16F+3        0.00000   0.00000   0.00000   0.00000   0.00000
 165       16F-3        0.00003   0.00000   0.00002  -0.00001  -0.00021
 166 6   F  1S          0.97743  -0.00002   0.21189   0.01315   0.02154
 167        2S         -0.01503   0.00000  -0.53163  -0.03405  -0.05714
 168        3S          0.04206   0.00000  -0.16472  -0.01081  -0.01847
 169        4S          0.00193  -0.00001  -0.36878  -0.02361  -0.04372
 170        5S         -0.00082  -0.00006  -0.04528   0.00426   0.00796
 171        6PX         0.00000   0.00000   0.00000   0.00000   0.00002
 172        6PY         0.00000   0.00000  -0.00005   0.00005   0.00056
 173        6PZ         0.00048   0.00000   0.01360   0.01270   0.08716
 174        7PX         0.00000   0.00000   0.00000   0.00000   0.00002
 175        7PY         0.00000   0.00000  -0.00006   0.00006   0.00067
 176        7PZ        -0.00012   0.00000   0.01485   0.01551   0.10487
 177        8PX         0.00000   0.00000   0.00000   0.00000   0.00002
 178        8PY         0.00000   0.00000  -0.00005   0.00003   0.00052
 179        8PZ         0.00240  -0.00001   0.01254   0.01229   0.08346
 180        9PX         0.00000   0.00000   0.00000   0.00000   0.00000
 181        9PY         0.00000   0.00000  -0.00003   0.00001   0.00016
 182        9PZ        -0.00008  -0.00002   0.00222   0.00318   0.02419
 183       10D 0       -0.00002   0.00000  -0.00013   0.00017   0.00060
 184       10D+1        0.00000   0.00000   0.00000   0.00000   0.00000
 185       10D-1        0.00000   0.00000   0.00000   0.00000   0.00000
 186       10D+2        0.00000   0.00000   0.00000   0.00000   0.00000
 187       10D-2        0.00000   0.00000   0.00000   0.00000   0.00000
 188       11D 0       -0.00003   0.00000  -0.00104   0.00091   0.00275
 189       11D+1        0.00000   0.00000   0.00000   0.00000   0.00000
 190       11D-1        0.00000   0.00000   0.00000   0.00000   0.00000
 191       11D+2        0.00000   0.00000   0.00000   0.00000   0.00000
 192       11D-2        0.00000   0.00000   0.00000   0.00000   0.00000
 193       12D 0        0.00080   0.00000  -0.00055   0.00036   0.00387
 194       12D+1        0.00000   0.00000   0.00000   0.00000   0.00000
 195       12D-1        0.00000   0.00000   0.00000  -0.00002  -0.00001
 196       12D+2        0.00000   0.00000   0.00000  -0.00001   0.00000
 197       12D-2        0.00000   0.00000   0.00000   0.00000   0.00000
 198       13F 0       -0.00006   0.00000  -0.00002   0.00013   0.00027
 199       13F+1        0.00000   0.00000   0.00000   0.00000   0.00000
 200       13F-1        0.00000   0.00000   0.00000   0.00000   0.00000
 201       13F+2        0.00000   0.00000   0.00000   0.00000   0.00000
 202       13F-2        0.00000   0.00000   0.00000   0.00000   0.00000
 203       13F+3        0.00000   0.00000   0.00000   0.00000   0.00000
 204       13F-3        0.00001   0.00000   0.00001   0.00002   0.00003
 205       14F 0        0.00020   0.00000  -0.00040  -0.00006   0.00063
 206       14F+1        0.00000   0.00000   0.00000   0.00000   0.00000
 207       14F-1        0.00000   0.00000   0.00000   0.00000  -0.00001
 208       14F+2        0.00000   0.00000   0.00000   0.00000   0.00000
 209       14F-2        0.00000   0.00000   0.00000   0.00000   0.00000
 210       14F+3        0.00000   0.00000   0.00000   0.00000   0.00000
 211       14F-3       -0.00001   0.00000  -0.00006  -0.00006  -0.00009
                          11        12        13        14        15
     Eigenvalues --     1.96437   1.96437   1.95929   1.95924   1.94911
   1 1   C  1S          0.00000   0.00027  -0.00016   0.00000   0.00001
   2        2S          0.00000  -0.00081   0.00049   0.00000  -0.00003
   3        3S          0.00000  -0.00023   0.00014   0.00000  -0.00001
   4        4S          0.00000   0.00046  -0.00180   0.00000  -0.00005
   5        5S          0.00000   0.00009  -0.00024   0.00000  -0.00001
   6        6PX         0.09784  -0.00016   0.00015   0.23108   0.06797
   7        6PY         0.00016   0.09832   0.23091  -0.00015   0.00033
   8        6PZ        -0.00002  -0.00050  -0.00131  -0.00004  -0.00002
   9        7PX         0.13111  -0.00021   0.00020   0.30628   0.09447
  10        7PY         0.00022   0.13178   0.30608  -0.00020   0.00046
  11        7PZ        -0.00002  -0.00063  -0.00170  -0.00005  -0.00003
  12        8PX         0.09600  -0.00016   0.00015   0.23649   0.07265
  13        8PY         0.00016   0.09617   0.23649  -0.00015   0.00035
  14        8PZ        -0.00002  -0.00060  -0.00138  -0.00004  -0.00003
  15        9PX        -0.00222   0.00000   0.00001   0.01897   0.01227
  16        9PY         0.00000  -0.00216   0.01889  -0.00001   0.00006
  17        9PZ         0.00000   0.00004  -0.00011   0.00000   0.00000
  18       10D 0        0.00000   0.00004   0.00003   0.00000   0.00000
  19       10D+1       -0.00271   0.00000   0.00000  -0.00128  -0.00374
  20       10D-1       -0.00001  -0.00263  -0.00110   0.00000  -0.00002
  21       10D+2        0.00001   0.00628   0.01485   0.00000   0.00003
  22       10D-2        0.00623  -0.00001   0.00000   0.01482   0.00502
  23       11D 0        0.00000   0.00006   0.00017   0.00000   0.00001
  24       11D+1       -0.01276   0.00002   0.00000   0.00761  -0.01549
  25       11D-1       -0.00002  -0.01246   0.00825  -0.00001  -0.00008
  26       11D+2        0.00004   0.02067   0.04547  -0.00001   0.00009
  27       11D-2        0.02071  -0.00004   0.00001   0.04533   0.01706
  28       12D 0        0.00000   0.00013   0.00007   0.00000   0.00000
  29       12D+1       -0.00612   0.00001   0.00000   0.00552   0.00110
  30       12D-1       -0.00001  -0.00606   0.00613  -0.00001   0.00000
  31       12D+2        0.00004   0.01992   0.03626  -0.00001   0.00005
  32       12D-2        0.02014  -0.00004   0.00001   0.03600   0.01003
  33       13F 0        0.00000   0.00001   0.00004   0.00000   0.00000
  34       13F+1        0.00025   0.00000   0.00000  -0.00201  -0.00224
  35       13F-1        0.00000   0.00024  -0.00202   0.00000  -0.00001
  36       13F+2        0.00000  -0.00062  -0.00008   0.00000   0.00000
  37       13F-2       -0.00064   0.00000   0.00000  -0.00013  -0.00034
  38       13F+3        0.00001   0.00000   0.00000   0.00000   0.00000
  39       13F-3        0.00000  -0.00001  -0.00001   0.00000   0.00000
  40       14F 0        0.00000  -0.00004   0.00002   0.00000   0.00000
  41       14F+1        0.00039   0.00000   0.00000  -0.00583  -0.00725
  42       14F-1        0.00000   0.00029  -0.00585   0.00000  -0.00003
  43       14F+2       -0.00001  -0.00375   0.00010   0.00000  -0.00002
  44       14F-2       -0.00388   0.00001   0.00000  -0.00010  -0.00323
  45       14F+3        0.00003   0.00000   0.00000  -0.00001   0.00003
  46       14F-3        0.00000   0.00008  -0.00014   0.00000   0.00000
  47 2   H  1S         -0.00012  -0.06766  -0.15160   0.00008  -0.00024
  48        2S         -0.00011  -0.06123  -0.15356   0.00008  -0.00023
  49        3S          0.00010   0.05774   0.12072  -0.00006   0.00003
  50        4S         -0.00001  -0.00577   0.01737  -0.00001   0.00001
  51        5PX         0.00208   0.00000   0.00000   0.00439   0.00106
  52        5PY        -0.00001  -0.00534  -0.01240   0.00001  -0.00002
  53        5PZ         0.00000   0.00007  -0.00265   0.00000   0.00000
  54        6PX         0.00806  -0.00001   0.00001   0.01364   0.00373
  55        6PY         0.00001   0.00718   0.01140  -0.00001   0.00003
  56        6PZ        -0.00001  -0.00285   0.00054   0.00000  -0.00001
  57        7PX         0.00932  -0.00001   0.00001   0.01335   0.00273
  58        7PY         0.00002   0.01412   0.04581  -0.00003   0.00005
  59        7PZ         0.00000   0.00028   0.00731  -0.00001   0.00002
  60        8D 0        0.00000   0.00042   0.00135   0.00000   0.00000
  61        8D+1        0.00001   0.00000   0.00000   0.00029  -0.00004
  62        8D-1        0.00000  -0.00073  -0.00018   0.00000   0.00000
  63        8D+2        0.00000   0.00061   0.00192   0.00000   0.00000
  64        8D-2        0.00106   0.00000   0.00000   0.00225   0.00060
  65        9D 0        0.00000  -0.00057   0.00144   0.00000   0.00000
  66        9D+1       -0.00157   0.00000   0.00000   0.00096  -0.00119
  67        9D-1       -0.00001  -0.00335   0.00338   0.00000   0.00000
  68        9D+2        0.00000  -0.00162  -0.00266   0.00000  -0.00001
  69        9D-2        0.00167   0.00000   0.00000   0.00287   0.00112
  70 3   H  1S         -0.05823   0.03376   0.07578  -0.13131  -0.04040
  71        2S         -0.05245   0.03025   0.07747  -0.13379  -0.03977
  72        3S          0.05024  -0.02920  -0.05962   0.10352   0.00452
  73        4S         -0.00502   0.00287  -0.00866   0.01507   0.00094
  74        5PX        -0.00343   0.00320   0.00726  -0.00820  -0.00242
  75        5PY         0.00319   0.00025   0.00017   0.00726   0.00202
  76        5PZ         0.00002  -0.00002   0.00138  -0.00243   0.00015
  77        6PX         0.00743   0.00029   0.00109   0.01183   0.00513
  78        6PY         0.00035   0.00784   0.01299   0.00103  -0.00081
  79        6PZ        -0.00242   0.00129  -0.00032   0.00035  -0.00100
  80        7PX         0.01290  -0.00223  -0.01381   0.03756   0.00795
  81        7PY        -0.00206   0.01045   0.02150  -0.01399  -0.00299
  82        7PZ         0.00057  -0.00031  -0.00389   0.00651   0.00251
  83        8D 0        0.00035  -0.00021  -0.00068   0.00118   0.00035
  84        8D+1       -0.00056   0.00033   0.00023  -0.00011  -0.00023
  85        8D-1        0.00033  -0.00017   0.00019   0.00024   0.00011
  86        8D+2        0.00020   0.00094   0.00216   0.00014   0.00004
  87        8D-2        0.00071   0.00020   0.00013   0.00200   0.00054
  88        9D 0       -0.00047   0.00025  -0.00073   0.00128  -0.00013
  89        9D+1       -0.00289   0.00077  -0.00105   0.00282  -0.00064
  90        9D-1        0.00077  -0.00197   0.00164  -0.00103  -0.00031
  91        9D+2        0.00142   0.00082   0.00150   0.00240   0.00095
  92        9D-2       -0.00080   0.00142   0.00241  -0.00128  -0.00052
  93 4   H  1S          0.05835   0.03355   0.07591   0.13123   0.04062
  94        2S          0.05255   0.03007   0.07761   0.13371   0.04000
  95        3S         -0.05035  -0.02902  -0.05973  -0.10346  -0.00454
  96        4S          0.00503   0.00286  -0.00867  -0.01507  -0.00095
  97        5PX        -0.00344  -0.00319  -0.00727  -0.00820  -0.00244
  98        5PY        -0.00319   0.00026   0.00016  -0.00726  -0.00202
  99        5PZ        -0.00002  -0.00002   0.00138   0.00243  -0.00015
 100        6PX         0.00743  -0.00031  -0.00108   0.01183   0.00514
 101        6PY        -0.00032   0.00784   0.01299  -0.00104   0.00085
 102        6PZ         0.00242   0.00129  -0.00032  -0.00035   0.00101
 103        7PX         0.01291   0.00218   0.01385   0.03755   0.00798
 104        7PY         0.00210   0.01044   0.02151   0.01395   0.00303
 105        7PZ        -0.00058  -0.00031  -0.00390  -0.00652  -0.00252
 106        8D 0       -0.00036  -0.00020  -0.00069  -0.00118  -0.00035
 107        8D+1       -0.00056  -0.00032  -0.00023  -0.00011  -0.00023
 108        8D-1       -0.00033  -0.00017   0.00019  -0.00024  -0.00011
 109        8D+2       -0.00019   0.00094   0.00216  -0.00014  -0.00003
 110        8D-2        0.00071  -0.00020  -0.00013   0.00200   0.00054
 111        9D 0        0.00047   0.00025  -0.00073  -0.00128   0.00013
 112        9D+1       -0.00289  -0.00076   0.00105   0.00282  -0.00063
 113        9D-1       -0.00078  -0.00196   0.00164   0.00103   0.00030
 114        9D+2       -0.00142   0.00082   0.00150  -0.00240  -0.00095
 115        9D-2       -0.00080  -0.00142  -0.00241  -0.00127  -0.00053
 116 5   Cl 1S          0.00000   0.00010   0.00009   0.00000   0.00000
 117        2S          0.00000  -0.00037  -0.00035   0.00000  -0.00001
 118        3S          0.00000   0.00078   0.00069   0.00000   0.00001
 119        4S          0.00000   0.00011   0.00010   0.00000   0.00000
 120        5S          0.00000   0.00059   0.00076   0.00000   0.00001
 121        6S          0.00000   0.00003   0.00016   0.00000   0.00000
 122        7PX        -0.00879   0.00001  -0.00003  -0.04356   0.22358
 123        7PY        -0.00001  -0.00888  -0.04345   0.00003   0.00109
 124        7PZ         0.00000  -0.00006  -0.00009   0.00001  -0.00003
 125        8PX         0.02081  -0.00003   0.00007   0.10292  -0.51145
 126        8PY         0.00003   0.02102   0.10267  -0.00007  -0.00250
 127        8PZ         0.00000   0.00011   0.00015  -0.00002   0.00008
 128        9PX         0.00965  -0.00002   0.00003   0.04760  -0.24706
 129        9PY         0.00002   0.00976   0.04750  -0.00003  -0.00121
 130        9PZ         0.00000   0.00006   0.00010  -0.00001   0.00004
 131       10PX         0.01038  -0.00002   0.00004   0.05575  -0.36770
 132       10PY         0.00002   0.01054   0.05549  -0.00004  -0.00180
 133       10PZ         0.00000  -0.00003  -0.00019  -0.00001   0.00005
 134       11PX         0.00212   0.00000   0.00000   0.00338  -0.06221
 135       11PY         0.00000   0.00210   0.00336   0.00000  -0.00030
 136       11PZ         0.00000  -0.00003  -0.00007   0.00000   0.00001
 137       12D 0        0.00000  -0.00003  -0.00005   0.00000   0.00000
 138       12D+1       -0.00189   0.00000   0.00000  -0.00618   0.00023
 139       12D-1        0.00000  -0.00191  -0.00620   0.00000   0.00000
 140       12D+2        0.00000   0.00012   0.00056   0.00000   0.00000
 141       12D-2        0.00011   0.00000   0.00000   0.00054   0.00025
 142       13D 0        0.00000  -0.00003  -0.00002   0.00000   0.00000
 143       13D+1       -0.00290   0.00000  -0.00001  -0.01096   0.00071
 144       13D-1        0.00000  -0.00294  -0.01094   0.00001   0.00000
 145       13D+2        0.00000   0.00032   0.00065   0.00000   0.00000
 146       13D-2        0.00032   0.00000   0.00000   0.00063   0.00057
 147       14D 0        0.00000   0.00000   0.00004   0.00000   0.00000
 148       14D+1        0.00006   0.00000   0.00000   0.00003   0.00338
 149       14D-1        0.00000   0.00002   0.00005   0.00000   0.00002
 150       14D+2        0.00000  -0.00065  -0.00005   0.00000   0.00000
 151       14D-2       -0.00066   0.00000   0.00000  -0.00007   0.00009
 152       15F 0        0.00000   0.00001   0.00001   0.00000   0.00000
 153       15F+1        0.00088   0.00000   0.00000   0.00262  -0.00140
 154       15F-1        0.00000   0.00089   0.00262   0.00000  -0.00001
 155       15F+2        0.00000  -0.00011  -0.00034   0.00000   0.00000
 156       15F-2       -0.00011   0.00000   0.00000  -0.00034  -0.00010
 157       15F+3        0.00000   0.00000   0.00000   0.00000   0.00000
 158       15F-3        0.00000   0.00000   0.00000   0.00000   0.00000
 159       16F 0        0.00000   0.00000  -0.00001   0.00000   0.00000
 160       16F+1        0.00059   0.00000   0.00000   0.00201  -0.00180
 161       16F-1        0.00000   0.00061   0.00198   0.00000  -0.00001
 162       16F+2        0.00000   0.00002   0.00019   0.00000   0.00000
 163       16F-2        0.00002   0.00000   0.00000   0.00019  -0.00020
 164       16F+3        0.00000   0.00000   0.00000   0.00000   0.00000
 165       16F-3        0.00000   0.00000  -0.00001   0.00000   0.00000
 166 6   F  1S          0.00000   0.00005   0.00014   0.00000   0.00000
 167        2S          0.00000  -0.00012  -0.00036   0.00000   0.00000
 168        3S          0.00000  -0.00004  -0.00012   0.00000   0.00000
 169        4S          0.00000  -0.00020  -0.00040   0.00000   0.00000
 170        5S          0.00000  -0.00008  -0.00019   0.00000   0.00000
 171        6PX         0.33224  -0.00054  -0.00011  -0.16195  -0.02263
 172        6PY         0.00054   0.33200  -0.16243   0.00010  -0.00011
 173        6PZ        -0.00006   0.00055   0.00091   0.00003   0.00006
 174        7PX         0.39632  -0.00065  -0.00013  -0.19203  -0.02678
 175        7PY         0.00065   0.39604  -0.19260   0.00012  -0.00013
 176        7PZ        -0.00007   0.00066   0.00110   0.00003   0.00007
 177        8PX         0.32038  -0.00053  -0.00011  -0.16152  -0.02294
 178        8PY         0.00052   0.32016  -0.16192   0.00010  -0.00011
 179        8PZ        -0.00005   0.00046   0.00079   0.00003   0.00006
 180        9PX         0.10068  -0.00017  -0.00004  -0.05693  -0.01116
 181        9PY         0.00016   0.10062  -0.05700   0.00004  -0.00005
 182        9PZ        -0.00002   0.00012   0.00015   0.00001   0.00002
 183       10D 0        0.00000   0.00000   0.00001   0.00000   0.00000
 184       10D+1        0.00060   0.00000   0.00000   0.00009   0.00012
 185       10D-1        0.00000   0.00060   0.00009   0.00000   0.00000
 186       10D+2        0.00000   0.00002   0.00003   0.00000   0.00000
 187       10D-2        0.00002   0.00000   0.00000   0.00004   0.00001
 188       11D 0        0.00000  -0.00001   0.00002   0.00000   0.00000
 189       11D+1        0.00242   0.00000   0.00000   0.00122   0.00059
 190       11D-1        0.00000   0.00242   0.00121   0.00000   0.00000
 191       11D+2        0.00000   0.00005   0.00025   0.00000   0.00000
 192       11D-2        0.00005   0.00000   0.00000   0.00025   0.00018
 193       12D 0        0.00000  -0.00001   0.00003   0.00000   0.00000
 194       12D+1        0.00592  -0.00001   0.00000  -0.00355   0.00032
 195       12D-1        0.00001   0.00593  -0.00354   0.00000   0.00000
 196       12D+2        0.00000   0.00000  -0.00028   0.00000   0.00000
 197       12D-2        0.00005   0.00000   0.00000  -0.00029  -0.00037
 198       13F 0        0.00000   0.00000   0.00000   0.00000   0.00000
 199       13F+1        0.00022   0.00000   0.00000   0.00025   0.00006
 200       13F-1        0.00000   0.00022   0.00025   0.00000   0.00000
 201       13F+2        0.00000   0.00006   0.00011   0.00000   0.00000
 202       13F-2        0.00005   0.00000   0.00000   0.00011   0.00006
 203       13F+3        0.00000   0.00000   0.00000   0.00000   0.00000
 204       13F-3        0.00000   0.00000   0.00000   0.00000   0.00000
 205       14F 0        0.00000  -0.00001   0.00000   0.00000   0.00000
 206       14F+1        0.00146   0.00000   0.00000  -0.00087   0.00001
 207       14F-1        0.00000   0.00146  -0.00086   0.00000   0.00000
 208       14F+2        0.00000  -0.00014  -0.00023   0.00000   0.00000
 209       14F-2       -0.00013   0.00000   0.00000  -0.00024  -0.00016
 210       14F+3        0.00000   0.00000   0.00000   0.00000   0.00000
 211       14F-3        0.00000   0.00000   0.00000   0.00000   0.00000
                          16        17        18        19        20
     Eigenvalues --     1.94911   1.94878   1.93536   0.06017   0.02493
   1 1   C  1S          0.00158   0.05308  -0.01612  -0.02348   0.00000
   2        2S         -0.00451  -0.15108   0.05187   0.06487   0.00000
   3        3S         -0.00108  -0.03561   0.01696   0.02346   0.00000
   4        4S         -0.00784  -0.29384   0.08856  -0.21825  -0.00001
   5        5S         -0.00177  -0.05814   0.03929  -0.02777   0.00000
   6        6PX        -0.00033  -0.00001  -0.00002   0.00005   0.15458
   7        6PY         0.06799  -0.00296  -0.00095   0.00173   0.00004
   8        6PZ        -0.00164  -0.04590  -0.12858   0.27952  -0.00003
   9        7PX        -0.00046  -0.00002  -0.00003   0.00008   0.28705
  10        7PY         0.09445  -0.00400  -0.00130   0.00234   0.00008
  11        7PZ        -0.00234  -0.06504  -0.18040   0.44354  -0.00005
  12        8PX        -0.00036  -0.00001  -0.00001   0.00004   0.13210
  13        8PY         0.07240  -0.00256  -0.00113   0.00101   0.00004
  14        8PZ        -0.00215  -0.06435  -0.07659   0.20141  -0.00002
  15        9PX        -0.00006   0.00000   0.00000   0.00000   0.02944
  16        9PY         0.01221  -0.00042  -0.00015   0.00022   0.00001
  17        9PZ        -0.00008  -0.00126  -0.00167   0.00003  -0.00001
  18       10D 0        0.00028   0.00935  -0.01107  -0.00876  -0.00001
  19       10D+1        0.00002   0.00000   0.00000   0.00000   0.02553
  20       10D-1       -0.00367   0.00017  -0.00005  -0.00001   0.00001
  21       10D+2        0.00503  -0.00019  -0.00003  -0.00007   0.00001
  22       10D-2       -0.00003   0.00000   0.00000   0.00000   0.00385
  23       11D 0        0.00143   0.04999  -0.04574   0.06616  -0.00002
  24       11D+1        0.00007   0.00002  -0.00001   0.00002   0.05980
  25       11D-1       -0.01526   0.00053  -0.00019   0.00035   0.00000
  26       11D+2        0.01705  -0.00041  -0.00010  -0.00037   0.00006
  27       11D-2       -0.00009   0.00000   0.00000   0.00000   0.07008
  28       12D 0        0.00067   0.02788  -0.00393  -0.01629  -0.00001
  29       12D+1       -0.00001   0.00001   0.00000   0.00000   0.01879
  30       12D-1        0.00126   0.00012  -0.00003  -0.00003   0.00000
  31       12D+2        0.01000  -0.00002  -0.00012  -0.00017   0.00001
  32       12D-2       -0.00005   0.00000   0.00000   0.00000   0.01538
  33       13F 0       -0.00004  -0.00208  -0.00328  -0.00590   0.00000
  34       13F+1        0.00001   0.00000   0.00000   0.00000  -0.00959
  35       13F-1       -0.00224   0.00007   0.00000  -0.00008   0.00000
  36       13F+2       -0.00031   0.00001  -0.00001  -0.00001   0.00000
  37       13F-2        0.00000   0.00000   0.00000   0.00000   0.00308
  38       13F+3        0.00000   0.00000   0.00000   0.00000  -0.00002
  39       13F-3       -0.00009  -0.00307   0.00116  -0.00052   0.00000
  40       14F 0       -0.00010  -0.00540  -0.00087   0.01144   0.00000
  41       14F+1        0.00004   0.00000   0.00000   0.00000  -0.00256
  42       14F-1       -0.00728   0.00027  -0.00003  -0.00005   0.00000
  43       14F+2       -0.00319   0.00008  -0.00005   0.00020   0.00000
  44       14F-2        0.00002   0.00000   0.00000   0.00001  -0.00208
  45       14F+3        0.00000  -0.00001   0.00000  -0.00001  -0.00004
  46       14F-3       -0.00042  -0.01531   0.00920  -0.03708   0.00000
  47 2   H  1S         -0.04764  -0.03203   0.02895  -0.00569   0.00001
  48        2S         -0.04616  -0.00042   0.02279   0.07979   0.00011
  49        3S          0.00557   0.02315   0.01994   0.06710   0.00007
  50        4S          0.00103   0.00016   0.00187   0.00702   0.00003
  51        5PX        -0.00001   0.00000   0.00000   0.00000   0.00290
  52        5PY        -0.00367  -0.00201   0.00245  -0.00179   0.00000
  53        5PZ         0.00016  -0.00264  -0.00327   0.01434  -0.00001
  54        6PX        -0.00002   0.00000   0.00000   0.00001   0.00763
  55        6PY         0.00570   0.00548  -0.00167   0.00964   0.00002
  56        6PZ        -0.00120  -0.00121  -0.01028   0.02750   0.00000
  57        7PX        -0.00001   0.00000   0.00000   0.00000  -0.00113
  58        7PY         0.00990   0.01096  -0.00178   0.01223   0.00002
  59        7PZ         0.00306   0.00782   0.00323  -0.01436   0.00000
  60        8D 0        0.00043   0.00015  -0.00083   0.00040   0.00000
  61        8D+1        0.00000   0.00000   0.00000   0.00000   0.00176
  62        8D-1       -0.00029  -0.00022  -0.00173   0.00671   0.00000
  63        8D+2        0.00054   0.00050  -0.00059   0.00181   0.00000
  64        8D-2        0.00000   0.00000   0.00000   0.00000   0.00216
  65        9D 0       -0.00007   0.00090  -0.00282   0.00569   0.00000
  66        9D+1        0.00001   0.00000   0.00000   0.00000   0.00440
  67        9D-1       -0.00044   0.00196  -0.00053  -0.00596   0.00001
  68        9D+2       -0.00105   0.00109   0.00036  -0.00097   0.00000
  69        9D-2       -0.00001   0.00000   0.00000   0.00000   0.00113
  70 3   H  1S          0.02260  -0.03465   0.02872  -0.00657   0.03517
  71        2S          0.02305  -0.00368   0.02259   0.07938   0.22388
  72        3S         -0.00206   0.02200   0.02022   0.06847   0.14390
  73        4S         -0.00051   0.00017   0.00196   0.00713   0.06230
  74        5PX         0.00197  -0.00193   0.00214  -0.00170  -0.00586
  75        5PY        -0.00009   0.00106  -0.00126   0.00108   0.00499
  76        5PZ        -0.00017  -0.00268  -0.00322   0.01432  -0.01057
  77        6PX        -0.00071   0.00486  -0.00134   0.00840   0.04623
  78        6PY         0.00413  -0.00291   0.00070  -0.00488  -0.02235
  79        6PZ         0.00054  -0.00094  -0.01028   0.02800  -0.00488
  80        7PX        -0.00278   0.00986  -0.00144   0.01081   0.03780
  81        7PY         0.00437  -0.00558   0.00079  -0.00646  -0.02249
  82        7PZ        -0.00129   0.00808   0.00314  -0.01398   0.00457
  83        8D 0       -0.00020   0.00015  -0.00085   0.00060   0.00221
  84        8D+1        0.00011  -0.00018  -0.00148   0.00582  -0.00254
  85        8D-1       -0.00009   0.00010   0.00085  -0.00336   0.00251
  86        8D+2        0.00057  -0.00028   0.00029  -0.00090  -0.00020
  87        8D-2        0.00004   0.00045  -0.00053   0.00162   0.00246
  88        9D 0        0.00011   0.00089  -0.00282   0.00579  -0.00285
  89        9D+1       -0.00027   0.00177  -0.00048  -0.00512   0.01271
  90        9D-1       -0.00102  -0.00099   0.00025   0.00299  -0.00473
  91        9D+2        0.00056  -0.00053  -0.00018   0.00048   0.00463
  92        9D-2        0.00098   0.00091   0.00029  -0.00100  -0.00682
  93 4   H  1S          0.02219  -0.03466   0.02872  -0.00657  -0.03519
  94        2S          0.02265  -0.00368   0.02259   0.07938  -0.22399
  95        3S         -0.00202   0.02200   0.02022   0.06847  -0.14396
  96        4S         -0.00050   0.00017   0.00196   0.00713  -0.06233
  97        5PX        -0.00195   0.00193  -0.00214   0.00170  -0.00586
  98        5PY        -0.00006   0.00106  -0.00126   0.00108  -0.00499
  99        5PZ        -0.00017  -0.00268  -0.00321   0.01432   0.01058
 100        6PX         0.00066  -0.00486   0.00134  -0.00839   0.04626
 101        6PY         0.00413  -0.00291   0.00070  -0.00488   0.02235
 102        6PZ         0.00053  -0.00094  -0.01028   0.02800   0.00486
 103        7PX         0.00270  -0.00986   0.00144  -0.01082   0.03782
 104        7PY         0.00434  -0.00558   0.00079  -0.00646   0.02249
 105        7PZ        -0.00127   0.00808   0.00314  -0.01397  -0.00459
 106        8D 0       -0.00020   0.00015  -0.00085   0.00060  -0.00221
 107        8D+1       -0.00010   0.00018   0.00148  -0.00582  -0.00255
 108        8D-1       -0.00009   0.00010   0.00085  -0.00336  -0.00251
 109        8D+2        0.00057  -0.00028   0.00029  -0.00090   0.00020
 110        8D-2       -0.00005  -0.00045   0.00053  -0.00162   0.00246
 111        9D 0        0.00011   0.00089  -0.00282   0.00579   0.00284
 112        9D+1        0.00027  -0.00177   0.00048   0.00512   0.01272
 113        9D-1       -0.00102  -0.00099   0.00025   0.00299   0.00474
 114        9D+2        0.00057  -0.00053  -0.00018   0.00049  -0.00463
 115        9D-2       -0.00097  -0.00091  -0.00029   0.00100  -0.00682
 116 5   Cl 1S          0.00031   0.01019   0.00048  -0.01677   0.00000
 117        2S         -0.00119  -0.03892  -0.00158   0.05627   0.00000
 118        3S          0.00245   0.08036   0.01105  -0.15648   0.00000
 119        4S          0.00038   0.01241   0.00449  -0.03985   0.00000
 120        5S          0.00219   0.06918   0.01204  -0.04630   0.00000
 121        6S          0.00075   0.02066  -0.01259   0.01543   0.00000
 122        7PX        -0.00109   0.00000  -0.00004  -0.00003   0.02105
 123        7PY         0.22352  -0.00619   0.00005   0.00019   0.00001
 124        7PZ         0.00083   0.02667  -0.21016  -0.16321   0.00000
 125        8PX         0.00250   0.00000   0.00008   0.00006  -0.03282
 126        8PY        -0.51132   0.01412  -0.00009  -0.00037  -0.00001
 127        8PZ        -0.00194  -0.06230   0.46472   0.36016   0.00001
 128        9PX         0.00121   0.00000   0.00004   0.00004  -0.03497
 129        9PY        -0.24699   0.00684  -0.00003  -0.00024  -0.00001
 130        9PZ        -0.00098  -0.03106   0.21835   0.20626   0.00001
 131       10PX         0.00180   0.00000   0.00006   0.00001   0.01682
 132       10PY        -0.36764   0.01019   0.00005  -0.00006   0.00000
 133       10PZ        -0.00227  -0.07242   0.31799   0.02936   0.00000
 134       11PX         0.00030   0.00000   0.00001   0.00000   0.00592
 135       11PY        -0.06220   0.00177   0.00006  -0.00013   0.00000
 136       11PZ        -0.00077  -0.02406   0.04629   0.00730   0.00000
 137       12D 0       -0.00016  -0.00472  -0.01237   0.06740   0.00002
 138       12D+1        0.00000   0.00000   0.00000   0.00002  -0.05795
 139       12D-1        0.00021   0.00001   0.00004  -0.00007  -0.00002
 140       12D+2        0.00024  -0.00001   0.00000  -0.00001  -0.00001
 141       12D-2        0.00000   0.00000   0.00000   0.00000   0.00091
 142       13D 0       -0.00026  -0.00753  -0.01940   0.09780   0.00003
 143       13D+1        0.00000   0.00000  -0.00001   0.00003  -0.08650
 144       13D-1        0.00070   0.00004   0.00005  -0.00022  -0.00002
 145       13D+2        0.00054  -0.00002   0.00000   0.00000  -0.00001
 146       13D-2        0.00000   0.00000   0.00000   0.00000   0.00143
 147       14D 0       -0.00001   0.00156  -0.01325   0.03012   0.00000
 148       14D+1       -0.00002   0.00000   0.00000   0.00001  -0.00944
 149       14D-1        0.00337  -0.00008  -0.00002  -0.00001   0.00000
 150       14D+2        0.00004   0.00000   0.00001  -0.00001   0.00000
 151       14D-2        0.00000   0.00000   0.00000   0.00000   0.00027
 152       15F 0        0.00003   0.00098   0.00458  -0.00358   0.00000
 153       15F+1        0.00001   0.00000   0.00000   0.00000   0.00496
 154       15F-1       -0.00140   0.00003  -0.00001   0.00000   0.00000
 155       15F+2       -0.00011   0.00001   0.00000   0.00001   0.00000
 156       15F-2        0.00000   0.00000   0.00000   0.00000  -0.00021
 157       15F+3        0.00000   0.00000   0.00000   0.00000   0.00000
 158       15F-3        0.00000  -0.00007   0.00004   0.00005   0.00000
 159       16F 0        0.00005   0.00138   0.00401   0.00161   0.00000
 160       16F+1        0.00001   0.00000   0.00000   0.00000   0.00026
 161       16F-1       -0.00180   0.00003   0.00000   0.00006   0.00000
 162       16F+2       -0.00019  -0.00001   0.00000  -0.00001   0.00000
 163       16F-2        0.00000   0.00000   0.00000   0.00000   0.00096
[...]
  80        7PX         1.10445  -9.95048   0.04910  -1.72611   4.69174
  81        7PY         2.74685  -0.28721  -9.91710   0.91157  -4.75404
  82        7PZ        -1.99007  -2.76279   1.11631   0.04126   0.71740
  83        8D 0       -0.03316   0.00993  -0.01865   0.02260  -0.01628
  84        8D+1        0.01256  -0.03035  -0.00455   0.00850  -0.01023
  85        8D-1        0.00687  -0.00763  -0.03828  -0.00481   0.00922
  86        8D+2        0.03065   0.04814   0.10921   0.02742   0.03002
  87        8D-2       -0.12102   0.03724   0.00838  -0.04696  -0.02250
  88        9D 0       -0.39416   0.43775  -0.40703  -0.16453  -0.22988
  89        9D+1       -0.29716  -0.04379   0.17943  -0.03443   0.18255
  90        9D-1        0.03824   0.24753   0.26843   0.01785  -0.15835
  91        9D+2        0.21135  -1.39770  -1.00952  -0.37061  -0.13374
  92        9D-2        0.63986   0.58049  -1.23900   0.61990  -0.34989
  93 4   H  1S         -0.03177  -0.00802  -0.01706  -0.01094   0.02290
  94        2S         -0.35716   3.02356   1.69145  -0.48997  -1.89248
  95        3S          2.43400  24.35971  15.73942  -2.92546 -22.37524
  96        4S          1.79735  -1.66438  -0.37575  -1.92622  -9.67641
  97        5PX        -0.02735   0.11110  -0.00565  -0.08183  -0.07449
  98        5PY        -0.04806   0.00264   0.09446  -0.04639  -0.07334
  99        5PZ         0.05461   0.01158   0.02389   0.03095   0.00952
 100        6PX        -0.39751  -2.22149  -0.59877   0.57938   0.84940
 101        6PY         0.22625  -0.42207  -1.71507   0.32204   0.79309
 102        6PZ        -0.31873   0.00819  -0.08691  -0.16290  -0.14712
 103        7PX        -1.09689  -9.95018  -0.06004   1.72612   4.69139
 104        7PY         2.74666   0.30051  -9.91681   0.91110   4.75306
 105        7PZ        -1.99188   2.76376   1.11872   0.04072  -0.71895
 106        8D 0       -0.03315  -0.00992  -0.01866   0.02261   0.01628
 107        8D+1       -0.01257  -0.03035   0.00447  -0.00850  -0.01021
 108        8D-1        0.00683   0.00767  -0.03827  -0.00483  -0.00921
 109        8D+2        0.03075  -0.04820   0.10916   0.02744  -0.03004
 110        8D-2        0.12098   0.03737  -0.00841   0.04695  -0.02247
 111        9D 0       -0.39404  -0.43767  -0.40731  -0.16456   0.22973
 112        9D+1        0.29689  -0.04422  -0.17928   0.03445   0.18264
 113        9D-1        0.03858  -0.24792   0.26783   0.01805   0.15843
 114        9D+2        0.21004   1.39902  -1.00770  -0.37089   0.13377
 115        9D-2       -0.64038   0.57811   1.24012  -0.61969  -0.34994
 116 5   Cl 1S          0.01922   0.00000   0.00667   0.01199   0.00000
 117        2S          0.26586   0.00006   0.09285   0.16742   0.00000
 118        3S          0.74144   0.00018   0.25771   0.46902   0.00000
 119        4S         -0.03961  -0.00001  -0.01545  -0.01696   0.00000
 120        5S         -4.13514  -0.00100  -1.43549  -3.07535  -0.00001
 121        6S         -9.28722  -0.00221  -3.03281 -13.23766  -0.00002
 122        7PX         0.00000   0.00115   0.00000   0.00000  -0.00293
 123        7PY        -0.00011   0.00000   0.00106   0.00012   0.00000
 124        7PZ        -0.00419   0.00000  -0.00097  -0.02243   0.00000
 125        8PX        -0.00002   0.02383   0.00001  -0.00005  -0.05869
 126        8PY        -0.00432  -0.00001   0.02230   0.00218   0.00002
 127        8PZ        -0.05869  -0.00002  -0.01288  -0.31262   0.00001
 128        9PX         0.00000  -0.00523   0.00000   0.00001   0.00982
 129        9PY         0.00065   0.00000  -0.00485  -0.00046   0.00000
 130        9PZ         0.00123   0.00000  -0.00130   0.07843   0.00000
 131       10PX         0.00103  -0.11257   0.00027   0.00090   0.41840
 132       10PY         0.02031   0.00007  -0.09900  -0.00986  -0.00011
 133       10PZ         5.60194   0.00137   1.88223   5.09603  -0.00006
 134       11PX         0.00063  -1.14787  -0.00060   0.00059  -0.24732
 135       11PY         0.37269   0.00078  -1.09507  -0.00808   0.00006
 136       11PZ         0.74605   0.00037   0.22100   3.35169   0.00005
 137       12D 0        0.06474   0.00001   0.02216   0.00210   0.00000
 138       12D+1        0.00001   0.03006   0.00002   0.00000  -0.00374
 139       12D-1       -0.00965  -0.00002   0.02907   0.00035   0.00000
 140       12D+2        0.00232   0.00001  -0.00666  -0.00011   0.00000
 141       12D-2        0.00000  -0.00681   0.00000   0.00000   0.01195
 142       13D 0       -0.36921  -0.00006  -0.12668  -0.07275  -0.00001
 143       13D+1       -0.00006  -0.11134  -0.00011  -0.00002   0.02570
 144       13D-1        0.03486   0.00007  -0.10714  -0.00175   0.00000
 145       13D+2       -0.00520  -0.00002   0.01526   0.00036   0.00000
 146       13D-2        0.00000   0.01499  -0.00002   0.00000  -0.04320
 147       14D 0       -1.31978  -0.00042  -0.43931  -1.24104   0.00010
 148       14D+1       -0.00055   0.32487   0.00006  -0.00038  -0.32404
 149       14D-1       -0.09849  -0.00021   0.31088   0.01010   0.00005
 150       14D+2        0.02172   0.00008  -0.06784  -0.00036  -0.00004
 151       14D-2        0.00000  -0.06947   0.00005   0.00000   0.19951
 152       15F 0       -0.04101  -0.00001  -0.01374   0.00124   0.00001
 153       15F+1       -0.00002   0.00600   0.00000   0.00000  -0.01836
 154       15F-1       -0.00165   0.00000   0.00531   0.00051   0.00000
 155       15F+2        0.00315   0.00001  -0.01039  -0.00003   0.00000
 156       15F-2        0.00000  -0.01057   0.00000  -0.00001   0.01008
 157       15F+3        0.00000   0.00071   0.00000   0.00001   0.00037
 158       15F-3       -0.00921  -0.00001  -0.00256   0.02329   0.00000
 159       16F 0        0.22173   0.00006   0.07395   0.08901  -0.00003
 160       16F+1        0.00011  -0.01960   0.00001   0.00004   0.06274
 161       16F-1        0.00634   0.00000  -0.01847  -0.00205  -0.00001
 162       16F+2       -0.01524  -0.00002   0.04662   0.00018   0.00001
 163       16F-2       -0.00002   0.04899   0.00000   0.00001  -0.04153
 164       16F+3        0.00000  -0.00160   0.00001  -0.00002  -0.00077
 165       16F-3        0.01914   0.00002   0.00526  -0.04362  -0.00001
 166 6   F  1S          0.03870   0.00001   0.01380  -0.02178   0.00000
 167        2S          0.13660   0.00003   0.04909  -0.08233   0.00000
 168        3S         -0.06892  -0.00002  -0.02425   0.03571   0.00000
 169        4S         -0.36681  -0.00009  -0.13781  -0.03479   0.00000
 170        5S         -0.04688   0.00001  -0.00486  -5.96036  -0.00001
 171        6PX         0.00000  -0.00706   0.00000   0.00000   0.00175
 172        6PY         0.00245   0.00000  -0.00685  -0.00004   0.00000
 173        6PZ         0.00502   0.00000   0.00168   0.00215   0.00000
 174        7PX        -0.00003   0.03664   0.00002   0.00000  -0.00639
 175        7PY        -0.01280  -0.00003   0.03560  -0.00006   0.00000
 176        7PZ        -0.05989  -0.00002  -0.02058   0.00296   0.00000
 177        8PX         0.00022  -0.25902  -0.00011  -0.00004   0.00245
 178        8PY         0.08958   0.00018  -0.25052   0.00185   0.00000
 179        8PZ         0.58984   0.00019   0.20233  -0.25248   0.00000
 180        9PX         0.00022  -0.86443  -0.00053  -0.00043  -0.23331
 181        9PY         0.27638   0.00058  -0.81524   0.00208   0.00006
 182        9PZ        -0.81414  -0.00004  -0.25831  -2.49784   0.00004
 183       10D 0        0.01084   0.00001   0.00393  -0.00779   0.00000
 184       10D+1        0.00001  -0.01545  -0.00001   0.00000   0.00214
 185       10D-1        0.00508   0.00001  -0.01453  -0.00001   0.00000
 186       10D+2       -0.00174   0.00000   0.00444   0.00005   0.00000
 187       10D-2        0.00000   0.00510   0.00000   0.00000   0.00298
 188       11D 0       -0.04002  -0.00002  -0.01446   0.01504   0.00000
 189       11D+1       -0.00003   0.04955   0.00003   0.00000  -0.00366
 190       11D-1       -0.01635  -0.00003   0.04662  -0.00009   0.00000
 191       11D+2        0.00574   0.00001  -0.01488  -0.00015   0.00000
 192       11D-2        0.00000  -0.01690   0.00000   0.00000  -0.01051
 193       12D 0        0.39365   0.00014   0.13808  -0.00949   0.00001
 194       12D+1        0.00018  -0.14037  -0.00004   0.00000  -0.03113
 195       12D-1        0.05032   0.00009  -0.13566   0.00225   0.00000
 196       12D+2       -0.02022  -0.00004   0.05582   0.00094   0.00000
 197       12D-2       -0.00001   0.06236  -0.00001   0.00000   0.02035
 198       13F 0       -0.02620   0.00000  -0.00872  -0.00773   0.00000
 199       13F+1        0.00000  -0.01982  -0.00001   0.00000   0.00779
 200       13F-1        0.00584   0.00002  -0.01797   0.00001   0.00000
 201       13F+2        0.00277   0.00000  -0.00851  -0.00011   0.00000
 202       13F-2        0.00000  -0.00939  -0.00001   0.00000   0.00264
 203       13F+3        0.00001  -0.00068   0.00000   0.00000  -0.00013
 204       13F-3        0.01227   0.00000   0.00377  -0.00124   0.00000
 205       14F 0        0.06528   0.00000   0.02202   0.01214   0.00001
 206       14F+1        0.00001   0.04252   0.00003   0.00001  -0.01726
 207       14F-1       -0.01223  -0.00003   0.03834   0.00029   0.00001
 208       14F+2       -0.00781   0.00001   0.02363   0.00032  -0.00001
 209       14F-2       -0.00001   0.02609   0.00002   0.00000  -0.00631
 210       14F+3       -0.00001   0.00110   0.00000   0.00000   0.00020
 211       14F-3       -0.01661   0.00000  -0.00493   0.00244   0.00000
                         211
     Eigenvalues --     0.00000
   1 1   C  1S          0.00096
   2        2S          0.00499
   3        3S          0.00034
   4        4S          0.00935
   5        5S          0.05553
   6        6PX         0.00000
   7        6PY        -0.00763
   8        6PZ         0.00016
   9        7PX         0.00042
  10        7PY         1.54298
  11        7PZ        -0.00841
  12        8PX         0.00466
  13        8PY        17.41083
  14        8PZ        -0.08284
  15        9PX         0.00211
  16        9PY         7.90506
  17        9PZ        -0.03127
  18       10D 0        0.00044
  19       10D+1        0.00000
  20       10D-1       -0.00162
  21       10D+2        0.02251
  22       10D-2        0.00000
  23       11D 0        0.00067
  24       11D+1       -0.00013
  25       11D-1       -0.19989
  26       11D+2        0.41712
  27       11D-2       -0.00008
  28       12D 0        0.06038
  29       12D+1       -0.00022
  30       12D-1       -1.25338
  31       12D+2       -0.57260
  32       12D-2       -0.00019
  33       13F 0       -0.00008
  34       13F+1        0.00001
  35       13F-1        0.03796
  36       13F+2        0.00856
  37       13F-2        0.00001
  38       13F+3        0.00000
  39       13F-3       -0.00101
  40       14F 0        0.00171
  41       14F+1       -0.00009
  42       14F-1       -0.40725
  43       14F+2       -0.07308
  44       14F-2       -0.00011
  45       14F+3       -0.00001
  46       14F-3        0.00687
  47 2   H  1S         -0.02754
  48        2S          2.23825
  49        3S         25.98280
  50        4S         11.19718
  51        5PX        -0.00001
  52        5PY        -0.11571
  53        5PZ        -0.00922
  54        6PX         0.00012
  55        6PY         1.32157
  56        6PZ         0.15137
  57        7PX         0.00058
  58        7PY         7.43580
  59        7PZ         0.75237
  60        8D 0       -0.01953
  61        8D+1        0.00000
  62        8D-1       -0.01527
  63        8D+2       -0.04253
  64        8D-2        0.00001
  65        9D 0       -0.26711
  66        9D+1       -0.00001
  67        9D-1        0.26165
  68        9D+2       -0.26347
  69        9D-2        0.00003
  70 3   H  1S          0.01357
  71        2S         -1.12399
  72        3S        -12.96217
  73        4S         -5.60046
  74        5PX         0.07348
  75        5PY         0.01014
  76        5PZ         0.00524
  77        6PX        -0.79972
  78        6PY        -0.05952
  79        6PZ        -0.08439
  80        7PX        -4.75237
  81        7PY        -0.77366
  82        7PZ        -0.41322
  83        8D 0        0.00989
  84        8D+1        0.00925
  85        8D-1        0.00018
  86        8D+2        0.01210
  87        8D-2        0.03029
  88        9D 0        0.12749
  89        9D+1       -0.15835
  90        9D-1       -0.00035
  91        9D+2       -0.50251
  92        9D-2       -0.12797
  93 4   H  1S          0.01357
  94        2S         -1.12454
  95        3S        -12.96849
  96        4S         -5.60316
  97        5PX        -0.07350
  98        5PY         0.01014
  99        5PZ         0.00527
 100        6PX         0.79992
 101        6PY        -0.05950
 102        6PZ        -0.08472
 103        7PX         4.75335
 104        7PY        -0.77353
 105        7PZ        -0.41511
 106        8D 0        0.00990
 107        8D+1       -0.00925
 108        8D-1        0.00019
 109        8D+2        0.01207
 110        8D-2       -0.03031
 111        9D 0        0.12747
 112        9D+1        0.15866
 113        9D-1       -0.00039
 114        9D+2       -0.50235
 115        9D-2        0.12812
 116 5   Cl 1S          0.00008
 117        2S          0.00119
 118        3S          0.00312
 119        4S         -0.00043
 120        5S         -0.02943
 121        6S         -0.04764
 122        7PX         0.00000
 123        7PY        -0.00283
 124        7PZ        -0.00009
 125        8PX        -0.00002
 126        8PY        -0.05760
 127        8PZ        -0.00078
 128        9PX         0.00000
 129        9PY         0.00945
 130        9PZ         0.00042
 131       10PX         0.00012
 132       10PY         0.41578
 133       10PZ         0.02264
 134       11PX        -0.00007
 135       11PY        -0.24455
 136       11PZ         0.00558
 137       12D 0       -0.00009
 138       12D+1        0.00000
 139       12D-1       -0.00357
 140       12D+2        0.01215
 141       12D-2        0.00000
 142       13D 0        0.00014
 143       13D+1        0.00001
 144       13D-1        0.02535
 145       13D+2       -0.04398
 146       13D-2        0.00001
 147       14D 0        0.00026
 148       14D+1       -0.00012
 149       14D-1       -0.32088
 150       14D+2        0.20201
 151       14D-2       -0.00008
 152       15F 0        0.00043
 153       15F+1       -0.00001
 154       15F-1       -0.01851
 155       15F+2        0.01027
 156       15F-2       -0.00001
 157       15F+3        0.00000
 158       15F-3       -0.00029
 159       16F 0       -0.00153
 160       16F+1        0.00003
 161       16F-1        0.06247
 162       16F+2       -0.04207
 163       16F-2        0.00002
 164       16F+3       -0.00001
 165       16F-3        0.00059
 166 6   F  1S          0.00018
 167        2S          0.00087
 168        3S         -0.00010
 169        4S         -0.00449
 170        5S         -0.04437
 171        6PX         0.00000
 172        6PY         0.00173
 173        6PZ        -0.00004
 174        7PX         0.00000
 175        7PY        -0.00617
 176        7PZ         0.00034
 177        8PX         0.00000
 178        8PY         0.00088
 179        8PZ        -0.00616
 180        9PX        -0.00007
 181        9PY        -0.23436
 182        9PZ        -0.01796
 183       10D 0       -0.00003
 184       10D+1        0.00000
 185       10D-1        0.00221
 186       10D+2        0.00284
 187       10D-2        0.00000
 188       11D 0        0.00006
 189       11D+1        0.00000
 190       11D-1       -0.00381
 191       11D+2       -0.01006
 192       11D-2        0.00000
 193       12D 0       -0.00119
 194       12D+1       -0.00001
 195       12D-1       -0.03133
 196       12D+2        0.01923
 197       12D-2       -0.00001
 198       13F 0       -0.00004
 199       13F+1        0.00000
 200       13F-1        0.00797
 201       13F+2        0.00262
 202       13F-2        0.00000
 203       13F+3        0.00000
 204       13F-3        0.00017
 205       14F 0        0.00008
 206       14F+1        0.00000
 207       14F-1       -0.01757
 208       14F+2       -0.00629
 209       14F-2        0.00000
 210       14F+3        0.00000
 211       14F-3       -0.00022
          Condensed to atoms (all electrons):
              1          2          3          4          5          6
     1  C    7.021199  -0.013944  -0.009947  -0.009947  -0.052625  -0.100573
     2  H   -0.013944   0.549016   0.020366   0.020365  -0.018419   0.005861
     3  H   -0.009947   0.020366   0.547636   0.019514  -0.018731   0.004259
     4  H   -0.009947   0.020365   0.019514   0.547635  -0.018731   0.004258
     5  Cl  -0.052625  -0.018419  -0.018731  -0.018731  17.711216   0.026462
     6  F   -0.100573   0.005861   0.004259   0.004258   0.026462   9.906964
 Mulliken atomic charges:
              1
     1  C   -0.834163
     2  H    0.436755
     3  H    0.436904
     4  H    0.436907
     5  Cl  -0.629172
     6  F   -0.847231
 Sum of Mulliken atomic charges =  -1.00000
 Mulliken charges with hydrogens summed into heavy atoms:
              1
     1  C    0.476403
     5  Cl  -0.629172
     6  F   -0.847231
 Sum of Mulliken charges with hydrogens summed into heavy atoms =  -1.00000
 Electronic spatial extent (au):  <R**2>=            490.2756
 Charge=             -1.0000 electrons
 Dipole moment (field-independent basis, Debye):
    X=             -0.0006    Y=              0.0004    Z=              4.0588  Tot=              4.0588
 Quadrupole moment (field-independent basis, Debye-Ang):
   XX=            -28.1804   YY=            -28.1788   ZZ=            -62.8306
   XY=              0.0000   XZ=             -0.0050   YZ=             -0.0281
 Traceless Quadrupole moment (field-independent basis, Debye-Ang):
   XX=             11.5496   YY=             11.5511   ZZ=            -23.1007
   XY=              0.0000   XZ=             -0.0050   YZ=             -0.0281
 Octapole moment (field-independent basis, Debye-Ang**2):
  XXX=             -0.0244  YYY=             -0.9798  ZZZ=             49.5620  XYY=             -0.0086
  XXY=              0.9400  XXZ=             -4.2539  XZZ=             -0.0066  YZZ=              0.0199
  YYZ=             -4.2385  XYZ=             -0.0002
 Hexadecapole moment (field-independent basis, Debye-Ang**3):
 XXXX=            -41.2696 YYYY=            -41.2575 ZZZZ=           -761.5409 XXXY=              0.0004
 XXXZ=             -0.0507 YYYX=             -0.0002 YYYZ=              0.5128 ZZZX=             -0.0657
 ZZZY=             -0.2073 XXYY=            -13.7544 XXZZ=           -103.3792 YYZZ=           -103.4025
 XXYZ=             -0.6712 YYXZ=             -0.0166 ZZXY=              0.0002
 N-N= 8.499215259396D+01 E-N=-1.604198210621D+03  KE= 5.991975428685D+02
 1\1\GINC-TRAPISTA\SP\RQCISD-FC\Aug-CC-pVTZ\C1H3Cl1F1(1-)\BRUNS\24-Aug-
 2020\0\\# QCISD aug-cc-pvtz nosymm density=current output=wfn\\clch3f_
 ts-wavefunction\\-1,1\C,0,0.000175,0.000029,-0.497709\H,0,0.000019,-1.
 05257,-0.610726\H,0,-0.911312,0.526365,-0.621245\H,0,0.91175,0.526132,
 -0.62157\Cl,0,0.000555,0.000962,1.644718\F,0,-0.000186,-0.000921,-2.59
 3468\\Version=EM64L-G09RevB.01\HF=-598.6171155\MP2=-599.2912387\MP3=-5
 99.3099319\MP4D=-599.3248201\MP4DQ=-599.3103831\MP4SDQ=-599.3197511\QC
 ISD=-599.3191342\RMSD=9.463e-09\Dipole=0.000271,0.0005858,1.5849254\Qu
 adrupole=8.5868256,8.5879585,-17.1747841,-0.0000016,-0.0036961,-0.0208
 814\PG=C01 [X(C1H3Cl1F1)]\\@

 Writing a WFN file to GAUSSIAN.wfn.


 FOR THE NATURE OF THE CHEMICAL BOND
 IS THE PROBLEM AT THE HEART OF ALL CHEMISTRY.

                     -- BRYCE CRAWFORD, JR., 1953
 Job cpu time:  0 days  3 hours 26 minutes 21.7 seconds.
 File lengths (MBytes):  RWF=  29002 Int=      0 D2E=      0 Chk=      4 Scr=      1
 Normal termination of Gaussian 09 at Mon Aug 24 00:18:30 2020.
