 clch3f_ts-wavefunction
GAUSSIAN            211 MOL ORBITALS    339 PRIMITIVES        6 NUCLEI
  C    1    (CENTRE  1)   0.00033070  0.00005480 -0.94053370  CHARGE =  6.0
  H    2    (CENTRE  2)   0.00003590 -1.98906904 -1.17300214  CHARGE =  1.0
  H    3    (CENTRE  3)  -1.72213010  0.99468570 -1.17398291  CHARGE =  1.0
  H    4    (CENTRE  4)   1.72295780  0.99424539 -1.17459707  CHARGE =  1.0
  Cl   5    (CENTRE  5)   0.00104880  0.02071518  3.10806659  CHARGE = 17.0
  F    6    (CENTRE  6)  -0.00035149 -0.00174044 -4.90094425  CHARGE =  9.0
CENTRE ASSIGNMENTS    1  1  1  1  1  1  1  1  1  1  1  1  1  1  1  1  1  1  1  1
CENTRE ASSIGNMENTS    1  1  1  1  1  1  1  1  1  1  1  1  1  1  1  1  1  1  1  1
CENTRE ASSIGNMENTS    1  1  1  1  1  1  1  1  1  1  1  1  1  1  1  1  1  1  1  1
CENTRE ASSIGNMENTS    1  1  1  1  1  1  1  1  1  1  1  1  2  2  2  2  2  2  2  2
CENTRE ASSIGNMENTS    2  2  2  2  2  2  2  2  2  2  2  2  2  2  2  2  2  2  2  3
CENTRE ASSIGNMENTS    3  3  3  3  3  3  3  3  3  3  3  3  3  3  3  3  3  3  3  3
CENTRE ASSIGNMENTS    3  3  3  3  3  3  4  4  4  4  4  4  4  4  4  4  4  4  4  4
CENTRE ASSIGNMENTS    4  4  4  4  4  4  4  4  4  4  4  4  4  5  5  5  5  5  5  5
CENTRE ASSIGNMENTS    5  5  5  5  5  5  5  5  5  5  5  5  5  5  5  5  5  5  5  5
CENTRE ASSIGNMENTS    5  5  5  5  5  5  5  5  5  5  5  5  5  5  5  5  5  5  5  5
CENTRE ASSIGNMENTS    5  5  5  5  5  5  5  5  5  5  5  5  5  5  5  5  5  5  5  5
CENTRE ASSIGNMENTS    5  5  5  5  5  5  5  5  5  5  5  5  5  5  5  5  5  5  5  5
CENTRE ASSIGNMENTS    5  5  5  5  5  5  5  5  5  5  5  5  5  5  5  5  5  5  5  5
CENTRE ASSIGNMENTS    5  5  5  5  5  5  5  6  6  6  6  6  6  6  6  6  6  6  6  6
CENTRE ASSIGNMENTS    6  6  6  6  6  6  6  6  6  6  6  6  6  6  6  6  6  6  6  6
CENTRE ASSIGNMENTS    6  6  6  6  6  6  6  6  6  6  6  6  6  6  6  6  6  6  6  6
CENTRE ASSIGNMENTS    6  6  6  6  6  6  6  6  6  6  6  6  6  6  6  6  6  6  6
TYPE ASSIGNMENTS      1  1  1  1  1  1  1  1  1  1  1  1  1  1  1  1  2  2  2  3
TYPE ASSIGNMENTS      3  3  4  4  4  2  3  4  2  3  4  2  3  4  5  6  7  8  9 10
TYPE ASSIGNMENTS      5  6  7  8  9 10  5  6  7  8  9 10 11 12 13 17 14 15 18 19
TYPE ASSIGNMENTS     16 20 11 12 13 17 14 15 18 19 16 20  1  1  1  1  1  1  2  3
TYPE ASSIGNMENTS      4  2  3  4  2  3  4  5  6  7  8  9 10  5  6  7  8  9 10  1
TYPE ASSIGNMENTS      1  1  1  1  1  2  3  4  2  3  4  2  3  4  5  6  7  8  9 10
TYPE ASSIGNMENTS      5  6  7  8  9 10  1  1  1  1  1  1  2  3  4  2  3  4  2  3
TYPE ASSIGNMENTS      4  5  6  7  8  9 10  5  6  7  8  9 10  1  1  1  1  1  1  1
TYPE ASSIGNMENTS      1  1  1  1  1  1  1  1  1  1  1  1  1  1  1  1  1  1  1  1
TYPE ASSIGNMENTS      1  1  1  1  2  2  2  2  2  2  3  3  3  3  3  3  4  4  4  4
TYPE ASSIGNMENTS      4  4  2  2  2  2  2  2  3  3  3  3  3  3  4  4  4  4  4  4
TYPE ASSIGNMENTS      2  3  4  2  3  4  2  3  4  5  6  7  8  9 10  5  6  7  8  9
TYPE ASSIGNMENTS     10  5  6  7  8  9 10 11 12 13 17 14 15 18 19 16 20 11 12 13
TYPE ASSIGNMENTS     17 14 15 18 19 16 20  1  1  1  1  1  1  1  1  1  1  1  1  1
TYPE ASSIGNMENTS      1  1  1  2  2  2  3  3  3  4  4  4  2  3  4  2  3  4  2  3
TYPE ASSIGNMENTS      4  5  6  7  8  9 10  5  6  7  8  9 10  5  6  7  8  9 10 11
TYPE ASSIGNMENTS     12 13 17 14 15 18 19 16 20 11 12 13 17 14 15 18 19 16 20
EXPONENTS  0.8236000D+04 0.1235000D+04 0.2808000D+03 0.7927000D+02 0.2559000D+02
EXPONENTS  0.8997000D+01 0.3319000D+01 0.2808000D+03 0.7927000D+02 0.2559000D+02
EXPONENTS  0.8997000D+01 0.3319000D+01 0.3643000D+00 0.9059000D+00 0.1285000D+00
EXPONENTS  0.4402000D-01 0.1871000D+02 0.4133000D+01 0.1200000D+01 0.1871000D+02
EXPONENTS  0.4133000D+01 0.1200000D+01 0.1871000D+02 0.4133000D+01 0.1200000D+01
EXPONENTS  0.3827000D+00 0.3827000D+00 0.3827000D+00 0.1209000D+00 0.1209000D+00
EXPONENTS  0.1209000D+00 0.3569000D-01 0.3569000D-01 0.3569000D-01 0.1097000D+01
EXPONENTS  0.1097000D+01 0.1097000D+01 0.1097000D+01 0.1097000D+01 0.1097000D+01
EXPONENTS  0.3180000D+00 0.3180000D+00 0.3180000D+00 0.3180000D+00 0.3180000D+00
EXPONENTS  0.3180000D+00 0.1000000D+00 0.1000000D+00 0.1000000D+00 0.1000000D+00
EXPONENTS  0.1000000D+00 0.1000000D+00 0.7610000D+00 0.7610000D+00 0.7610000D+00
EXPONENTS  0.7610000D+00 0.7610000D+00 0.7610000D+00 0.7610000D+00 0.7610000D+00
EXPONENTS  0.7610000D+00 0.7610000D+00 0.2680000D+00 0.2680000D+00 0.2680000D+00
EXPONENTS  0.2680000D+00 0.2680000D+00 0.2680000D+00 0.2680000D+00 0.2680000D+00
EXPONENTS  0.2680000D+00 0.2680000D+00 0.3387000D+02 0.5095000D+01 0.1159000D+01
EXPONENTS  0.3258000D+00 0.1027000D+00 0.2526000D-01 0.1407000D+01 0.1407000D+01
EXPONENTS  0.1407000D+01 0.3880000D+00 0.3880000D+00 0.3880000D+00 0.1020000D+00
EXPONENTS  0.1020000D+00 0.1020000D+00 0.1057000D+01 0.1057000D+01 0.1057000D+01
EXPONENTS  0.1057000D+01 0.1057000D+01 0.1057000D+01 0.2470000D+00 0.2470000D+00
EXPONENTS  0.2470000D+00 0.2470000D+00 0.2470000D+00 0.2470000D+00 0.3387000D+02
EXPONENTS  0.5095000D+01 0.1159000D+01 0.3258000D+00 0.1027000D+00 0.2526000D-01
EXPONENTS  0.1407000D+01 0.1407000D+01 0.1407000D+01 0.3880000D+00 0.3880000D+00
EXPONENTS  0.3880000D+00 0.1020000D+00 0.1020000D+00 0.1020000D+00 0.1057000D+01
EXPONENTS  0.1057000D+01 0.1057000D+01 0.1057000D+01 0.1057000D+01 0.1057000D+01
EXPONENTS  0.2470000D+00 0.2470000D+00 0.2470000D+00 0.2470000D+00 0.2470000D+00
EXPONENTS  0.2470000D+00 0.3387000D+02 0.5095000D+01 0.1159000D+01 0.3258000D+00
EXPONENTS  0.1027000D+00 0.2526000D-01 0.1407000D+01 0.1407000D+01 0.1407000D+01
EXPONENTS  0.3880000D+00 0.3880000D+00 0.3880000D+00 0.1020000D+00 0.1020000D+00
EXPONENTS  0.1020000D+00 0.1057000D+01 0.1057000D+01 0.1057000D+01 0.1057000D+01
EXPONENTS  0.1057000D+01 0.1057000D+01 0.2470000D+00 0.2470000D+00 0.2470000D+00
EXPONENTS  0.2470000D+00 0.2470000D+00 0.2470000D+00 0.4561000D+06 0.6833000D+05
EXPONENTS  0.1555000D+05 0.4405000D+04 0.1439000D+04 0.5204000D+03 0.2031000D+03
EXPONENTS  0.8396000D+02 0.3620000D+02 0.1583000D+02 0.6334000D+01 0.4405000D+04
EXPONENTS  0.1439000D+04 0.5204000D+03 0.2031000D+03 0.8396000D+02 0.3620000D+02
EXPONENTS  0.1583000D+02 0.6334000D+01 0.2694000D+01 0.1439000D+04 0.2031000D+03
EXPONENTS  0.8396000D+02 0.3620000D+02 0.1583000D+02 0.6334000D+01 0.2694000D+01
EXPONENTS  0.4313000D+00 0.9768000D+00 0.1625000D+00 0.5910000D-01 0.6633000D+03
EXPONENTS  0.1568000D+03 0.4998000D+02 0.1842000D+02 0.7240000D+01 0.2922000D+01
EXPONENTS  0.6633000D+03 0.1568000D+03 0.4998000D+02 0.1842000D+02 0.7240000D+01
EXPONENTS  0.2922000D+01 0.6633000D+03 0.1568000D+03 0.4998000D+02 0.1842000D+02
EXPONENTS  0.7240000D+01 0.2922000D+01 0.1568000D+03 0.4998000D+02 0.1842000D+02
EXPONENTS  0.7240000D+01 0.2922000D+01 0.3818000D+00 0.1568000D+03 0.4998000D+02
EXPONENTS  0.1842000D+02 0.7240000D+01 0.2922000D+01 0.3818000D+00 0.1568000D+03
EXPONENTS  0.4998000D+02 0.1842000D+02 0.7240000D+01 0.2922000D+01 0.3818000D+00
EXPONENTS  0.1022000D+01 0.1022000D+01 0.1022000D+01 0.1301000D+00 0.1301000D+00
EXPONENTS  0.1301000D+00 0.4190000D-01 0.4190000D-01 0.4190000D-01 0.1046000D+01
EXPONENTS  0.1046000D+01 0.1046000D+01 0.1046000D+01 0.1046000D+01 0.1046000D+01
EXPONENTS  0.3440000D+00 0.3440000D+00 0.3440000D+00 0.3440000D+00 0.3440000D+00
EXPONENTS  0.3440000D+00 0.1350000D+00 0.1350000D+00 0.1350000D+00 0.1350000D+00
EXPONENTS  0.1350000D+00 0.1350000D+00 0.7060000D+00 0.7060000D+00 0.7060000D+00
EXPONENTS  0.7060000D+00 0.7060000D+00 0.7060000D+00 0.7060000D+00 0.7060000D+00
EXPONENTS  0.7060000D+00 0.7060000D+00 0.3120000D+00 0.3120000D+00 0.3120000D+00
EXPONENTS  0.3120000D+00 0.3120000D+00 0.3120000D+00 0.3120000D+00 0.3120000D+00
EXPONENTS  0.3120000D+00 0.3120000D+00 0.1950000D+05 0.2923000D+04 0.6645000D+03
EXPONENTS  0.1875000D+03 0.6062000D+02 0.2142000D+02 0.7950000D+01 0.6645000D+03
EXPONENTS  0.1875000D+03 0.6062000D+02 0.2142000D+02 0.7950000D+01 0.8815000D+00
EXPONENTS  0.2257000D+01 0.3041000D+00 0.9158000D-01 0.4388000D+02 0.9926000D+01
EXPONENTS  0.2930000D+01 0.4388000D+02 0.9926000D+01 0.2930000D+01 0.4388000D+02
EXPONENTS  0.9926000D+01 0.2930000D+01 0.9132000D+00 0.9132000D+00 0.9132000D+00
EXPONENTS  0.2672000D+00 0.2672000D+00 0.2672000D+00 0.7361000D-01 0.7361000D-01
EXPONENTS  0.7361000D-01 0.3107000D+01 0.3107000D+01 0.3107000D+01 0.3107000D+01
EXPONENTS  0.3107000D+01 0.3107000D+01 0.8550000D+00 0.8550000D+00 0.8550000D+00
EXPONENTS  0.8550000D+00 0.8550000D+00 0.8550000D+00 0.2920000D+00 0.2920000D+00
EXPONENTS  0.2920000D+00 0.2920000D+00 0.2920000D+00 0.2920000D+00 0.1917000D+01
EXPONENTS  0.1917000D+01 0.1917000D+01 0.1917000D+01 0.1917000D+01 0.1917000D+01
EXPONENTS  0.1917000D+01 0.1917000D+01 0.1917000D+01 0.1917000D+01 0.7240000D+00
EXPONENTS  0.7240000D+00 0.7240000D+00 0.7240000D+00 0.7240000D+00 0.7240000D+00
EXPONENTS  0.7240000D+00 0.7240000D+00 0.7240000D+00 0.7240000D+00
MO    1     MO 0.0        OCC NO =    2.0000300  ORB. ENERGY =    0.000000
  0.14700554D-07  0.27404794D-07  0.46317836D-07  0.69624347D-07  0.85521039D-07
  0.72176740D-07  0.27140339D-07 -0.59592794D-11 -0.44541921D-10 -0.16646333D-09
 -0.46440677D-09 -0.62217704D-09  0.73467507D-09  0.24731929D-08 -0.35758139D-08
  0.13920826D-08  0.11238282D-03  0.10536604D-03  0.75026895D-04 -0.30746796D-07
 -0.28827076D-07 -0.20526595D-07 -0.19908418D-07 -0.18665407D-07 -0.13290882D-07
  0.36187781D-03 -0.99384741D-07 -0.61110733D-07  0.46291151D-03 -0.12792400D-06
 -0.85722912D-07  0.92873931D-05 -0.26339244D-08 -0.16671594D-08 -0.83692230D-07
 -0.53483138D-08  0.89040544D-07  0.12464114D-03 -0.51023697D-03  0.11812124D-06
  0.38094411D-07 -0.20671900D-07 -0.17422512D-07  0.38841532D-03  0.99595672D-04
 -0.95284881D-07 -0.74101181D-08 -0.44494403D-08  0.11859558D-07  0.81931359D-04
 -0.65729620D-04  0.39321879D-08  0.92601744D-04 -0.25879964D-07  0.65945566D-07
  0.92633693D-04 -0.17280518D-07 -0.17808287D-06 -0.37043892D-03  0.94920409D-07
 -0.19753829D-07  0.46892613D-04 -0.26667709D-04  0.77518973D-08 -0.19382295D-07
 -0.26675744D-04  0.25384963D-07  0.58389068D-07  0.10667887D-03 -0.48640654D-07
 -0.24218225D-09  0.10409515D-03  0.61910648D-08  0.11165840D-07  0.16464025D-07
 -0.53761732D-07 -0.16535512D-06  0.15905939D-08  0.48948206D-05 -0.11614795D-07
 -0.43225999D-08  0.83867464D-04 -0.54018936D-07 -0.54312370D-07  0.75590562D-04
 -0.34657597D-07 -0.16212173D-07  0.13098972D-07 -0.11037060D-07 -0.20619121D-08
  0.31388107D-04 -0.44903286D-04 -0.42863988D-07  0.21135567D-07 -0.17505031D-08
 -0.19385064D-07  0.29044649D-04  0.62292888D-04 -0.18108170D-07 -0.34426702D-04
 -0.62089975D-04 -0.91551632D-04  0.31700002D-03  0.97334386D-03 -0.10638287D-04
  0.55123062D-04 -0.28990100D-04  0.20941134D-04  0.23606178D-03 -0.87892411D-04
  0.23793122D-03  0.14816442D-03 -0.41893094D-04  0.19953079D-04  0.98246470D-05
 -0.69332709D-04  0.59508062D-04 -0.10561009D-03  0.21286424D-03 -0.14877917D-03
 -0.10950014D-04 -0.37088465D-04  0.48038479D-04 -0.16223057D-04  0.38949909D-04
  0.13599996D-04  0.34420939D-04  0.62079581D-04  0.91536306D-04 -0.31694331D-03
 -0.97317720D-03  0.10636519D-04  0.55114299D-04  0.28969552D-04 -0.20956119D-04
  0.23597279D-03  0.87792133D-04 -0.23797661D-03  0.14815511D-03  0.41825786D-04
 -0.20002516D-04 -0.97784613D-05  0.69351762D-04 -0.59573300D-04 -0.10549321D-03
  0.21282441D-03  0.14875069D-03  0.10953615D-04  0.37090519D-04 -0.48044134D-04
 -0.16206602D-04  0.38909404D-04 -0.13620060D-04 -0.25692102D-07 -0.48067181D-07
 -0.83049428D-07 -0.13463288D-06 -0.20445295D-06 -0.28417036D-06 -0.33785679D-06
 -0.30097456D-06 -0.14947033D-06 -0.24063459D-07 -0.25388371D-09 -0.11930926D-09
 -0.39799573D-08 -0.13869354D-07 -0.49945790D-07 -0.11009928D-06 -0.15498425D-06
  0.73932539D-08  0.20282381D-06  0.11992845D-06 -0.36203422D-11 -0.43851185D-10
 -0.91447023D-10 -0.26225414D-09 -0.13618492D-10  0.11309670D-08  0.29222016D-08
 -0.23808723D-08  0.68625980D-08  0.17831013D-08 -0.31718859D-09  0.11610745D+02
  0.15294068D+02  0.16871751D+02  0.14013310D+02  0.74414564D+01  0.19199347D+01
 -0.31965199D-02 -0.42105644D-02 -0.46449117D-02 -0.38579628D-02 -0.20486853D-02
 -0.52857152D-03 -0.20380398D-02 -0.26845752D-02 -0.29615067D-02 -0.24597632D-02
 -0.13062025D-02 -0.33700707D-03 -0.45955137D-03  0.44426469D-02  0.62645959D-02
  0.89600294D-02 -0.45372327D-04 -0.82171920D-02  0.12654369D-06 -0.12233430D-05
 -0.17250413D-05 -0.24672653D-05  0.12493884D-07  0.22627150D-05  0.80545235D-07
 -0.77865951D-06 -0.10979912D-05 -0.15704179D-05  0.79523750D-08  0.14402213D-05
  0.76651986D-01 -0.21103420D-04 -0.13452266D-04 -0.64375684D-03  0.17704922D-06
  0.11214819D-06 -0.57968531D-04  0.15957442D-07  0.10234137D-07 -0.17260317D-06
  0.71485162D-09  0.17188832D-06  0.18367401D-04 -0.98154103D-03  0.26765146D-06
  0.62348083D-07 -0.45930761D-09 -0.61888775D-07 -0.70024328D-05  0.35642734D-03
 -0.97369361D-07 -0.10725869D-07 -0.14440006D-09  0.10870269D-07  0.22648075D-05
 -0.61092555D-04  0.16504244D-07  0.25586147D-05 -0.73947093D-09  0.17476463D-08
  0.25357046D-05  0.11981885D-07 -0.98584028D-09 -0.10211549D-04 -0.97634720D-08
 -0.42570985D-08  0.70719658D-04  0.14622860D-04 -0.40596603D-08  0.10189873D-07
  0.14716862D-04 -0.67727793D-08 -0.29184532D-07 -0.58585444D-04  0.18951760D-07
 -0.13850867D-08 -0.15134095D-04  0.28524597D-08  0.53169898D-08  0.90134822D-08
  0.13647631D-07  0.17062545D-07  0.14676848D-07  0.56288871D-08 -0.93927480D-11
 -0.12434240D-09 -0.45163421D-09 -0.13397644D-08 -0.15438078D-08  0.18751845D-08
  0.44464046D-10 -0.31253257D-08 -0.26227598D-08 -0.29087585D-03 -0.28447023D-03
 -0.18796151D-03  0.80305629D-07  0.78537151D-07  0.51892816D-07  0.52405462D-07
  0.51251397D-07  0.33863965D-07 -0.92854472D-05  0.11033405D-08  0.37100563D-08
 -0.66170477D-04  0.19435444D-07  0.82610169D-08 -0.19577241D-04  0.54266859D-08
  0.31184098D-08 -0.16174451D-07 -0.81940572D-08  0.24368508D-07  0.14037636D-03
 -0.13266063D-03  0.12320069D-07  0.14060432D-07  0.40889206D-08 -0.18149352D-07
 -0.70508561D-04  0.10178774D-03 -0.16143715D-07 -0.10339896D-07 -0.16975801D-08
  0.12037476D-07  0.35886321D-04 -0.73555479D-04  0.15056038D-07 -0.70616626D-04
  0.20876457D-07 -0.47847129D-07 -0.70782413D-04 -0.45812726D-07  0.11085822D-06
  0.28263229D-03 -0.16816644D-07  0.32683171D-07 -0.37891563D-03  0.25073657D-04
 -0.74289661D-08  0.16797549D-07  0.25126909D-04  0.13784640D-07 -0.39831557D-07
 -0.10034788D-03  0.85022584D-08 -0.10561088D-07  0.12036373D-03
MO    2     MO 0.0        OCC NO =    2.0000300  ORB. ENERGY =    0.000000
 -0.44796209D-04 -0.83509157D-04 -0.14114185D-03 -0.21216253D-03 -0.26060367D-03
 -0.21994030D-03 -0.82703297D-04  0.20358467D-07  0.15216693D-06  0.56868256D-06
  0.15865358D-05  0.21255206D-05 -0.25098435D-05 -0.78362626D-05  0.28723667D-04
  0.28469145D-05  0.29008261D-07  0.27197088D-07  0.19365947D-07  0.10974607D-03
  0.10289392D-03  0.73266600D-04 -0.78491290D-05 -0.73590573D-05 -0.52400872D-05
  0.10032615D-06  0.36426611D-03 -0.15185276D-05  0.12754293D-06  0.46430647D-03
  0.90405984D-06  0.24998724D-08  0.93865609D-05 -0.43085125D-07  0.65742157D-04
 -0.67036763D-04  0.12946061D-05 -0.10557310D-06 -0.16327054D-06 -0.50919939D-03
  0.19536854D-03 -0.19262144D-03 -0.27470942D-05 -0.24520357D-07 -0.42851844D-07
  0.96052895D-04  0.40824164D-04 -0.41642020D-04  0.81785617D-06 -0.20619293D-07
 -0.32164291D-07 -0.66581829D-04  0.29748935D-07  0.92489051D-04  0.14416723D-05
  0.19618141D-07  0.93992892D-04  0.24224696D-04 -0.10886495D-06 -0.37146004D-03
 -0.28549713D-04 -0.16980154D-06  0.19153274D-08 -0.28148391D-04 -0.43639581D-06
 -0.16863490D-07 -0.23299210D-04  0.49405821D-04  0.11117508D-07  0.10774438D-03
 -0.48096634D-04  0.36307758D-07 -0.40590114D-04 -0.73205942D-04 -0.10794212D-03
  0.35572282D-03  0.11231906D-02 -0.12078511D-04  0.13728821D-07  0.70324443D-04
  0.23410361D-04  0.95738297D-07  0.28808127D-03  0.26447398D-03  0.37000054D-07
  0.17218642D-03  0.20633915D-04 -0.10987822D-03  0.44416632D-04  0.65461589D-04
  0.96673012D-07  0.92785086D-07  0.29682477D-03 -0.43206420D-04 -0.11588420D-04
  0.54794840D-04  0.17925296D-07  0.47530314D-07  0.31283788D-04  0.20051554D-04
  0.36163804D-04  0.53323508D-04 -0.19759704D-03 -0.56623715D-03  0.58494323D-05
 -0.30405304D-04  0.21712317D-04 -0.12762197D-04 -0.91379177D-04  0.13580276D-03
 -0.13599964D-03 -0.42510355D-04  0.99958335D-04 -0.11609118D-04  0.91276317D-05
  0.25622555D-04 -0.34750187D-04  0.79828944D-04 -0.14930314D-03  0.37339000D-04
  0.21137008D-04  0.73892397D-05 -0.28526247D-04  0.26284354D-04  0.12558931D-04
  0.52929342D-04  0.20061635D-04  0.36181984D-04  0.53350314D-04 -0.19769081D-03
 -0.56652704D-03  0.58527856D-05  0.30422064D-04  0.21713077D-04 -0.12778733D-04
  0.91434996D-04  0.13580476D-03 -0.13610326D-03  0.42575785D-04  0.99960272D-04
 -0.11630597D-04  0.91574619D-05  0.25662979D-04 -0.34820441D-04 -0.79836908D-04
  0.14934526D-03  0.37375543D-04  0.21129061D-04  0.74068537D-05 -0.28535915D-04
 -0.26277579D-04 -0.12569352D-04  0.52938212D-04 -0.41550561D-04 -0.77736666D-04
 -0.13431172D-03 -0.21773507D-03 -0.33065160D-03 -0.45957462D-03 -0.54639901D-03
 -0.48675122D-03 -0.24173095D-03 -0.38916638D-04 -0.41059352D-06 -0.19770774D-06
 -0.65951991D-05 -0.22982948D-04 -0.82765318D-04 -0.18244584D-03 -0.25682486D-03
  0.12251383D-04  0.33609994D-03  0.19873379D-03 -0.64861560D-09 -0.78563188D-08
 -0.16383525D-07 -0.46985096D-07 -0.24398706D-08  0.20262252D-06  0.52353768D-06
 -0.42655386D-06  0.12620878D-04 -0.62638269D-05 -0.26762313D-06  0.31815522D-02
  0.41908485D-02  0.46231619D-02  0.38398980D-02  0.20390924D-02  0.52609649D-03
  0.11610423D+02  0.15293643D+02  0.16871283D+02  0.14012921D+02  0.74412500D+01
  0.19198814D+01 -0.84776328D-01 -0.11167026D+00 -0.12318977D+00 -0.10231875D+00
 -0.54334096D-01 -0.14018481D-01 -0.12585670D-06  0.12167016D-05  0.17156762D-05
  0.24538709D-05 -0.12426057D-07 -0.22504310D-05 -0.45948018D-03  0.44419587D-02
  0.62636255D-02  0.89586414D-02 -0.45365299D-04 -0.82159191D-02  0.35018419D-05
 -0.33853554D-04 -0.47737045D-04 -0.68276602D-04  0.34574310D-06  0.62616084D-04
  0.21003128D-04  0.76651736D-01 -0.56422408D-03 -0.17619827D-06 -0.64331189D-03
  0.61884714D-05 -0.15886684D-07 -0.57949773D-04  0.39420258D-06  0.11426091D-04
 -0.19796850D-04  0.83707592D-05 -0.17836588D-06 -0.27028422D-06 -0.98026070D-03
 -0.35645313D-05  0.68276668D-05 -0.32631355D-05  0.64606027D-07  0.97666902D-07
  0.35614711D-03  0.12618317D-05 -0.15159916D-05  0.25415988D-06 -0.11110645D-07
 -0.17081146D-07 -0.61051188D-04  0.67487171D-08  0.22547842D-05 -0.96229981D-07
 -0.54694870D-08  0.18818569D-05  0.34736540D-04 -0.14776664D-07 -0.86462095D-05
 -0.34447851D-04 -0.10830092D-07  0.26929345D-08  0.14660649D-04  0.48551456D-06
  0.50717705D-08  0.14819576D-04 -0.74404659D-05 -0.13150574D-07 -0.58801522D-04
  0.59839222D-05 -0.24917506D-07  0.79273192D-05  0.14776537D-04  0.25049521D-04
  0.37928363D-04  0.47418808D-04  0.40788678D-04  0.15643336D-04 -0.74179522D-08
 -0.98199798D-07 -0.35667953D-06 -0.10580831D-05 -0.12192271D-05  0.14809329D-05
  0.37101833D-06 -0.25700212D-05 -0.46050455D-05 -0.82964041D-07 -0.81137020D-07
 -0.53610660D-07 -0.29129901D-03 -0.28488407D-03 -0.18823495D-03 -0.17537053D-04
 -0.17150855D-04 -0.11332295D-04 -0.38632134D-08 -0.78793018D-05 -0.12990008D-05
 -0.18007277D-07 -0.67381631D-04 -0.39487699D-05 -0.54473965D-08 -0.19534627D-04
 -0.62950599D-06  0.70928950D-04 -0.72094415D-04  0.11654652D-05 -0.38005283D-07
 -0.60261969D-07 -0.13179724D-03 -0.35624878D-04  0.36024547D-04 -0.39966887D-06
  0.25102715D-07  0.39850471D-07  0.10177015D-03  0.18195973D-04 -0.17874213D-04
 -0.32176055D-06 -0.16479727D-07 -0.25920771D-07 -0.74584771D-04 -0.50351772D-07
 -0.72141108D-04 -0.51350066D-06  0.11717792D-07 -0.72657799D-04 -0.18645972D-03
  0.13933752D-06  0.28908112D-03  0.18800022D-03  0.16130517D-06  0.16701645D-07
  0.25632913D-04  0.83406964D-07 -0.30394739D-08  0.25808478D-04  0.59268556D-04
 -0.47065461D-07 -0.10270722D-03 -0.59518777D-04 -0.55798794D-07
MO    3     MO 0.0        OCC NO =    2.0000210  ORB. ENERGY =    0.000000
 -0.14453439D-01 -0.26944122D-01 -0.45539237D-01 -0.68453967D-01 -0.84083438D-01
 -0.70963455D-01 -0.26684112D-01 -0.38139573D-05 -0.28506968D-04 -0.10653705D-03
 -0.29722178D-03 -0.39819524D-03  0.47019433D-03 -0.87190994D-03 -0.19343572D-02
 -0.82062760D-04  0.20838497D-06  0.19537416D-06  0.13911804D-06  0.37442261D-05
  0.35104500D-05  0.24996495D-05  0.11672177D-02  0.10943408D-02  0.77923582D-03
  0.10487160D-06  0.31875260D-05  0.60719243D-03 -0.66725644D-07 -0.32776823D-05
 -0.37919176D-03  0.82223228D-09 -0.10434677D-07  0.46695162D-05 -0.10495352D-03
 -0.10616826D-03  0.21112178D-03 -0.12196730D-08  0.11299339D-06  0.25209081D-05
 -0.24043158D-04 -0.24114123D-04  0.48157281D-04 -0.11977448D-08  0.25275337D-07
 -0.29539406D-05  0.11229570D-04  0.11615101D-04 -0.22844672D-04  0.16356094D-09
 -0.12030790D-07 -0.74291126D-06 -0.15976171D-07  0.36370063D-04  0.77260449D-05
  0.39631584D-07 -0.10871524D-03 -0.12165211D-04  0.82969287D-08 -0.39494427D-06
 -0.11012923D-04  0.38942412D-07  0.29278318D-08  0.52212893D-04 -0.85667130D-04
  0.82018763D-07 -0.15505686D-03  0.12866044D-03 -0.90802259D-07 -0.15818145D-05
  0.12834095D-03  0.54298926D-07 -0.48329915D-05 -0.87164993D-05 -0.12852473D-04
  0.75254949D-03  0.23278796D-03  0.49670979D-05  0.17050380D-07  0.95439187D-04
  0.26784213D-04  0.25011711D-07  0.20044254D-03 -0.41533327D-05  0.12556581D-07
  0.43892595D-04  0.38108054D-04 -0.73248878D-04  0.55197931D-04  0.18050948D-04
  0.46311056D-07  0.42337612D-07  0.75546936D-04 -0.98859614D-05 -0.12022432D-04
  0.21908394D-04 -0.65834452D-08  0.67796618D-08 -0.34468357D-04 -0.48279244D-05
 -0.87073604D-05 -0.12838998D-04  0.75277977D-03  0.23754212D-03  0.51130415D-05
  0.83105435D-04 -0.48153689D-04  0.29303303D-04  0.17205100D-03 -0.99549032D-04
 -0.42244712D-05  0.38085550D-04 -0.22207107D-04  0.39068947D-04  0.21655105D-04
 -0.42175787D-04  0.20520681D-04 -0.11091720D-03  0.66289489D-04 -0.37687443D-04
 -0.11494419D-04 -0.10074265D-04  0.21568684D-04  0.20672605D-05 -0.29866831D-04
  0.17542572D-04 -0.48277465D-05 -0.87070396D-05 -0.12838525D-04  0.75278342D-03
  0.23754036D-03  0.51130184D-05 -0.83107411D-04 -0.48132778D-04  0.29332918D-04
 -0.17207855D-03 -0.99505943D-04 -0.41619550D-05 -0.38077079D-04 -0.22197507D-04
  0.39082449D-04  0.21660064D-04 -0.42203480D-04  0.20543417D-04  0.11087127D-03
 -0.66300836D-04 -0.37710845D-04 -0.11484327D-04 -0.10073790D-04  0.21558116D-04
 -0.20600516D-05  0.29894473D-04  0.17535666D-04 -0.15460255D+00 -0.28924488D+00
 -0.49975100D+00 -0.81015509D+00 -0.12302982D+01 -0.17099988D+01 -0.20330576D+01
 -0.18111183D+01 -0.89943966D+00 -0.14480218D+00 -0.15277485D-02 -0.72284185D-03
 -0.24112794D-01 -0.84028260D-01 -0.30259937D+00 -0.66704265D+00 -0.93898076D+00
  0.44792443D-01  0.12288194D+01  0.72659321D+00 -0.15531641D-04 -0.18812610D-03
 -0.39231715D-03 -0.11250973D-02 -0.58424735D-04  0.48519651D-02  0.12536546D-01
 -0.10214188D-01  0.46600047D-01 -0.38436384D-03 -0.13197174D-03  0.10527767D-02
  0.13867531D-02  0.15298058D-02  0.12706235D-02  0.67473633D-03  0.17408550D-03
  0.41011772D-01  0.54022098D-01  0.59594831D-01  0.49498173D-01  0.26284903D-01
  0.67816425D-02  0.59412578D+01  0.78260264D+01  0.86333322D+01  0.71706583D+01
  0.38078186D+01  0.98243709D+00 -0.37355034D-07  0.36112444D-06  0.50922315D-06
  0.72832381D-06 -0.36881293D-08 -0.66794163D-06 -0.13913354D-05  0.13450535D-04
  0.18966659D-04  0.27127340D-04 -0.13736903D-06 -0.24878329D-04 -0.21079063D-03
  0.20377882D-02  0.28734941D-02  0.41098567D-02 -0.20811736D-04 -0.37691262D-02
  0.73814171D-05  0.28644782D-03  0.41653017D-01 -0.85889863D-07 -0.31489576D-05
 -0.48392320D-03 -0.17311595D-08 -0.10382710D-06 -0.98415574D-05 -0.74855442D-05
 -0.67561255D-05  0.14241670D-04  0.65697340D-09  0.74251867D-08  0.18397755D-05
 -0.11128155D-03 -0.11154742D-03  0.22282897D-03  0.49295989D-09  0.11881932D-06
  0.34947401D-05 -0.14370897D-04 -0.14275021D-04  0.28645918D-04  0.17682185D-09
  0.15332395D-07  0.71657099D-06  0.12133233D-08 -0.74657074D-05  0.54417132D-05
 -0.97059579D-08  0.21369626D-04 -0.84160058D-05  0.60659881D-08  0.10274956D-05
 -0.79091338D-05 -0.68559076D-08  0.82478583D-08  0.24138363D-05 -0.33736747D-04
  0.11365860D-07 -0.57906198D-05  0.50645299D-04 -0.36109435D-07 -0.14508892D-05
  0.50564943D-04  0.14490124D-08 -0.87935729D-03 -0.16391235D-02 -0.27786795D-02
 -0.42072966D-02 -0.52600474D-02 -0.45245840D-02 -0.17352753D-02 -0.68419085D-06
 -0.90574057D-05 -0.32898146D-04 -0.97591729D-04 -0.11245476D-03  0.13659305D-03
 -0.95957840D-04 -0.15940702D-03  0.12409936D-04  0.66796594D-06  0.65325610D-06
  0.43163393D-06 -0.59458829D-06 -0.58149437D-06 -0.38421791D-06  0.39019789D-02
  0.38160501D-02  0.25214257D-02  0.14971297D-06 -0.11380574D-05  0.87921886D-03
  0.41371289D-08  0.56332851D-06  0.21388503D-04  0.15470126D-08 -0.12175392D-06
  0.93356477D-05 -0.34950659D-04 -0.36337700D-04  0.71288359D-04  0.28584582D-09
  0.36419965D-07  0.14342786D-06  0.20749726D-04  0.21441578D-04 -0.42191304D-04
 -0.13595694D-09 -0.21800483D-07 -0.38696712D-06  0.18260613D-04  0.17973686D-04
 -0.36234299D-04  0.53777410D-10 -0.18097111D-07  0.68032494D-06 -0.99868117D-08
 -0.18539080D-05  0.46417969D-04 -0.14215971D-07  0.10022522D-04 -0.70555541D-04
  0.44176406D-07 -0.44607984D-05 -0.68698365D-04 -0.21848940D-08  0.58607963D-08
  0.54930517D-06 -0.25393062D-04  0.71987968D-08 -0.31937206D-05  0.38366120D-04
 -0.24781186D-07  0.15458051D-05  0.37813065D-04  0.75521896D-09
MO    4     MO 0.0        OCC NO =    2.0000123  ORB. ENERGY =    0.000000
  0.26826350D-01  0.50009721D-01  0.84523242D-01  0.12705420D+00  0.15606333D+00
  0.13171194D+00  0.49527129D-01 -0.14567939D-05 -0.10888632D-04 -0.40693304D-04
 -0.11352798D-03 -0.15209620D-03  0.17959725D-03  0.26462239D-02 -0.36106420D-02
 -0.42238577D-04  0.64782705D-06  0.60737904D-06  0.43249006D-06  0.59821648D-05
  0.56086598D-05  0.39936999D-05  0.36695658D-02  0.34404512D-02  0.24498062D-02
  0.22830918D-06  0.10778082D-04  0.13052633D-02 -0.74185820D-07 -0.46596626D-05
 -0.41701601D-03  0.68378386D-09 -0.44086248D-07  0.37047969D-05 -0.31733685D-03
 -0.32103553D-03  0.63837238D-03 -0.11240355D-08  0.33878027D-06  0.95750951D-05
  0.10621578D-04  0.85831538D-05 -0.19204732D-04 -0.30267862D-08 -0.95893654D-08
 -0.86705025D-05 -0.18171505D-04 -0.17561163D-04  0.35732668D-04  0.98826899D-10
  0.18704052D-07 -0.59784142D-06  0.98773751D-08 -0.41828345D-04  0.22589612D-04
 -0.53747802D-07  0.12696108D-03 -0.36181268D-04  0.24115677D-07 -0.14760455D-05
 -0.31587569D-04 -0.42929477D-07  0.12112982D-07  0.82842291D-04 -0.16373052D-03
  0.13748751D-06 -0.24500357D-03  0.24507102D-03 -0.17382646D-06 -0.35233042D-05
  0.24612053D-03  0.86388454D-07 -0.90125424D-04 -0.16254491D-03 -0.23967238D-03
  0.10288092D-02  0.67782049D-03  0.40890923D-05 -0.17864681D-08 -0.57843575D-04
  0.30319315D-04  0.31401183D-07  0.30963605D-03 -0.46263334D-04  0.27346626D-07
  0.11061998D-03  0.74819745D-04 -0.14111485D-03  0.27835588D-04  0.11327927D-03
  0.67908777D-07  0.10770258D-06  0.13891529D-03 -0.15036741D-04 -0.20651624D-04
  0.35688365D-04 -0.12551974D-07  0.10108620D-07 -0.62781150D-04 -0.90414648D-04
 -0.16306654D-03 -0.24044152D-03  0.10199381D-02  0.68752746D-03  0.43562736D-05
 -0.50249571D-04  0.28502544D-04  0.35157960D-04  0.26160466D-03 -0.15118858D-03
 -0.41599162D-04  0.96204620D-04 -0.55832641D-04  0.76362701D-04 -0.19154008D-04
 -0.10144329D-03  0.12059730D-03 -0.14348055D-03  0.12578480D-03 -0.70954606D-04
 -0.19665959D-04 -0.16193764D-04  0.35859723D-04  0.55406448D-05 -0.54351581D-04
  0.31588065D-04 -0.90414861D-04 -0.16306693D-03 -0.24044209D-03  0.10199429D-02
  0.68753079D-03  0.43560049D-05  0.50269077D-04  0.28489391D-04  0.35139263D-04
 -0.26165938D-03 -0.15112309D-03 -0.41507304D-04 -0.96192181D-04 -0.55808409D-04
  0.76396813D-04 -0.19159876D-04 -0.10147833D-03  0.12063821D-03  0.14341532D-03
 -0.12570342D-03 -0.70973093D-04 -0.19648067D-04 -0.16192594D-04  0.35840661D-04
 -0.55272154D-05  0.54399751D-04  0.31576497D-04  0.91313791D-01  0.17083836D+00
  0.29517079D+00  0.47850653D+00  0.72665809D+00  0.10099864D+01  0.12007964D+01
  0.10697112D+01  0.53124119D+00  0.85525337D-01  0.90234282D-03  0.42752978D-03
  0.14261678D-01  0.49699092D-01  0.17897448D+00  0.39452696D+00  0.55536663D+00
 -0.26492798D-01 -0.72679368D+00 -0.42974855D+00  0.62780573D-05  0.76042605D-04
  0.15857884D-03  0.45477649D-03  0.23615910D-04 -0.19612168D-02 -0.50674075D-02
  0.41286851D-02 -0.28545079D-01  0.14181635D-02 -0.18175735D-03  0.17614037D-02
  0.23201807D-02  0.25595225D-02  0.21258838D-02  0.11289033D-02  0.29126295D-03
  0.73910263D-01  0.97357106D-01  0.10740013D+00  0.89204216D-01  0.47369914D-01
  0.12221685D-01  0.99143723D+01  0.13059548D+02  0.14406725D+02  0.11965913D+02
  0.63542320D+01  0.16394251D+01 -0.59860706D-07  0.57869479D-06  0.81602006D-06
  0.11671246D-05 -0.59101545D-08 -0.10703633D-05 -0.23294268D-05  0.22519399D-04
  0.31754704D-04  0.45417626D-04 -0.22998847D-06 -0.41652247D-04 -0.33685811D-03
  0.32565274D-02  0.45920436D-02  0.65678371D-02 -0.33258603D-04 -0.60233261D-02
  0.12890549D-04  0.53622387D-03  0.72555287D-01 -0.54014768D-07 -0.22277458D-05
 -0.30637881D-03 -0.67053153D-09 -0.99662442D-07 -0.39565669D-05  0.45386773D-03
  0.45495392D-03 -0.90882165D-03 -0.22945341D-08 -0.48477685D-06 -0.15877920D-04
 -0.30935594D-03 -0.30993411D-03  0.61929004D-03  0.15107318D-08  0.33018654D-06
  0.10235146D-04  0.42344557D-05  0.44312965D-05 -0.86657522D-05  0.10294110D-09
 -0.47765009D-08  0.12374542D-06  0.17945336D-07 -0.14555473D-04 -0.46952565D-04
 -0.40061889D-08  0.43532501D-04  0.69782147D-04 -0.49829820D-07  0.13391721D-06
  0.71075549D-04 -0.15033603D-07  0.15099784D-07  0.47938718D-05 -0.62575525D-04
  0.21446991D-07 -0.11895453D-04  0.93936370D-04 -0.66746344D-07 -0.24861627D-05
  0.93790206D-04  0.33858068D-08 -0.63566056D-02 -0.11848724D-01 -0.20086226D-01