 Entering Gaussian System, Link 0=/home/bruns/programas/chemistry/gaussian/g09/g09
 Input=GAUSSIAN.com
 Output=GAUSSIAN.log
 Initial command:
 /home/bruns/programas/chemistry/gaussian/g09/l1.exe /home/bruns/programas/chemistry/gaussian/work/Gau-77383.inp -scrdir=/home/bruns/programas/chemistry/gaussian/work/
 Entering Link 1 = /home/bruns/programas/chemistry/gaussian/g09/l1.exe PID=     77385.
  
 Copyright (c) 1988,1990,1992,1993,1995,1998,2003,2009,2010,
            Gaussian, Inc.  All Rights Reserved.
  
 This is part of the Gaussian(R) 09 program.  It is based on
 the Gaussian(R) 03 system (copyright 2003, Gaussian, Inc.),
 the Gaussian(R) 98 system (copyright 1998, Gaussian, Inc.),
 the Gaussian(R) 94 system (copyright 1995, Gaussian, Inc.),
 the Gaussian 92(TM) system (copyright 1992, Gaussian, Inc.),
 the Gaussian 90(TM) system (copyright 1990, Gaussian, Inc.),
 the Gaussian 88(TM) system (copyright 1988, Gaussian, Inc.),
 the Gaussian 86(TM) system (copyright 1986, Carnegie Mellon
 University), and the Gaussian 82(TM) system (copyright 1983,
 Carnegie Mellon University). Gaussian is a federally registered
 trademark of Gaussian, Inc.
  
 This software contains proprietary and confidential information,
 including trade secrets, belonging to Gaussian, Inc.
  
 This software is provided under written license and may be
 used, copied, transmitted, or stored only in accord with that
 written license.
  
 The following legend is applicable only to US Government
 contracts under FAR:
  
                    RESTRICTED RIGHTS LEGEND
  
 Use, reproduction and disclosure by the US Government is
 subject to restrictions as set forth in subparagraphs (a)
 and (c) of the Commercial Computer Software - Restricted
 Rights clause in FAR 52.227-19.
  
 Gaussian, Inc.
 340 Quinnipiac St., Bldg. 40, Wallingford CT 06492
  
  
 ---------------------------------------------------------------
 Warning -- This program may not be used in any manner that
 competes with the business of Gaussian, Inc. or will provide
 assistance to any competitor of Gaussian, Inc.  The licensee
 of this program is prohibited from giving any competitor of
 Gaussian, Inc. access to this program.  By using this program,
 the user acknowledges that Gaussian, Inc. is engaged in the
 business of creating and licensing software in the field of
 computational chemistry and represents and warrants to the
 licensee that it is not a competitor of Gaussian, Inc. and that
 it will not use this program in any manner prohibited above.
 ---------------------------------------------------------------
  

 Cite this work as:
 Gaussian 09, Revision B.01,
 M. J. Frisch, G. W. Trucks, H. B. Schlegel, G. E. Scuseria, 
 M. A. Robb, J. R. Cheeseman, G. Scalmani, V. Barone, B. Mennucci, 
 G. A. Petersson, H. Nakatsuji, M. Caricato, X. Li, H. P. Hratchian, 
 A. F. Izmaylov, J. Bloino, G. Zheng, J. L. Sonnenberg, M. Hada, 
 M. Ehara, K. Toyota, R. Fukuda, J. Hasegawa, M. Ishida, T. Nakajima, 
 Y. Honda, O. Kitao, H. Nakai, T. Vreven, J. A. Montgomery, Jr., 
 J. E. Peralta, F. Ogliaro, M. Bearpark, J. J. Heyd, E. Brothers, 
 K. N. Kudin, V. N. Staroverov, T. Keith, R. Kobayashi, J. Normand, 
 K. Raghavachari, A. Rendell, J. C. Burant, S. S. Iyengar, J. Tomasi, 
 M. Cossi, N. Rega, J. M. Millam, M. Klene, J. E. Knox, J. B. Cross, 
 V. Bakken, C. Adamo, J. Jaramillo, R. Gomperts, R. E. Stratmann, 
 O. Yazyev, A. J. Austin, R. Cammi, C. Pomelli, J. W. Ochterski, 
 R. L. Martin, K. Morokuma, V. G. Zakrzewski, G. A. Voth, 
 P. Salvador, J. J. Dannenberg, S. Dapprich, A. D. Daniels, 
 O. Farkas, J. B. Foresman, J. V. Ortiz, J. Cioslowski, 
 and D. J. Fox, Gaussian, Inc., Wallingford CT, 2010.
 
 ******************************************
 Gaussian 09:  EM64L-G09RevB.01 12-Aug-2010
                24-Aug-2020 
 ******************************************
 %nproc=8
 Will use up to    8 processors via shared memory.
 %mem=8GB
 -----------------------------------------------------
 # QCISD aug-cc-pvtz nosymm density=current output=wfn
 -----------------------------------------------------
 1/30=1,38=1/1;
 2/12=2,15=1,17=6,18=5,40=1/2;
 3/5=16,6=1,7=10,11=9,16=1,25=1,30=1,71=1/1,2,3;
 4//1;
 5/5=2,38=5/2;
 8/6=4,9=120000,10=1/1,4;
 9/5=8,15=1/13;
 11/28=-7,31=1,32=3,42=3/11;
 10/5=6,13=10,31=1/2;
 6/7=2,8=2,9=2,10=2,22=-1,31=1/1;
 99/5=1,6=1100,9=1/99;
 ----------------------
 clch3f_ts-wavefunction
 ----------------------
 Symbolic Z-matrix:
 Charge = -1 Multiplicity = 1
 C                     0.00018   0.00003  -0.49771 
 H                     0.00002  -1.05257  -0.63073 
 H                    -0.91131   0.52637  -0.62125 
 H                     0.91175   0.52613  -0.62157 
 Cl                    0.00056   0.00096   1.64472 
 F                    -0.00019  -0.00092  -2.59347 
 
                          Input orientation:                          
 ---------------------------------------------------------------------
 Center     Atomic      Atomic             Coordinates (Angstroms)
 Number     Number       Type             X           Y           Z
 ---------------------------------------------------------------------
      1          6           0        0.000175    0.000029   -0.497709
      2          1           0        0.000019   -1.052570   -0.630726
      3          1           0       -0.911312    0.526365   -0.621245
      4          1           0        0.911750    0.526132   -0.621570
      5         17           0        0.000555    0.000962    1.644718
      6          9           0       -0.000186   -0.000921   -2.593468
 ---------------------------------------------------------------------
                    Distance matrix (angstroms):
                    1          2          3          4          5
     1  C    0.000000
     2  H    1.060970   0.000000
     3  H    1.059764   1.823088   0.000000
     4  H    1.059762   1.823085   1.823062   0.000000
     5  Cl   2.142427   2.507504   2.498427   2.498428   0.000000
     6  F    2.095759   2.226729   2.235586   2.235575   4.238186
                    6
     6  F    0.000000
 Symmetry turned off by external request.
 This structure is nearly, but not quite of a higher symmetry.
 Consider Symm=Loose if the higher symmetry is desired.
 Stoichiometry    CH3ClF(1-)
 Framework group  C1[X(CH3ClF)]
 Deg. of freedom    12
 Full point group                 C1      NOp   1
 Rotational constants (GHZ):    150.8795116      2.2145987      2.2145986
 Standard basis: Aug-CC-pVTZ (5D, 7F)
 Integral buffers will be    131072 words long.
 Raffenetti 1 integral format.
 Two-electron integral symmetry is turned off.
   211 basis functions,   339 primitive gaussians,   244 cartesian basis functions
    18 alpha electrons       18 beta electrons
       nuclear repulsion energy        84.9762756657 Hartrees.
 NAtoms=    6 NActive=    6 NUniq=    6 SFac= 1.00D+00 NAtFMM=   50 NAOKFM=F Big=F
 One-electron integrals computed using PRISM.
 NBasis=   211 RedAO= T  NBF=   211
 NBsUse=   211 1.00D-06 NBFU=   211
 Harris functional with IExCor=  205 diagonalized for initial guess.
 ExpMin= 2.53D-02 ExpMax= 4.56D+05 ExpMxC= 1.44D+03 IAcc=3 IRadAn=         0 AccDes= 0.00D+00
 HarFok:  IExCor=  205 AccDes= 0.00D+00 IRadAn=         0 IDoV= 1
 ScaDFX=  1.000000  1.000000  1.000000  1.000000
 FoFCou: FMM=F IPFlag=           0 FMFlag=      100000 FMFlg1=           0
         NFxFlg=           0 DoJE=T BraDBF=F KetDBF=T FulRan=T
         Omega=  0.000000  0.000000  1.000000  0.000000  0.000000 ICntrl=     500 IOpCl=  0
         NMat0=    1 NMatS0=    1 NMatT0=    0 NMatD0=    1 NMtDS0=    0 NMtDT0=    0
         I1Cent=           4 NGrid=           0.
 Symmetry not used in FoFCou.
 Requested convergence on RMS density matrix=1.00D-08 within 128 cycles.
 Requested convergence on MAX density matrix=1.00D-06.
 Requested convergence on             energy=1.00D-06.
 No special actions if energy rises.
 Keep R1 ints in memory in canonical form, NReq=454274131.
 SCF Done:  E(RHF) =  -598.617114806     A.U. after   12 cycles
             Convg  =    0.9360D-08             -V/T =  2.0001
 ExpMin= 2.53D-02 ExpMax= 4.56D+05 ExpMxC= 1.44D+03 IAcc=3 IRadAn=         5 AccDes= 0.00D+00
 HarFok:  IExCor=  205 AccDes= 0.00D+00 IRadAn=         5 IDoV=-2
 ScaDFX=  1.000000  1.000000  1.000000  1.000000
 DSYEVD returned Info=          93 IAlg= 4 N=    46 NDim=    46 NE2=    21472034 trying DSYEV.
 DSYEVD returned Info=         101 IAlg= 4 N=    50 NDim=    50 NE2=    21472034 trying DSYEV.
 Range of M.O.s used for correlation:     8   211
 NBasis=   211 NAE=    18 NBE=    18 NFC=     7 NFV=     0
 NROrb=    204 NOA=    11 NOB=    11 NVA=   193 NVB=   193

 **** Warning!!: The largest alpha MO coefficient is  0.34631974D+02

 Semi-Direct transformation.
 ModeAB=           2 MOrb=            11 LenV=    1072528222
 LASXX=     44979418 LTotXX=    44979418 LenRXX=    44979418
 LTotAB=    45631872 MaxLAS=    67073160 LenRXY=    67073160
 NonZer=    89958836 LenScr=   135708672 LnRSAI=           0
 LnScr1=           0 LExtra=           0 Total=    247761250
 MaxDsk=          -1 SrtSym=           F ITran=            4
 JobTyp=0 Pass  1:  I=   1 to  11.
 (rs|ai) integrals will be sorted in core.
 Spin components of T(2) and E(2):
     alpha-alpha T2 =       0.2567468954D-01 E2=     -0.8208397123D-01
     alpha-beta  T2 =       0.1452772210D+00 E2=     -0.5099982716D+00
     beta-beta   T2 =       0.2567468954D-01 E2=     -0.8208397123D-01
 ANorm=    0.1093904292D+01
 E2 =    -0.6741662141D+00 EUMP2 =    -0.59929128101984D+03
 R2 and R3 integrals will be kept in memory, NReq=   900794930.
 Iterations=  50 Convergence= 0.100D-07
 Iteration Nr.   1
 **********************
 DD1Dir will call FoFMem   1 times, MxPair=       132
 NAB=    66 NAA=     0 NBB=     0.
 MP4(R+Q)=  0.14441150D-01
 E3=       -0.18708273D-01        EUMP3=      -0.59930998929D+03
 E4(DQ)=   -0.45179831D-03        UMP4(DQ)=   -0.59931044109D+03
 E4(SDQ)=  -0.98165533D-02        UMP4(SDQ)=  -0.59931980585D+03
 DE(Corr)= -0.67843334     E(Corr)=     -599.29554814    
 NORM(A)=   0.10997005D+01
 Iteration Nr.   2
 **********************
 DD1Dir will call FoFMem   1 times, MxPair=       132
 NAB=    66 NAA=     0 NBB=     0.
 DE(Corr)= -0.70063250     E(CORR)=     -599.31774731     Delta=-2.22D-02
 NORM(A)=   0.11070541D+01
 Iteration Nr.   3
 **********************
 DD1Dir will call FoFMem   1 times, MxPair=       132
 NAB=    66 NAA=     0 NBB=     0.
 DE(Corr)= -0.69823572     E(CORR)=     -599.31535052     Delta= 2.40D-03
 NORM(A)=   0.11110385D+01
 Iteration Nr.   4
 **********************
 DD1Dir will call FoFMem   1 times, MxPair=       132
 NAB=    66 NAA=     0 NBB=     0.
 DE(Corr)= -0.70129485     E(CORR)=     -599.31840965     Delta=-3.06D-03
 NORM(A)=   0.11131412D+01
 Iteration Nr.   5
 **********************
 DD1Dir will call FoFMem   1 times, MxPair=       132
 NAB=    66 NAA=     0 NBB=     0.
 DE(Corr)= -0.70188988     E(CORR)=     -599.31900469     Delta=-5.95D-04
 NORM(A)=   0.11141739D+01
 Iteration Nr.   6
 **********************
 DD1Dir will call FoFMem   1 times, MxPair=       132
 NAB=    66 NAA=     0 NBB=     0.
 DE(Corr)= -0.70203697     E(CORR)=     -599.31915177     Delta=-1.47D-04
 NORM(A)=   0.11145011D+01
 Iteration Nr.   7
 **********************
 DD1Dir will call FoFMem   1 times, MxPair=       132
 NAB=    66 NAA=     0 NBB=     0.
 DE(Corr)= -0.70206681     E(CORR)=     -599.31918162     Delta=-2.98D-05
 NORM(A)=   0.11145324D+01
 Iteration Nr.   8
 **********************
 DD1Dir will call FoFMem   1 times, MxPair=       132
 NAB=    66 NAA=     0 NBB=     0.
 DE(Corr)= -0.70208080     E(CORR)=     -599.31919561     Delta=-1.40D-05
 NORM(A)=   0.11145504D+01
 Iteration Nr.   9
 **********************
 DD1Dir will call FoFMem   1 times, MxPair=       132
 NAB=    66 NAA=     0 NBB=     0.
 DE(Corr)= -0.70205746     E(CORR)=     -599.31917227     Delta= 2.33D-05
 NORM(A)=   0.11145537D+01
 Iteration Nr.  10
 **********************
 DD1Dir will call FoFMem   1 times, MxPair=       132
 NAB=    66 NAA=     0 NBB=     0.
 DE(Corr)= -0.70207686     E(CORR)=     -599.31919167     Delta=-1.94D-05
 NORM(A)=   0.11145539D+01
 Iteration Nr.  11
 **********************
 DD1Dir will call FoFMem   1 times, MxPair=       132
 NAB=    66 NAA=     0 NBB=     0.
 DE(Corr)= -0.70206763     E(CORR)=     -599.31918244     Delta= 9.23D-06
 NORM(A)=   0.11145568D+01
 Iteration Nr.  12
 **********************
 DD1Dir will call FoFMem   1 times, MxPair=       132
 NAB=    66 NAA=     0 NBB=     0.
 DE(Corr)= -0.70207140     E(CORR)=     -599.31918620     Delta=-3.76D-06
 NORM(A)=   0.11145572D+01
 Iteration Nr.  13
 **********************
 DD1Dir will call FoFMem   1 times, MxPair=       132
 NAB=    66 NAA=     0 NBB=     0.
 DE(Corr)= -0.70207196     E(CORR)=     -599.31918676     Delta=-5.61D-07
 NORM(A)=   0.11145579D+01
 Iteration Nr.  14
 **********************
 DD1Dir will call FoFMem   1 times, MxPair=       132
 NAB=    66 NAA=     0 NBB=     0.
 DE(Corr)= -0.70207218     E(CORR)=     -599.31918699     Delta=-2.27D-07
 NORM(A)=   0.11145580D+01
 Iteration Nr.  15
 **********************
 DD1Dir will call FoFMem   1 times, MxPair=       132
 NAB=    66 NAA=     0 NBB=     0.
 DE(Corr)= -0.70207209     E(CORR)=     -599.31918690     Delta= 9.28D-08
 NORM(A)=   0.11145579D+01
 Iteration Nr.  16
 **********************
 DD1Dir will call FoFMem   1 times, MxPair=       132
 NAB=    66 NAA=     0 NBB=     0.
 DE(Corr)= -0.70207229     E(CORR)=     -599.31918710     Delta=-2.03D-07
 NORM(A)=   0.11145578D+01
 Iteration Nr.  17
 **********************
 DD1Dir will call FoFMem   1 times, MxPair=       132
 NAB=    66 NAA=     0 NBB=     0.
 DE(Corr)= -0.70207216     E(CORR)=     -599.31918697     Delta= 1.33D-07
 NORM(A)=   0.11145577D+01
 Iteration Nr.  18
 **********************
 DD1Dir will call FoFMem   1 times, MxPair=       132
 NAB=    66 NAA=     0 NBB=     0.
 DE(Corr)= -0.70207220     E(CORR)=     -599.31918700     Delta=-3.71D-08
 NORM(A)=   0.11145575D+01
 Iteration Nr.  19
 **********************
 DD1Dir will call FoFMem   1 times, MxPair=       132
 NAB=    66 NAA=     0 NBB=     0.
 DE(Corr)= -0.70207214     E(CORR)=     -599.31918695     Delta= 5.39D-08
 NORM(A)=   0.11145574D+01
 Iteration Nr.  20
 **********************
 DD1Dir will call FoFMem   1 times, MxPair=       132
 NAB=    66 NAA=     0 NBB=     0.
 DE(Corr)= -0.70207215     E(CORR)=     -599.31918695     Delta=-2.92D-09
 NORM(A)=   0.11145574D+01
 Iteration Nr.  21
 **********************
 DD1Dir will call FoFMem   1 times, MxPair=       132
 NAB=    66 NAA=     0 NBB=     0.
 DE(Corr)= -0.70207213     E(CORR)=     -599.31918693     Delta= 2.00D-08
 NORM(A)=   0.11145573D+01
 Iteration Nr.  22
 **********************
 DD1Dir will call FoFMem   1 times, MxPair=       132
 NAB=    66 NAA=     0 NBB=     0.
 DE(Corr)= -0.70207212     E(CORR)=     -599.31918693     Delta= 2.08D-09
 NORM(A)=   0.11145573D+01
 Iteration Nr.  23
 **********************
 DD1Dir will call FoFMem   1 times, MxPair=       132
 NAB=    66 NAA=     0 NBB=     0.
 DE(Corr)= -0.70207212     E(CORR)=     -599.31918692     Delta= 5.40D-09
 NORM(A)=   0.11145573D+01
 Iteration Nr.  24
 **********************
 DD1Dir will call FoFMem   1 times, MxPair=       132
 NAB=    66 NAA=     0 NBB=     0.
 DE(Corr)= -0.70207212     E(CORR)=     -599.31918693     Delta=-7.68D-10
 NORM(A)=   0.11145573D+01
 Iteration Nr.  25
 **********************
 DD1Dir will call FoFMem   1 times, MxPair=       132
 NAB=    66 NAA=     0 NBB=     0.
 DE(Corr)= -0.70207212     E(CORR)=     -599.31918692     Delta= 4.58D-09
 NORM(A)=   0.11145573D+01
 Iteration Nr.  26
 **********************
 DD1Dir will call FoFMem   1 times, MxPair=       132
 NAB=    66 NAA=     0 NBB=     0.
 DE(Corr)= -0.70207212     E(CORR)=     -599.31918692     Delta=-3.79D-09
 NORM(A)=   0.11145573D+01
 Iteration Nr.  27
 **********************
 DD1Dir will call FoFMem   1 times, MxPair=       132
 NAB=    66 NAA=     0 NBB=     0.
 DE(Corr)= -0.70207212     E(CORR)=     -599.31918692     Delta= 3.25D-09
 NORM(A)=   0.11145573D+01
 Iteration Nr.  28
 **********************
 DD1Dir will call FoFMem   1 times, MxPair=       132
 NAB=    66 NAA=     0 NBB=     0.
 DE(Corr)= -0.70207212     E(CORR)=     -599.31918693     Delta=-3.62D-09
 NORM(A)=   0.11145573D+01
 Largest amplitude= 6.60D-02

 Z-AMPLITUDE ITERATIONS

 Iteration Nr.   1
 **********************
 DD1Dir will call FoFMem   1 times, MxPair=       132
 NAB=    66 NAA=     0 NBB=     0.
 DE(Z)  -0.68267608D+00          E(Z)=    -0.59929979088D+03
 NORM(A)=   0.11147167D+01
 Iteration Nr.   2
 **********************
 DD1Dir will call FoFMem   1 times, MxPair=       132
 NAB=    66 NAA=     0 NBB=     0.
 DE(Z)  -0.68269357D+00          E(Z)=    -0.59929980837D+03
 NORM(A)=   0.11139473D+01
 Iteration Nr.   3
 **********************
 DD1Dir will call FoFMem   1 times, MxPair=       132
 NAB=    66 NAA=     0 NBB=     0.
 DE(Z)  -0.68261796D+00          E(Z)=    -0.59929973277D+03
 NORM(A)=   0.11147551D+01
 Iteration Nr.   4
 **********************
 DD1Dir will call FoFMem   1 times, MxPair=       132
 NAB=    66 NAA=     0 NBB=     0.
 DE(Z)  -0.68269583D+00          E(Z)=    -0.59929981064D+03
 NORM(A)=   0.11139045D+01
 Iteration Nr.   5
 **********************
 DD1Dir will call FoFMem   1 times, MxPair=       132
 NAB=    66 NAA=     0 NBB=     0.
 DE(Z)  -0.68261225D+00          E(Z)=    -0.59929972706D+03
 NORM(A)=   0.11079001D+01
 Iteration Nr.   6
 **********************
 DD1Dir will call FoFMem   1 times, MxPair=       132
 NAB=    66 NAA=     0 NBB=     0.
 DE(Z)  -0.68200670D+00          E(Z)=    -0.59929912151D+03
 NORM(A)=   0.11078954D+01
 Iteration Nr.   7
 **********************
 DD1Dir will call FoFMem   1 times, MxPair=       132
 NAB=    66 NAA=     0 NBB=     0.
 DE(Z)  -0.68201030D+00          E(Z)=    -0.59929912511D+03
 NORM(A)=   0.11078893D+01
 Iteration Nr.   8
 **********************
 DD1Dir will call FoFMem   1 times, MxPair=       132
 NAB=    66 NAA=     0 NBB=     0.
 DE(Z)  -0.68200689D+00          E(Z)=    -0.59929912170D+03
 NORM(A)=   0.11078865D+01
 Iteration Nr.   9
 **********************
 DD1Dir will call FoFMem   1 times, MxPair=       132
 NAB=    66 NAA=     0 NBB=     0.
 DE(Z)  -0.68200729D+00          E(Z)=    -0.59929912209D+03
 NORM(A)=   0.11078852D+01
 Iteration Nr.  10
 **********************
 DD1Dir will call FoFMem   1 times, MxPair=       132
 NAB=    66 NAA=     0 NBB=     0.
 DE(Z)  -0.68200701D+00          E(Z)=    -0.59929912182D+03
 NORM(A)=   0.11078848D+01
 Iteration Nr.  11
 **********************
 DD1Dir will call FoFMem   1 times, MxPair=       132
 NAB=    66 NAA=     0 NBB=     0.
 DE(Z)  -0.68200703D+00          E(Z)=    -0.59929912184D+03
 NORM(A)=   0.11078846D+01
 Iteration Nr.  12
 **********************
 DD1Dir will call FoFMem   1 times, MxPair=       132
 NAB=    66 NAA=     0 NBB=     0.
 DE(Z)  -0.68200707D+00          E(Z)=    -0.59929912188D+03
 NORM(A)=   0.11078847D+01
 Iteration Nr.  13
 **********************
 DD1Dir will call FoFMem   1 times, MxPair=       132
 NAB=    66 NAA=     0 NBB=     0.
 DE(Z)  -0.68200713D+00          E(Z)=    -0.59929912193D+03
 NORM(A)=   0.11078847D+01
 Iteration Nr.  14
 **********************
 DD1Dir will call FoFMem   1 times, MxPair=       132
 NAB=    66 NAA=     0 NBB=     0.
 DE(Z)  -0.68200709D+00          E(Z)=    -0.59929912190D+03
 NORM(A)=   0.11078847D+01
 Iteration Nr.  15
 **********************
 DD1Dir will call FoFMem   1 times, MxPair=       132
 NAB=    66 NAA=     0 NBB=     0.
 DE(Z)  -0.68200713D+00          E(Z)=    -0.59929912193D+03
 NORM(A)=   0.11078847D+01
 Iteration Nr.  16
 **********************
 DD1Dir will call FoFMem   1 times, MxPair=       132
 NAB=    66 NAA=     0 NBB=     0.
 DE(Z)  -0.68200712D+00          E(Z)=    -0.59929912193D+03
 NORM(A)=   0.11078847D+01
 Iteration Nr.  17
 **********************
 DD1Dir will call FoFMem   1 times, MxPair=       132
 NAB=    66 NAA=     0 NBB=     0.
 DE(Z)  -0.68200712D+00          E(Z)=    -0.59929912193D+03
 NORM(A)=   0.11078847D+01
 Iteration Nr.  18
 **********************
 DD1Dir will call FoFMem   1 times, MxPair=       132
 NAB=    66 NAA=     0 NBB=     0.
 DE(Z)  -0.68200712D+00          E(Z)=    -0.59929912193D+03
 NORM(A)=   0.11078848D+01
 Iteration Nr.  19
 **********************
 DD1Dir will call FoFMem   1 times, MxPair=       132
 NAB=    66 NAA=     0 NBB=     0.
 DE(Z)  -0.68200712D+00          E(Z)=    -0.59929912193D+03
 NORM(A)=   0.11078847D+01
 Iteration Nr.  20
 **********************
 DD1Dir will call FoFMem   1 times, MxPair=       132
 NAB=    66 NAA=     0 NBB=     0.
 DE(Z)  -0.68200712D+00          E(Z)=    -0.59929912193D+03
 NORM(A)=   0.11078847D+01
 Discarding MO integrals.
          Differentiating once with respect to electric field.
                with respect to dipole field.
          Electric field/nuclear overlap derivatives assumed to be zero.
          Keep R1 ints in memory in canonical form, NReq=448662239.
          There are     1 degrees of freedom in the 1st order CPHF.  IDoFFX=0.
 LinEq1:  Iter=  0 NonCon=     1 RMS=3.11D-03 Max=1.20D-01
 AX will form     1 AO Fock derivatives at one time.
 LinEq1:  Iter=  1 NonCon=     1 RMS=6.94D-04 Max=9.45D-03
 LinEq1:  Iter=  2 NonCon=     1 RMS=2.29D-04 Max=5.73D-03
 LinEq1:  Iter=  3 NonCon=     1 RMS=9.48D-05 Max=1.45D-03
 LinEq1:  Iter=  4 NonCon=     1 RMS=3.84D-05 Max=4.10D-04
 LinEq1:  Iter=  5 NonCon=     1 RMS=1.06D-05 Max=2.27D-04
 LinEq1:  Iter=  6 NonCon=     1 RMS=2.42D-06 Max=4.23D-05
 LinEq1:  Iter=  7 NonCon=     1 RMS=6.07D-07 Max=9.17D-06
 LinEq1:  Iter=  8 NonCon=     1 RMS=1.50D-07 Max=1.80D-06
 LinEq1:  Iter=  9 NonCon=     1 RMS=3.04D-08 Max=7.48D-07
 LinEq1:  Iter= 10 NonCon=     1 RMS=6.55D-09 Max=8.90D-08
 LinEq1:  Iter= 11 NonCon=     1 RMS=1.05D-09 Max=1.16D-08
 LinEq1:  Iter= 12 NonCon=     1 RMS=1.69D-10 Max=2.86D-09
 LinEq1:  Iter= 13 NonCon=     0 RMS=2.41D-11 Max=3.22D-10
 Linear equations converged to 1.000D-10 1.000D-09 after    13 iterations.
 End of Minotr Frequency-dependent properties file   721 does not exist.
 End of Minotr Frequency-dependent properties file   722 does not exist.

 **********************************************************************

            Population analysis using the QCI/CC density.

 **********************************************************************

     Natural Orbital Coefficients:
                           1         2         3         4         5
     Eigenvalues --     2.00003   2.00003   2.00002   2.00001   2.00001
   1 1   C  1S          0.00000  -0.00017  -0.04338   0.07940   0.97626
   2        2S          0.00000  -0.00001   0.00131   0.00051  -0.01332
   3        3S          0.00000  -0.00001  -0.00132   0.00396   0.03984
   4        4S          0.00000   0.00021  -0.01259  -0.02352   0.00332
   5        5S          0.00000   0.00002  -0.00119  -0.00059  -0.00058
   6        6PX         0.00005   0.00000   0.00000   0.00000   0.00000
   7        6PY         0.00000   0.00005   0.00000  -0.00001   0.00000
   8        6PZ         0.00000   0.00000   0.00053   0.00168   0.00088
   9        7PX         0.00084   0.00000   0.00000   0.00000   0.00000
  10        7PY         0.00000   0.00084   0.00000   0.00000   0.00000
  11        7PZ         0.00000   0.00000   0.00141   0.00305  -0.00092
  12        8PX         0.00454   0.00000   0.00000   0.00000   0.00000
  13        8PY         0.00000   0.00452  -0.00003  -0.00006   0.00000
  14        8PZ         0.00000   0.00007  -0.00370  -0.00406  -0.00313
  15        9PX         0.00043   0.00000   0.00000   0.00000   0.00000
  16        9PY         0.00000   0.00043   0.00000  -0.00001   0.00000
  17        9PZ         0.00000   0.00000   0.00021   0.00017  -0.00049
  18       10D 0        0.00000   0.00000   0.00011   0.00033  -0.00057
  19       10D+1       -0.00015   0.00000   0.00000   0.00000   0.00000
  20       10D-1        0.00000  -0.00015   0.00000   0.00000   0.00001
  21       10D+2        0.00000   0.00004   0.00000   0.00000   0.00000
  22       10D-2        0.00004   0.00000   0.00000   0.00000   0.00000
  23       11D 0        0.00000  -0.00001   0.00021  -0.00010  -0.00031
  24       11D+1        0.00026   0.00000   0.00000   0.00000   0.00000
  25       11D-1        0.00000   0.00024  -0.00001  -0.00002  -0.00002
  26       11D+2        0.00000   0.00100   0.00000   0.00000   0.00000
  27       11D-2        0.00100   0.00000   0.00000   0.00000   0.00000
  28       12D 0        0.00000   0.00000  -0.00078   0.00124  -0.00235
  29       12D+1       -0.00131   0.00000   0.00000   0.00000   0.00000
  30       12D-1        0.00000  -0.00133  -0.00001  -0.00002   0.00001
  31       12D+2        0.00000   0.00159  -0.00001  -0.00002   0.00000
  32       12D-2        0.00160   0.00000   0.00000   0.00000   0.00000
  33       13F 0        0.00000   0.00000   0.00001   0.00003   0.00020
  34       13F+1       -0.00019   0.00000   0.00000   0.00000   0.00000
  35       13F-1        0.00000  -0.00019   0.00000   0.00000   0.00000
  36       13F+2        0.00000   0.00001   0.00000   0.00000   0.00000
  37       13F-2        0.00002   0.00000   0.00000   0.00000   0.00000
  38       13F+3        0.00000   0.00000   0.00000   0.00000   0.00000
  39       13F-3        0.00000   0.00000  -0.00006   0.00007   0.00090
  40       14F 0        0.00000   0.00001  -0.00112  -0.00215  -0.00020
  41       14F+1        0.00058   0.00000   0.00000   0.00000   0.00000
  42       14F-1        0.00000   0.00057   0.00000   0.00000   0.00000
  43       14F+2        0.00000   0.00033   0.00000  -0.00001  -0.00002
  44       14F-2        0.00035   0.00000   0.00000   0.00000   0.00000
  45       14F+3        0.00000   0.00000   0.00000   0.00000   0.00000
  46       14F-3        0.00000   0.00002  -0.00086  -0.00134  -0.00188
  47 2   H  1S          0.00000  -0.00016  -0.00002  -0.00035  -0.00134
  48        2S          0.00000   0.00113   0.00243   0.00331  -0.00071
  49        3S          0.00000   0.00859   0.00176   0.00518  -0.00438
  50        4S          0.00000  -0.00026   0.00011   0.00008  -0.00013
  51        5PX         0.00000   0.00000   0.00000   0.00000   0.00000
  52        5PY         0.00000   0.00003   0.00004  -0.00003  -0.00048
  53        5PZ         0.00000   0.00001   0.00001   0.00001  -0.00009
  54        6PX         0.00018   0.00000   0.00000   0.00000   0.00000
  55        6PY         0.00000   0.00065   0.00046   0.00071  -0.00080
  56        6PZ         0.00000   0.00060   0.00000  -0.00010   0.00022
  57        7PX         0.00090   0.00000   0.00000   0.00000   0.00000
  58        7PY         0.00000   0.00208   0.00052   0.00133  -0.00103
  59        7PZ         0.00000   0.00026   0.00046   0.00091  -0.00008
  60        8D 0        0.00000   0.00004   0.00001   0.00006   0.00014
  61        8D+1       -0.00001   0.00000   0.00000   0.00000   0.00000
  62        8D-1        0.00000   0.00009   0.00002   0.00004  -0.00004
  63        8D+2        0.00000  -0.00005  -0.00004  -0.00005   0.00028
  64        8D-2        0.00001   0.00000   0.00000   0.00000   0.00000
  65        9D 0        0.00000   0.00039   0.00015   0.00024   0.00062
  66        9D+1        0.00026   0.00000   0.00000   0.00000   0.00000
  67        9D-1        0.00000   0.00012  -0.00014  -0.00026   0.00000
  68        9D+2        0.00000  -0.00013   0.00001   0.00002  -0.00010
  69        9D-2        0.00011   0.00000   0.00000   0.00000   0.00000
  70 3   H  1S         -0.00014   0.00008  -0.00002  -0.00036  -0.00135
  71        2S          0.00102  -0.00063   0.00244   0.00330  -0.00072
  72        3S          0.00748  -0.00435   0.00185   0.00534  -0.00438
  73        4S         -0.00023   0.00013   0.00011   0.00010  -0.00014
  74        5PX         0.00003  -0.00001   0.00004  -0.00002  -0.00042
  75        5PY        -0.00001   0.00001  -0.00002   0.00001   0.00024
  76        5PZ         0.00001  -0.00001   0.00001   0.00002  -0.00009
  77        6PX         0.00054  -0.00021   0.00039   0.00060  -0.00070
  78        6PY        -0.00020   0.00031  -0.00023  -0.00035   0.00040
  79        6PZ         0.00054  -0.00031  -0.00001  -0.00010   0.00025
  80        7PX         0.00179  -0.00052   0.00046   0.00117  -0.00089
  81        7PY        -0.00051   0.00120  -0.00028  -0.00069   0.00051
  82        7PZ         0.00023  -0.00013   0.00047   0.00093  -0.00006
  83        8D 0        0.00003  -0.00002   0.00001   0.00006   0.00014
  84        8D+1        0.00007  -0.00005   0.00002   0.00004  -0.00003
  85        8D-1       -0.00005   0.00001  -0.00001  -0.00002   0.00002
  86        8D+2        0.00003  -0.00001   0.00002   0.00003  -0.00014
  87        8D-2       -0.00003   0.00003  -0.00004  -0.00005   0.00024
  88        9D 0        0.00034  -0.00020   0.00015   0.00025   0.00062
  89        9D+1        0.00016   0.00005  -0.00012  -0.00022   0.00001
  90        9D-1        0.00005   0.00022   0.00007   0.00013  -0.00001
  91        9D+2        0.00010   0.00005  -0.00001  -0.00001   0.00005
  92        9D-2       -0.00007   0.00010   0.00001   0.00002  -0.00008
  93 4   H  1S          0.00014   0.00008  -0.00002  -0.00036  -0.00135
  94        2S         -0.00102  -0.00063   0.00244   0.00330  -0.00072
  95        3S         -0.00748  -0.00435   0.00185   0.00534  -0.00438
  96        4S          0.00023   0.00013   0.00011   0.00010  -0.00014
  97        5PX         0.00003   0.00001  -0.00004   0.00002   0.00042
  98        5PY         0.00001   0.00001  -0.00002   0.00001   0.00024
  99        5PZ        -0.00001  -0.00001   0.00001   0.00002  -0.00009
 100        6PX         0.00054   0.00021  -0.00039  -0.00060   0.00070
 101        6PY         0.00020   0.00031  -0.00023  -0.00035   0.00040
 102        6PZ        -0.00054  -0.00031  -0.00001  -0.00010   0.00025
 103        7PX         0.00179   0.00052  -0.00046  -0.00117   0.00089
 104        7PY         0.00051   0.00120  -0.00028  -0.00069   0.00051
 105        7PZ        -0.00023  -0.00013   0.00047   0.00093  -0.00006
 106        8D 0       -0.00003  -0.00002   0.00001   0.00006   0.00014
 107        8D+1        0.00007   0.00005  -0.00002  -0.00004   0.00003
 108        8D-1        0.00005   0.00001  -0.00001  -0.00002   0.00002
 109        8D+2       -0.00003  -0.00001   0.00002   0.00003  -0.00014
 110        8D-2       -0.00003  -0.00003   0.00004   0.00005  -0.00024
 111        9D 0       -0.00034  -0.00020   0.00015   0.00025   0.00062
 112        9D+1        0.00016  -0.00005   0.00012   0.00022  -0.00001
 113        9D-1       -0.00005   0.00022   0.00007   0.00013  -0.00001
 114        9D+2       -0.00010   0.00005  -0.00001  -0.00001   0.00005
 115        9D-2       -0.00007  -0.00010  -0.00001  -0.00002   0.00008
 116 5   Cl 1S          0.00000   0.00001  -0.25074   0.14777  -0.02270
 117        2S          0.00000  -0.00003   0.84640  -0.49951   0.07781
 118        3S          0.00000   0.00001  -0.02310   0.00931  -0.00238
 119        4S          0.00000   0.00000   0.06658  -0.04070   0.00639
 120        5S          0.00000  -0.00003  -0.00213   0.00774   0.00351
 121        6S          0.00000   0.00000  -0.00154  -0.00214   0.00301
 122        7PX         0.97887   0.00013   0.00009   0.00015  -0.00001
 123        7PY        -0.00013   0.97886   0.00135   0.00222   0.00004
 124        7PZ        -0.00017  -0.00260   0.50005   0.83642  -0.04641
 125        8PX        -0.01915   0.00000   0.00000   0.00000   0.00000
 126        8PY         0.00000  -0.01915  -0.00002  -0.00003   0.00000
 127        8PZ         0.00000   0.00006  -0.00876  -0.01403   0.00010
 128        9PX         0.05233   0.00001   0.00001   0.00001   0.00000
 129        9PY        -0.00001   0.05233   0.00008   0.00013   0.00000
 130        9PZ        -0.00001  -0.00014   0.02839   0.04957  -0.00263
 131       10PX        -0.00578   0.00000   0.00000   0.00000   0.00000
 132       10PY         0.00000  -0.00578  -0.00001  -0.00001  -0.00001
 133       10PZ         0.00000   0.00003  -0.00433  -0.00273  -0.00347
 134       11PX        -0.00214   0.00000   0.00000   0.00000   0.00000
 135       11PY         0.00000  -0.00214   0.00000   0.00000   0.00000
 136       11PZ         0.00000   0.00000  -0.00036  -0.00014  -0.00053
 137       12D 0        0.00000   0.00000   0.00001  -0.00051  -0.00017
 138       12D+1       -0.00032   0.00000   0.00000   0.00000   0.00000
 139       12D-1        0.00000  -0.00032   0.00000   0.00000   0.00000
 140       12D+2        0.00000   0.00001   0.00000   0.00000   0.00000
 141       12D-2        0.00001   0.00000   0.00000   0.00000   0.00000
 142       13D 0        0.00000  -0.00001   0.00087   0.00244   0.00042
 143       13D+1        0.00081   0.00000   0.00000   0.00000   0.00000
 144       13D-1        0.00000   0.00081   0.00000   0.00000   0.00000
 145       13D+2        0.00000  -0.00002   0.00000   0.00000   0.00000
 146       13D-2       -0.00002   0.00000   0.00000   0.00000   0.00000
 147       14D 0        0.00000   0.00000   0.00058  -0.00018   0.00080
 148       14D+1       -0.00072   0.00000   0.00000   0.00000   0.00000
 149       14D-1        0.00000  -0.00071   0.00000   0.00001   0.00001
 150       14D+2        0.00000   0.00003   0.00000   0.00000   0.00000
 151       14D-2        0.00003   0.00000   0.00000   0.00000   0.00000
 152       15F 0        0.00000   0.00000   0.00001  -0.00007  -0.00003
 153       15F+1       -0.00001   0.00000   0.00000   0.00000   0.00000
 154       15F-1        0.00000  -0.00001   0.00000   0.00000   0.00000
 155       15F+2        0.00000   0.00003   0.00000   0.00000   0.00000
 156       15F-2        0.00003   0.00000   0.00000   0.00000   0.00000
 157       15F+3        0.00000   0.00000   0.00000   0.00000   0.00000
 158       15F-3        0.00000   0.00000   0.00001   0.00003   0.00000
 159       16F 0        0.00000   0.00000  -0.00031  -0.00059  -0.00032
 160       16F+1       -0.00022   0.00000   0.00000   0.00000   0.00000
 161       16F-1        0.00000  -0.00022   0.00000   0.00000   0.00000
 162       16F+2        0.00000  -0.00003   0.00000   0.00000   0.00000
 163       16F-2       -0.00003   0.00000   0.00000   0.00000   0.00000
 164       16F+3        0.00000   0.00000   0.00000   0.00000   0.00000
 165       16F-3        0.00000   0.00000  -0.00002  -0.00005   0.00002
 166 6   F  1S          0.00000   0.00000  -0.00144  -0.01046  -0.04986
 167        2S          0.00000   0.00000   0.00020   0.00043   0.00081
 168        3S          0.00000   0.00000  -0.00007  -0.00045  -0.00203
 169        4S          0.00000   0.00000  -0.00054  -0.00105   0.00055
 170        5S          0.00000  -0.00001   0.00011  -0.00169   0.00176
 171        6PX        -0.00004   0.00000   0.00000   0.00000   0.00000
 172        6PY         0.00000  -0.00004   0.00000   0.00000   0.00000
 173        6PZ         0.00000   0.00000   0.00058   0.00111   0.00011
 174        7PX        -0.00001   0.00000   0.00000   0.00000   0.00000
 175        7PY         0.00000  -0.00001   0.00000   0.00000   0.00000
 176        7PZ         0.00000   0.00000   0.00069   0.00132   0.00002
 177        8PX        -0.00024   0.00000   0.00000   0.00000   0.00000
 178        8PY         0.00000  -0.00024   0.00000   0.00000   0.00000
 179        8PZ         0.00000   0.00000   0.00008   0.00017   0.00047
 180        9PX        -0.00036   0.00000   0.00000   0.00000   0.00000
 181        9PY         0.00000  -0.00036   0.00000   0.00000   0.00000
 182        9PZ         0.00000   0.00000   0.00017  -0.00009   0.00071
 183       10D 0        0.00000   0.00000   0.00001   0.00001  -0.00002
 184       10D+1       -0.00001   0.00000   0.00000   0.00000   0.00000
 185       10D-1        0.00000  -0.00001   0.00000   0.00000   0.00000
 186       10D+2        0.00000   0.00001   0.00000   0.00000   0.00000
 187       10D-2        0.00001   0.00000   0.00000   0.00000   0.00000
 188       11D 0        0.00000   0.00000  -0.00003  -0.00010   0.00001
 189       11D+1        0.00005   0.00000   0.00000   0.00000   0.00000
 190       11D-1        0.00000   0.00005   0.00000   0.00000   0.00000
 191       11D+2        0.00000  -0.00003   0.00000   0.00000   0.00000
 192       11D-2       -0.00003   0.00000   0.00000   0.00000   0.00000
 193       12D 0        0.00000   0.00000  -0.00019  -0.00012   0.00011
 194       12D+1       -0.00022   0.00000   0.00000   0.00000   0.00000
 195       12D-1        0.00000  -0.00022   0.00000   0.00000   0.00000
 196       12D+2        0.00000   0.00011   0.00000   0.00000   0.00000
 197       12D-2        0.00011   0.00000   0.00000   0.00000   0.00000
 198       13F 0        0.00000   0.00000   0.00001  -0.00001  -0.00004
 199       13F+1        0.00002   0.00000   0.00000   0.00000   0.00000
 200       13F-1        0.00000   0.00002   0.00000   0.00000   0.00000
 201       13F+2        0.00000  -0.00002   0.00000   0.00000   0.00000
 202       13F-2       -0.00002   0.00000   0.00000   0.00000   0.00000
 203       13F+3        0.00000   0.00000   0.00000   0.00000   0.00000
 204       13F-3        0.00000   0.00000   0.00000   0.00000   0.00000
 205       14F 0        0.00000   0.00000  -0.00004   0.00002   0.00013
 206       14F+1       -0.00006   0.00000   0.00000   0.00000   0.00000
 207       14F-1        0.00000  -0.00006   0.00000   0.00000   0.00000
 208       14F+2        0.00000   0.00004   0.00000   0.00000   0.00000
 209       14F-2        0.00004   0.00000   0.00000   0.00000   0.00000
 210       14F+3        0.00000   0.00000   0.00000   0.00000   0.00000
 211       14F-3        0.00000   0.00000   0.00000  -0.00001  -0.00001
                           6         7         8         9        10
     Eigenvalues --     2.00000   2.00000   1.98361   1.97542   1.96949
   1 1   C  1S          0.05048  -0.00046   0.01543  -0.07325  -0.14370
   2        2S         -0.00013  -0.00001  -0.04203   0.19877   0.39720
   3        3S          0.00230  -0.00003  -0.01040   0.04611   0.09610
   4        4S         -0.00682   0.00016   0.00536   0.07893   0.19082
   5        5S         -0.00014   0.00010   0.00780  -0.00689  -0.02881
   6        6PX         0.00000   0.00000   0.00000   0.00000   0.00000
   7        6PY         0.00000   0.00000   0.00004   0.00030   0.00035
   8        6PZ         0.00004   0.00000   0.00651   0.01020  -0.02762
   9        7PX         0.00000   0.00000   0.00000   0.00000   0.00000
  10        7PY        -0.00001   0.00000   0.00011   0.00033   0.00042
  11        7PZ        -0.00075   0.00000   0.00711   0.01774  -0.03295
  12        8PX         0.00000   0.00000   0.00000   0.00000   0.00000
  13        8PY        -0.00001   0.00000   0.00026   0.00013   0.00013
  14        8PZ         0.00520   0.00009   0.01668   0.00583  -0.02290
  15        9PX         0.00000   0.00000   0.00000   0.00000   0.00000
  16        9PY         0.00000   0.00000   0.00001   0.00001   0.00000
  17        9PZ         0.00011   0.00001  -0.00070   0.00035  -0.00404
  18       10D 0        0.00004   0.00000   0.00051  -0.00212  -0.00954
  19       10D+1        0.00000   0.00000   0.00000   0.00000   0.00000
  20       10D-1        0.00000   0.00000  -0.00001   0.00004   0.00009
  21       10D+2        0.00000   0.00000   0.00000   0.00003   0.00003
  22       10D-2        0.00000   0.00000   0.00000   0.00000   0.00000
  23       11D 0       -0.00024  -0.00002  -0.00528   0.00466  -0.01874
  24       11D+1        0.00000   0.00000   0.00000   0.00000  -0.00001
  25       11D-1       -0.00001   0.00000  -0.00008   0.00010   0.00023
  26       11D+2       -0.00001   0.00000   0.00009   0.00004   0.00003
  27       11D-2        0.00000   0.00000   0.00000   0.00000   0.00000
  28       12D 0        0.00028   0.00008   0.00202  -0.00842  -0.01659
  29       12D+1        0.00000   0.00000   0.00000   0.00000  -0.00001
  30       12D-1       -0.00001   0.00000   0.00000  -0.00001   0.00002
  31       12D+2       -0.00001   0.00000   0.00010  -0.00002  -0.00006
  32       12D-2        0.00000   0.00000   0.00000   0.00000   0.00000
  33       13F 0       -0.00007   0.00000   0.00000   0.00244   0.00067
  34       13F+1        0.00000   0.00000   0.00000   0.00000   0.00000
  35       13F-1        0.00000   0.00000   0.00000  -0.00001  -0.00001
  36       13F+2        0.00000   0.00000  -0.00001   0.00002   0.00003
  37       13F-2        0.00000   0.00000   0.00000   0.00000   0.00000
  38       13F+3        0.00000   0.00000   0.00000   0.00000   0.00000
  39       13F-3        0.00001   0.00000  -0.00014   0.00194   0.00397
  40       14F 0        0.00127  -0.00001   0.00473   0.00259  -0.00202
  41       14F+1        0.00000   0.00000   0.00000   0.00000   0.00000
  42       14F-1        0.00000   0.00000   0.00001  -0.00002  -0.00003
  43       14F+2        0.00000   0.00000  -0.00005   0.00003   0.00007
  44       14F-2        0.00000   0.00000   0.00000   0.00000   0.00000
  45       14F+3        0.00000   0.00000   0.00000   0.00000   0.00000
  46       14F-3       -0.00042   0.00003   0.00185  -0.00102   0.00406
  47 2   H  1S         -0.00008   0.00000  -0.00865   0.03681   0.08034
  48        2S          0.00092  -0.00006  -0.01519   0.04344   0.08358
  49        3S          0.00177   0.00004  -0.00043  -0.00486  -0.01210
  50        4S          0.00003   0.00000  -0.00045   0.00053   0.00038
  51        5PX         0.00000   0.00000   0.00000   0.00000   0.00000
  52        5PY         0.00001   0.00000  -0.00109   0.00394   0.00860
  53        5PZ        -0.00004   0.00000   0.00027   0.00098   0.00041
  54        6PX         0.00000   0.00000   0.00000   0.00000   0.00000
  55        6PY         0.00006   0.00000  -0.00068   0.00079   0.00125
  56        6PZ         0.00032  -0.00001  -0.00003   0.00250  -0.00042
  57        7PX         0.00000   0.00000   0.00000   0.00000   0.00000
  58        7PY         0.00043   0.00001   0.00146  -0.00490  -0.01028
  59        7PZ        -0.00055   0.00001  -0.00283  -0.00177  -0.00140
  60        8D 0        0.00006   0.00000   0.00015  -0.00034  -0.00091
  61        8D+1        0.00000   0.00000   0.00000   0.00000   0.00000
  62        8D-1       -0.00001   0.00000  -0.00016   0.00051   0.00027
  63        8D+2       -0.00002   0.00000   0.00003  -0.00053  -0.00137
  64        8D-2        0.00000   0.00000   0.00000   0.00000   0.00000
  65        9D 0        0.00008  -0.00001  -0.00006   0.00122   0.00096
  66        9D+1        0.00000   0.00000   0.00000   0.00000   0.00000
  67        9D-1        0.00014   0.00000  -0.00008   0.00002  -0.00041
  68        9D+2        0.00004   0.00000  -0.00099   0.00224   0.00415
  69        9D-2        0.00000   0.00000   0.00000   0.00000   0.00000
  70 3   H  1S         -0.00008   0.00000  -0.00857   0.03720   0.08063
  71        2S          0.00095  -0.00006  -0.01532   0.04385   0.08382
  72        3S          0.00179   0.00004  -0.00106  -0.00489  -0.01196
  73        4S          0.00003   0.00000  -0.00047   0.00050   0.00039
  74        5PX         0.00001   0.00000  -0.00094   0.00346   0.00748
  75        5PY        -0.00001   0.00000   0.00054  -0.00199  -0.00432
  76        5PZ        -0.00004   0.00000   0.00028   0.00096   0.00035
  77        6PX         0.00006   0.00000  -0.00064   0.00070   0.00104
  78        6PY        -0.00004   0.00000   0.00040  -0.00040  -0.00060
  79        6PZ         0.00032  -0.00001   0.00011   0.00240  -0.00058
  80        7PX         0.00037   0.00001   0.00117  -0.00431  -0.00898
  81        7PY        -0.00022   0.00000  -0.00061   0.00247   0.00515
  82        7PZ        -0.00055   0.00001  -0.00282  -0.00175  -0.00134
  83        8D 0        0.00006   0.00000   0.00014  -0.00035  -0.00091
  84        8D+1       -0.00001   0.00000  -0.00012   0.00043   0.00020
  85        8D-1        0.00000   0.00000   0.00007  -0.00025  -0.00011
  86        8D+2        0.00001   0.00000  -0.00002   0.00027   0.00069
  87        8D-2       -0.00001   0.00000   0.00003  -0.00047  -0.00119
  88        9D 0        0.00008  -0.00001  -0.00005   0.00122   0.00099
  89        9D+1        0.00012   0.00000  -0.00005   0.00003  -0.00034
  90        9D-1       -0.00007   0.00000   0.00002  -0.00001   0.00021
  91        9D+2       -0.00002   0.00000   0.00050  -0.00112  -0.00208
  92        9D-2        0.00003   0.00000  -0.00084   0.00195   0.00360
  93 4   H  1S         -0.00008   0.00000  -0.00857   0.03720   0.08063
  94        2S          0.00095  -0.00006  -0.01532   0.04385   0.08382
  95        3S          0.00179   0.00004  -0.00106  -0.00489  -0.01196
  96        4S          0.00003   0.00000  -0.00047   0.00050   0.00039
  97        5PX        -0.00001   0.00000   0.00094  -0.00346  -0.00749
  98        5PY        -0.00001   0.00000   0.00054  -0.00199  -0.00432
  99        5PZ        -0.00004   0.00000   0.00028   0.00096   0.00035
 100        6PX        -0.00006   0.00000   0.00064  -0.00070  -0.00104
 101        6PY        -0.00004   0.00000   0.00040  -0.00040  -0.00060
 102        6PZ         0.00032  -0.00001   0.00011   0.00240  -0.00058
 103        7PX        -0.00037  -0.00001  -0.00117   0.00431   0.00898
 104        7PY        -0.00022   0.00000  -0.00061   0.00247   0.00514
 105        7PZ        -0.00055   0.00001  -0.00282  -0.00175  -0.00135
 106        8D 0        0.00006   0.00000   0.00014  -0.00035  -0.00091
 107        8D+1        0.00001   0.00000   0.00012  -0.00043  -0.00020
 108        8D-1        0.00000   0.00000   0.00007  -0.00025  -0.00012
 109        8D+2        0.00001   0.00000  -0.00001   0.00027   0.00069
 110        8D-2        0.00001   0.00000  -0.00003   0.00047   0.00119
 111        9D 0        0.00008  -0.00001  -0.00005   0.00122   0.00099
 112        9D+1       -0.00012   0.00000   0.00005  -0.00003   0.00034
 113        9D-1       -0.00007   0.00000   0.00002  -0.00001   0.00021
 114        9D+2       -0.00002   0.00000   0.00050  -0.00112  -0.00208
 115        9D-2       -0.00003   0.00000   0.00084  -0.00195  -0.00360
 116 5   Cl 1S          0.00008   0.99708  -0.00064   0.06652  -0.03471
 117        2S         -0.00009   0.01040   0.00292  -0.25208   0.13046
 118        3S          0.00006   0.00017  -0.00390   0.52503  -0.27762
 119        4S          0.00008   0.00026  -0.00025   0.06433  -0.03741
 120        5S         -0.00182  -0.00020  -0.01229   0.35116  -0.17010
 121        6S         -0.00052  -0.00011  -0.00461   0.02451   0.01133
 122        7PX         0.00000   0.00000   0.00000   0.00000   0.00001
 123        7PY         0.00002   0.00000   0.00000  -0.00003  -0.00005
 124        7PZ         0.00740   0.00016   0.00152   0.00453   0.02869
 125        8PX         0.00000   0.00000   0.00000   0.00000  -0.00001
 126        8PY         0.00000   0.00000  -0.00001   0.00009   0.00011
 127        8PZ         0.00051  -0.00003  -0.00224  -0.00587  -0.07186
 128        9PX         0.00000   0.00000   0.00000   0.00000  -0.00001
 129        9PY         0.00000   0.00000  -0.00001   0.00004   0.00006
 130        9PZ         0.00032   0.00003  -0.00263   0.00075  -0.03129
 131       10PX         0.00000   0.00000   0.00000   0.00000  -0.00001
 132       10PY         0.00001   0.00000   0.00000   0.00006   0.00003
 133       10PZ         0.00097   0.00015   0.00273   0.00308  -0.05226
 134       11PX         0.00000   0.00000   0.00000   0.00000   0.00000
 135       11PY         0.00000   0.00000   0.00000   0.00000  -0.00001
 136       11PZ         0.00003   0.00002  -0.00040   0.00263  -0.00873
 137       12D 0       -0.00003   0.00001  -0.00035   0.00447   0.00452
 138       12D+1        0.00000   0.00000   0.00000   0.00000   0.00000
 139       12D-1        0.00000   0.00000   0.00000  -0.00001  -0.00001
 140       12D+2        0.00000   0.00000   0.00000   0.00000   0.00000
 141       12D-2        0.00000   0.00000   0.00000   0.00000   0.00000
 142       13D 0       -0.00022   0.00000  -0.00163   0.00819   0.00969
 143       13D+1        0.00000   0.00000   0.00000   0.00000   0.00000
 144       13D-1        0.00000   0.00000   0.00000   0.00000   0.00001
 145       13D+2        0.00000   0.00000   0.00000   0.00000   0.00000
 146       13D-2        0.00000   0.00000   0.00000   0.00000   0.00000
 147       14D 0       -0.00014  -0.00004  -0.00184  -0.00019   0.00539
 148       14D+1        0.00000   0.00000   0.00000   0.00000   0.00000
 149       14D-1        0.00000   0.00000   0.00000  -0.00001   0.00002
 150       14D+2        0.00000   0.00000   0.00000   0.00000  -0.00001
 151       14D-2        0.00000   0.00000   0.00000   0.00000   0.00000
 152       15F 0        0.00005   0.00000   0.00023  -0.00180  -0.00191
 153       15F+1        0.00000   0.00000   0.00000   0.00000   0.00000
 154       15F-1        0.00000   0.00000   0.00000   0.00000   0.00000
 155       15F+2        0.00000   0.00000   0.00000   0.00000   0.00000
 156       15F-2        0.00000   0.00000   0.00000   0.00000   0.00000
 157       15F+3        0.00000   0.00000   0.00000   0.00000   0.00000
 158       15F-3       -0.00001   0.00000  -0.00001   0.00002   0.00009
 159       16F 0       -0.00005   0.00001   0.00005  -0.00093  -0.00172
 160       16F+1        0.00000   0.00000   0.00000   0.00000   0.00000
 161       16F-1        0.00000   0.00000   0.00000  -0.00001  -0.00002
 162       16F+2        0.00000   0.00000  -0.00001   0.00000   0.00001
 163       16F-2        0.00000   0.00000   0.00000   0.00000   0.00000
 164       16F+3        0.00000   0.00000   0.00000   0.00000   0.00000
 165       16F-3        0.00003   0.00000   0.00002  -0.00001  -0.00021
 166 6   F  1S          0.97742  -0.00002   0.21188   0.01315   0.02169
 167        2S         -0.01503   0.00000  -0.53158  -0.03404  -0.05749
 168        3S          0.04206   0.00000  -0.16469  -0.01081  -0.01859
 169        4S          0.00193  -0.00001  -0.36873  -0.02365  -0.04410
 170        5S         -0.00085  -0.00006  -0.04531   0.00416   0.00766
 171        6PX         0.00000   0.00000   0.00000   0.00000   0.00002
 172        6PY         0.00000   0.00000   0.00006  -0.00004  -0.00047
 173        6PZ         0.00048   0.00000   0.01343   0.01270   0.08783
 174        7PX         0.00000   0.00000   0.00000   0.00000   0.00002
 175        7PY         0.00000   0.00000   0.00007  -0.00005  -0.00057
 176        7PZ        -0.00013   0.00000   0.01465   0.01551   0.10568
 177        8PX         0.00000   0.00000   0.00000   0.00000   0.00002
 178        8PY         0.00000   0.00000   0.00006  -0.00002  -0.00043
 179        8PZ         0.00240  -0.00001   0.01240   0.01221   0.08399
 180        9PX         0.00000   0.00000   0.00000   0.00000   0.00000
 181        9PY         0.00000   0.00000   0.00003  -0.00001  -0.00014
 182        9PZ        -0.00008  -0.00002   0.00217   0.00313   0.02429
 183       10D 0       -0.00002   0.00000  -0.00013   0.00017   0.00060
 184       10D+1        0.00000   0.00000   0.00000   0.00000   0.00000
 185       10D-1        0.00000   0.00000   0.00000   0.00000   0.00000
 186       10D+2        0.00000   0.00000   0.00000   0.00000   0.00000
 187       10D-2        0.00000   0.00000   0.00000   0.00000   0.00000
 188       11D 0       -0.00003   0.00000  -0.00104   0.00090   0.00275
 189       11D+1        0.00000   0.00000   0.00000   0.00000   0.00000
 190       11D-1        0.00000   0.00000   0.00000   0.00000   0.00000
 191       11D+2        0.00000   0.00000   0.00000   0.00000   0.00000
 192       11D-2        0.00000   0.00000   0.00000   0.00000   0.00000
 193       12D 0        0.00080   0.00000  -0.00055   0.00034   0.00386
 194       12D+1        0.00000   0.00000   0.00000   0.00000   0.00000
 195       12D-1        0.00000   0.00000   0.00000   0.00002   0.00001
 196       12D+2        0.00000   0.00000   0.00000   0.00001   0.00000
 197       12D-2        0.00000   0.00000   0.00000   0.00000   0.00000
 198       13F 0       -0.00006   0.00000  -0.00002   0.00013   0.00027
 199       13F+1        0.00000   0.00000   0.00000   0.00000   0.00000
 200       13F-1        0.00000   0.00000   0.00000   0.00000   0.00000
 201       13F+2        0.00000   0.00000   0.00000   0.00000   0.00000
 202       13F-2        0.00000   0.00000   0.00000   0.00000   0.00000
 203       13F+3        0.00000   0.00000   0.00000   0.00000   0.00000
 204       13F-3        0.00001   0.00000   0.00001   0.00002   0.00003
 205       14F 0        0.00020   0.00000  -0.00039  -0.00007   0.00062
 206       14F+1        0.00000   0.00000   0.00000   0.00000   0.00000
 207       14F-1        0.00000   0.00000   0.00000   0.00000   0.00001
 208       14F+2        0.00000   0.00000   0.00000   0.00000   0.00000
 209       14F-2        0.00000   0.00000   0.00000   0.00000   0.00000
 210       14F+3        0.00000   0.00000   0.00000   0.00000   0.00000
 211       14F-3       -0.00001   0.00000  -0.00007  -0.00006  -0.00009
                          11        12        13        14        15
     Eigenvalues --     1.96437   1.96436   1.95923   1.95918   1.94911
   1 1   C  1S         -0.00026   0.00000   0.00000   0.00017  -0.00177
   2        2S          0.00078   0.00000   0.00000  -0.00051   0.00505
   3        3S          0.00023   0.00000   0.00000  -0.00014   0.00121
   4        4S         -0.00044   0.00000   0.00000   0.00185   0.00871
   5        5S         -0.00007   0.00000   0.00000   0.00025   0.00192
   6        6PX         0.00017   0.09785   0.23102  -0.00002   0.00015
   7        6PY         0.09733  -0.00017   0.00002   0.23117   0.06793
   8        6PZ         0.00041  -0.00002  -0.00004   0.00112   0.00172
   9        7PX         0.00023   0.13107   0.30621  -0.00003   0.00022
  10        7PY         0.13034  -0.00022   0.00003   0.30639   0.09444
  11        7PZ         0.00051  -0.00002  -0.00005   0.00144   0.00245
  12        8PX         0.00017   0.09593   0.23631  -0.00002   0.00017
  13        8PY         0.09571  -0.00016   0.00002   0.23632   0.07294
  14        8PZ         0.00052  -0.00002  -0.00004   0.00118   0.00230
  15        9PX         0.00000  -0.00216   0.01893   0.00000   0.00003
  16        9PY        -0.00223   0.00000   0.00000   0.01901   0.01229
  17        9PZ        -0.00003   0.00000   0.00000   0.00009   0.00007
  18       10D 0       -0.00004   0.00000   0.00000  -0.00004  -0.00031
  19       10D+1       -0.00001  -0.00271  -0.00128   0.00000  -0.00001
  20       10D-1       -0.00277   0.00000   0.00000  -0.00143  -0.00378
  21       10D+2        0.00619  -0.00001   0.00001   0.01480   0.00502
  22       10D-2        0.00001   0.00623   0.01483  -0.00001   0.00001
  23       11D 0       -0.00004   0.00000   0.00000  -0.00020  -0.00157
  24       11D+1       -0.00003  -0.01271   0.00765  -0.00001  -0.00004
  25       11D-1       -0.01297   0.00002  -0.00001   0.00708  -0.01565
  26       11D+2        0.02061  -0.00003   0.00002   0.04519   0.01711
  27       11D-2        0.00003   0.02056   0.04534  -0.00002   0.00003
  28       12D 0       -0.00012   0.00000   0.00000  -0.00009  -0.00079
  29       12D+1       -0.00001  -0.00608   0.00582  -0.00001   0.00000
  30       12D-1       -0.00610   0.00001  -0.00001   0.00528   0.00111
  31       12D+2        0.02023  -0.00003   0.00002   0.03572   0.01023
  32       12D-2        0.00003   0.02000   0.03598  -0.00002   0.00002
  33       13F 0       -0.00001   0.00000   0.00000  -0.00003   0.00006
  34       13F+1        0.00000   0.00025  -0.00201   0.00000   0.00000
  35       13F-1        0.00026   0.00000   0.00000  -0.00199  -0.00223
  36       13F+2       -0.00066   0.00000   0.00000  -0.00017  -0.00035
  37       13F-2        0.00000  -0.00064  -0.00012   0.00000   0.00000
  38       13F+3        0.00000  -0.00001   0.00000   0.00000   0.00000
  39       13F-3        0.00000   0.00000   0.00000   0.00001   0.00010
  40       14F 0        0.00005   0.00000   0.00000  -0.00001   0.00014
  41       14F+1        0.00000   0.00038  -0.00583   0.00000  -0.00002
  42       14F-1        0.00047   0.00000   0.00000  -0.00580  -0.00723
  43       14F+2       -0.00397   0.00001   0.00000  -0.00035  -0.00329
  44       14F-2       -0.00001  -0.00384  -0.00017   0.00000  -0.00001
  45       14F+3        0.00000  -0.00003   0.00001   0.00000   0.00000
  46       14F-3       -0.00009   0.00000   0.00000   0.00015   0.00045
  47 2   H  1S         -0.06695   0.00011  -0.00003  -0.15153  -0.04579
  48        2S         -0.06023   0.00010  -0.00003  -0.15534  -0.04589
  49        3S          0.05800  -0.00009   0.00003   0.11792   0.00515
  50        4S         -0.00579   0.00001   0.00000   0.01739   0.00116
  51        5PX         0.00000   0.00209   0.00435   0.00000   0.00000
  52        5PY        -0.00522   0.00001   0.00000  -0.01238  -0.00352
  53        5PZ        -0.00001   0.00000   0.00000  -0.00294   0.00021
  54        6PX         0.00001   0.00800   0.01361   0.00000   0.00001
  55        6PY         0.00722  -0.00001   0.00000   0.01107   0.00550
  56        6PZ        -0.00270   0.00000   0.00000   0.00023  -0.00115
  57        7PX         0.00002   0.00920   0.01336   0.00000   0.00001
  58        7PY         0.01399  -0.00002   0.00001   0.04541   0.00952
  59        7PZ         0.00103   0.00000   0.00000   0.00786   0.00280
  60        8D 0        0.00040   0.00000   0.00000   0.00137   0.00039
  61        8D+1        0.00000   0.00003   0.00034   0.00000   0.00000
  62        8D-1       -0.00076   0.00000   0.00000  -0.00030  -0.00030
  63        8D+2        0.00060   0.00000   0.00000   0.00193   0.00050
  64        8D-2        0.00000   0.00104   0.00224   0.00000   0.00000
  65        9D 0       -0.00051   0.00000   0.00000   0.00149  -0.00023
  66        9D+1        0.00000  -0.00151   0.00103   0.00000   0.00000
  67        9D-1       -0.00331   0.00001   0.00000   0.00346  -0.00049
  68        9D+2       -0.00160   0.00000   0.00000  -0.00267  -0.00111
  69        9D-2        0.00000   0.00162   0.00289   0.00000   0.00000
  70 3   H  1S          0.03354  -0.05835  -0.13124   0.07575   0.02441
  71        2S          0.03046  -0.05272  -0.13373   0.07691   0.02315
  72        3S         -0.02869   0.05004   0.10317  -0.05968  -0.00338
  73        4S          0.00291  -0.00500   0.01504  -0.00872  -0.00058
  74        5PX         0.00318  -0.00344  -0.00820   0.00725   0.00207
  75        5PY         0.00024   0.00319   0.00726   0.00020  -0.00014
  76        5PZ        -0.00001   0.00002  -0.00243   0.00142   0.00000
  77        6PX         0.00043   0.00739   0.01184   0.00098  -0.00093
  78        6PY         0.00781   0.00037   0.00103   0.01307   0.00430
  79        6PZ         0.00147  -0.00240   0.00034  -0.00009   0.00064
  80        7PX        -0.00193   0.01282   0.03753  -0.01410  -0.00325
  81        7PY         0.01046  -0.00210  -0.01395   0.02134   0.00476
  82        7PZ        -0.00036   0.00056   0.00667  -0.00373  -0.00170
  83        8D 0       -0.00020   0.00035   0.00118  -0.00068  -0.00021
  84        8D+1        0.00034  -0.00056  -0.00010   0.00025   0.00012
  85        8D-1       -0.00018   0.00033   0.00024   0.00017  -0.00010
  86        8D+2        0.00094   0.00019   0.00014   0.00216   0.00059
  87        8D-2        0.00019   0.00072   0.00200   0.00014   0.00002
  88        9D 0        0.00029  -0.00047   0.00127  -0.00074   0.00005
  89        9D+1        0.00078  -0.00288   0.00281  -0.00105  -0.00036
  90        9D-1       -0.00200   0.00078  -0.00106   0.00157  -0.00097
  91        9D+2        0.00085   0.00140   0.00240   0.00148   0.00060
  92        9D-2        0.00140  -0.00080  -0.00128   0.00239   0.00093
  93 4   H  1S          0.03373   0.05824   0.13127   0.07569   0.02458
  94        2S          0.03063   0.05262   0.13376   0.07685   0.02332
  95        3S         -0.02885  -0.04995  -0.10320  -0.05964  -0.00340
  96        4S          0.00292   0.00499  -0.01504  -0.00871  -0.00058
  97        5PX        -0.00319  -0.00344  -0.00820  -0.00724  -0.00208
  98        5PY         0.00024  -0.00319  -0.00725   0.00020  -0.00014
  99        5PZ        -0.00001  -0.00002   0.00243   0.00142   0.00000
 100        6PX        -0.00040   0.00740   0.01184  -0.00098   0.00096
 101        6PY         0.00781  -0.00039  -0.00103   0.01307   0.00430
 102        6PZ         0.00148   0.00239  -0.00034  -0.00009   0.00065
 103        7PX         0.00197   0.01282   0.03753   0.01409   0.00328
 104        7PY         0.01047   0.00206   0.01395   0.02133   0.00477
 105        7PZ        -0.00036  -0.00056  -0.00668  -0.00374  -0.00171
 106        8D 0       -0.00020  -0.00035  -0.00118  -0.00067  -0.00021
 107        8D+1       -0.00034  -0.00055  -0.00010  -0.00025  -0.00012
 108        8D-1       -0.00018  -0.00033  -0.00024   0.00017  -0.00010
 109        8D+2        0.00094  -0.00020  -0.00014   0.00216   0.00059
 110        8D-2       -0.00019   0.00072   0.00200  -0.00015  -0.00002
 111        9D 0        0.00030   0.00047  -0.00127  -0.00074   0.00005
 112        9D+1       -0.00079  -0.00287   0.00281   0.00105   0.00036
 113        9D-1       -0.00201  -0.00078   0.00106   0.00157  -0.00097
 114        9D+2        0.00084  -0.00141  -0.00240   0.00148   0.00059
 115        9D-2       -0.00141  -0.00079  -0.00128  -0.00239  -0.00093
 116 5   Cl 1S         -0.00009   0.00000   0.00000  -0.00009  -0.00035
 117        2S          0.00036   0.00000   0.00000   0.00035   0.00132
 118        3S         -0.00075   0.00000   0.00000  -0.00069  -0.00273
 119        4S         -0.00010   0.00000   0.00000  -0.00010  -0.00042
 120        5S         -0.00058   0.00000   0.00000  -0.00075  -0.00241
 121        6S         -0.00004   0.00000   0.00000  -0.00016  -0.00080
 122        7PX        -0.00002  -0.00881  -0.04365   0.00000   0.00051
 123        7PY        -0.00872   0.00001   0.00000  -0.04378   0.22345
 124        7PZ         0.00006   0.00000   0.00001   0.00012  -0.00111
 125        8PX         0.00004   0.02087   0.10315  -0.00001  -0.00116
 126        8PY         0.02065  -0.00004   0.00001   0.10345  -0.51121
 127        8PZ        -0.00012   0.00000  -0.00002  -0.00021   0.00260
 128        9PX         0.00002   0.00968   0.04771   0.00000  -0.00056
 129        9PY         0.00958  -0.00002   0.00000   0.04784  -0.24695
 130        9PZ        -0.00007   0.00000  -0.00001  -0.00013   0.00130
 131       10PX         0.00002   0.01041   0.05581  -0.00001  -0.00083
 132       10PY         0.01025  -0.00002   0.00001   0.05610  -0.36735
 133       10PZ         0.00004   0.00000  -0.00001   0.00015   0.00283
 134       11PX         0.00000   0.00212   0.00340   0.00000  -0.00014
 135       11PY         0.00214   0.00000   0.00000   0.00342  -0.06204
 136       11PZ         0.00003   0.00000   0.00000   0.00007   0.00090
 137       12D 0        0.00004   0.00000   0.00000   0.00006   0.00018
 138       12D+1        0.00000  -0.00189  -0.00618   0.00000   0.00000
 139       12D-1       -0.00187   0.00000   0.00000  -0.00616   0.00023
 140       12D+2        0.00011   0.00000   0.00000   0.00054   0.00025
 141       12D-2        0.00000   0.00011   0.00054   0.00000   0.00000
 142       13D 0        0.00003   0.00000   0.00000   0.00004   0.00029
 143       13D+1       -0.00001  -0.00291  -0.01096   0.00000   0.00000
 144       13D-1       -0.00287   0.00000   0.00000  -0.01098   0.00067
 145       13D+2        0.00033   0.00000   0.00000   0.00065   0.00057
 146       13D-2        0.00000   0.00032   0.00065   0.00000   0.00000
 147       14D 0        0.00000   0.00000   0.00000  -0.00004   0.00000
 148       14D+1        0.00000   0.00007   0.00006   0.00000   0.00001
 149       14D-1        0.00011   0.00000   0.00000   0.00004   0.00333
 150       14D+2       -0.00066   0.00000   0.00000  -0.00009   0.00009
 151       14D-2        0.00000  -0.00066  -0.00007   0.00000   0.00000
 152       15F 0       -0.00001   0.00000   0.00000  -0.00001  -0.00003
 153       15F+1        0.00000   0.00089   0.00263   0.00000   0.00000
 154       15F-1        0.00088   0.00000   0.00000   0.00263  -0.00141
 155       15F+2       -0.00011   0.00000   0.00000  -0.00034  -0.00010
 156       15F-2        0.00000  -0.00011  -0.00034   0.00000   0.00000
 157       15F+3        0.00000   0.00000   0.00000   0.00000   0.00000
 158       15F-3        0.00000   0.00000   0.00000   0.00000   0.00000
 159       16F 0        0.00000   0.00000   0.00000   0.00001  -0.00005
 160       16F+1        0.00000   0.00059   0.00201   0.00000   0.00000
 161       16F-1        0.00058   0.00000   0.00000   0.00204  -0.00179
 162       16F+2        0.00001   0.00000   0.00000   0.00017  -0.00021
 163       16F-2        0.00000   0.00001   0.00018   0.00000   0.00000
 164       16F+3        0.00000   0.00000   0.00000   0.00000   0.00000
 165       16F-3        0.00000   0.00000   0.00000   0.00001  -0.00001
 166 6   F  1S         -0.00005   0.00000   0.00000  -0.00014   0.00033
 167        2S          0.00012   0.00000   0.00000   0.00037  -0.00073
 168        3S          0.00004   0.00000   0.00000   0.00013  -0.00022
 169        4S          0.00020   0.00000   0.00000   0.00041  -0.00043
 170        5S          0.00008   0.00000   0.00000   0.00019  -0.00012
 171        6PX         0.00057   0.33217  -0.16198   0.00002  -0.00005
 172        6PY         0.33243  -0.00057  -0.00002  -0.16146  -0.02280
 173        6PZ        -0.00087  -0.00006   0.00003  -0.00084  -0.01090
 174        7PX         0.00068   0.39625  -0.19206   0.00002  -0.00006
 175        7PY         0.39654  -0.00068  -0.00002  -0.19143  -0.02699
 176        7PZ        -0.00103  -0.00007   0.00003  -0.00101  -0.01299
 177        8PX         0.00055   0.32039  -0.16157   0.00002  -0.00005
 178        8PY         0.32063  -0.00055  -0.00002  -0.16114  -0.02315
 179        8PZ        -0.00076  -0.00005   0.00003  -0.00072  -0.01067
 180        9PX         0.00017   0.10074  -0.05701   0.00001  -0.00003
 181        9PY         0.10081  -0.00017  -0.00001  -0.05693  -0.01126
 182        9PZ        -0.00022  -0.00002   0.00001  -0.00012  -0.00331
 183       10D 0        0.00000   0.00000   0.00000  -0.00001  -0.00003
 184       10D+1        0.00000   0.00060   0.00009   0.00000   0.00000
 185       10D-1        0.00060   0.00000   0.00000   0.00010   0.00012
 186       10D+2        0.00002   0.00000   0.00000   0.00004   0.00001
 187       10D-2        0.00000   0.00002   0.00004   0.00000   0.00000
 188       11D 0        0.00000   0.00000   0.00000  -0.00002  -0.00007
 189       11D+1        0.00000   0.00242   0.00122   0.00000   0.00000
 190       11D-1        0.00242   0.00000   0.00000   0.00123   0.00060
 191       11D+2        0.00005   0.00000   0.00000   0.00025   0.00018
 192       11D-2        0.00000   0.00005   0.00025   0.00000   0.00000
 193       12D 0        0.00000   0.00000   0.00000  -0.00003  -0.00030
 194       12D+1        0.00001   0.00594  -0.00356   0.00000   0.00000
 195       12D-1        0.00594  -0.00001   0.00000  -0.00357   0.00029
 196       12D+2        0.00006   0.00000   0.00000  -0.00028  -0.00037
 197       12D-2        0.00000   0.00002  -0.00027   0.00000   0.00000
 198       13F 0        0.00000   0.00000   0.00000   0.00000  -0.00001
 199       13F+1        0.00000   0.00022   0.00025   0.00000   0.00000
 200       13F-1        0.00022   0.00000   0.00000   0.00026   0.00006
 201       13F+2        0.00005   0.00000   0.00000   0.00011   0.00006
 202       13F-2        0.00000   0.00006   0.00011   0.00000   0.00000
 203       13F+3        0.00000   0.00000   0.00000   0.00000   0.00000
 204       13F-3        0.00000   0.00000   0.00000   0.00000   0.00000
 205       14F 0        0.00000   0.00000   0.00000   0.00000  -0.00006
 206       14F+1        0.00000   0.00146  -0.00087   0.00000   0.00000
 207       14F-1        0.00145   0.00000   0.00000  -0.00088   0.00000
 208       14F+2       -0.00013   0.00000   0.00000  -0.00024  -0.00016
 209       14F-2        0.00000  -0.00013  -0.00024   0.00000   0.00000
 210       14F+3        0.00000   0.00000   0.00000   0.00000   0.00000
 211       14F-3        0.00000   0.00000   0.00000   0.00000   0.00000
                          16        17        18        19        20
     Eigenvalues --     1.94911   1.94881   1.93534   0.06020   0.02497
   1 1   C  1S          0.00001   0.05355  -0.01548  -0.02464   0.00132
   2        2S         -0.00001  -0.15249   0.05009   0.06870  -0.00503
   3        3S          0.00000  -0.03603   0.01655   0.02516  -0.00284
   4        4S         -0.00003  -0.29058   0.08569  -0.22476   0.01165
   5        5S         -0.00001  -0.05712   0.03910  -0.03025   0.00227
   6        6PX         0.06804  -0.00001  -0.00002   0.00005   0.00007
   7        6PY        -0.00015   0.00319   0.00083  -0.00149   0.15869
   8        6PZ        -0.00002  -0.04542  -0.12884   0.27920   0.00089
   9        7PX         0.09455  -0.00001  -0.00003   0.00008   0.00014
  10        7PY        -0.00021   0.00432   0.00114  -0.00197   0.29476
  11        7PZ        -0.00002  -0.06435  -0.18077   0.44303   0.00154
  12        8PX         0.07276  -0.00001  -0.00001   0.00004   0.00006
  13        8PY        -0.00017   0.00279   0.00106  -0.00088   0.13273
  14        8PZ        -0.00002  -0.06401  -0.07655   0.20210   0.00070
  15        9PX         0.01225   0.00000   0.00000   0.00000   0.00001
  16        9PY        -0.00003   0.00047   0.00015  -0.00022   0.02976
  17        9PZ         0.00000  -0.00120  -0.00165  -0.00016   0.00033
  18       10D 0        0.00000   0.00935  -0.01105  -0.00886   0.00011
  19       10D+1       -0.00373   0.00000   0.00000   0.00000   0.00001
  20       10D-1        0.00001  -0.00017   0.00003   0.00000   0.02549
  21       10D+2       -0.00001   0.00021   0.00003   0.00007   0.00361
  22       10D-2        0.00503   0.00000   0.00000   0.00000   0.00000
  23       11D 0        0.00001   0.04965  -0.04566   0.06723  -0.00168
  24       11D+1       -0.01548   0.00002  -0.00001   0.00002   0.00001
  25       11D-1        0.00003  -0.00052   0.00011  -0.00028   0.05898
  26       11D+2       -0.00004   0.00048   0.00010   0.00036   0.07038
  27       11D-2        0.01708   0.00000   0.00000   0.00000   0.00002
  28       12D 0        0.00000   0.02840  -0.00366  -0.01763   0.00037
  29       12D+1        0.00126   0.00001   0.00000  -0.00001   0.00001
  30       12D-1        0.00000  -0.00008   0.00002   0.00002   0.01835
  31       12D+2       -0.00002   0.00006   0.00012   0.00016   0.01443
  32       12D-2        0.01020   0.00000   0.00000   0.00000   0.00000
  33       13F 0        0.00000  -0.00208  -0.00328  -0.00582  -0.00011
  34       13F+1       -0.00223   0.00000   0.00000   0.00000  -0.00001
  35       13F-1        0.00001  -0.00008  -0.00001   0.00007  -0.00975
  36       13F+2        0.00000  -0.00001   0.00000   0.00001   0.00312
  37       13F-2       -0.00033   0.00000   0.00000   0.00000   0.00000
  38       13F+3        0.00000   0.00000   0.00000   0.00000   0.00000
  39       13F-3        0.00000  -0.00308   0.00114  -0.00054   0.00006
  40       14F 0        0.00000  -0.00555  -0.00086   0.01179  -0.00032
  41       14F+1       -0.00726   0.00000   0.00000   0.00001   0.00000
  42       14F-1        0.00002  -0.00031   0.00002   0.00007  -0.00284
  43       14F+2        0.00000  -0.00008   0.00004  -0.00018  -0.00256
  44       14F-2       -0.00327   0.00000   0.00000   0.00001   0.00000
  45       14F+3       -0.00002  -0.00001   0.00000  -0.00001   0.00000
  46       14F-3        0.00000  -0.01486   0.00914  -0.03831   0.00143
  47 2   H  1S          0.00010  -0.03572   0.02874  -0.00798   0.04456
  48        2S          0.00010  -0.00599   0.02287   0.08010   0.26524
  49        3S         -0.00001   0.02083   0.02071   0.07032   0.16379
  50        4S          0.00000   0.00008   0.00198   0.00742   0.07220
  51        5PX         0.00106   0.00000   0.00000   0.00000   0.00000
  52        5PY         0.00001  -0.00229   0.00252  -0.00222  -0.00885
  53        5PZ         0.00000  -0.00271  -0.00315   0.01425  -0.01229
  54        6PX         0.00376   0.00000   0.00000   0.00001   0.00001
  55        6PY        -0.00001   0.00559  -0.00140   0.00997   0.06027
  56        6PZ         0.00000  -0.00081  -0.01029   0.02888  -0.00501
  57        7PX         0.00292   0.00000   0.00000   0.00000   0.00001
  58        7PY        -0.00002   0.01129  -0.00149   0.01317   0.05009
  59        7PZ        -0.00001   0.00833   0.00311  -0.01366   0.00565
  60        8D 0        0.00000   0.00014  -0.00086   0.00080   0.00250
  61        8D+1       -0.00002   0.00000   0.00000   0.00000   0.00000
  62        8D-1        0.00000  -0.00019  -0.00169   0.00674  -0.00402
  63        8D+2        0.00000   0.00055  -0.00062   0.00190   0.00263
  64        8D-2        0.00060   0.00000   0.00000   0.00000   0.00000
  65        9D 0        0.00000   0.00076  -0.00283   0.00626  -0.00399
  66        9D+1       -0.00117   0.00000   0.00000   0.00000   0.00000
  67        9D-1        0.00000   0.00208  -0.00057  -0.00580   0.01590
  68        9D+2        0.00000   0.00107   0.00034  -0.00128  -0.00976
  69        9D-2        0.00114   0.00000   0.00000   0.00000   0.00001
  70 3   H  1S         -0.04060  -0.03282   0.02896  -0.00708  -0.02004
  71        2S         -0.03997  -0.00245   0.02305   0.08057  -0.13322
  72        3S          0.00476   0.02193   0.02042   0.06905  -0.08484
  73        4S          0.00094   0.00007   0.00189   0.00731  -0.03627
  74        5PX        -0.00244  -0.00177   0.00217  -0.00178   0.00507
  75        5PY         0.00202   0.00108  -0.00123   0.00095   0.00009
  76        5PZ         0.00015  -0.00267  -0.00321   0.01427   0.00614
  77        6PX         0.00516   0.00470  -0.00131   0.00858  -0.02316
  78        6PY        -0.00080  -0.00260   0.00082  -0.00490   0.02109
  79        6PZ        -0.00102  -0.00105  -0.01030   0.02841   0.00257
  80        7PX         0.00804   0.00934  -0.00140   0.01121  -0.02334
  81        7PY        -0.00298  -0.00549   0.00085  -0.00628   0.01151
  82        7PZ         0.00261   0.00807   0.00319  -0.01403  -0.00263
  83        8D 0        0.00035   0.00014  -0.00085   0.00061  -0.00128
  84        8D+1       -0.00023  -0.00017  -0.00148   0.00583   0.00251
  85        8D-1        0.00011   0.00010   0.00085  -0.00337   0.00038
  86        8D+2        0.00003  -0.00024   0.00031  -0.00096   0.00229
  87        8D-2        0.00054   0.00046  -0.00052   0.00161  -0.00013
  88        9D 0       -0.00013   0.00078  -0.00283   0.00614   0.00143
  89        9D+1       -0.00064   0.00173  -0.00047  -0.00507  -0.00485
  90        9D-1       -0.00032  -0.00103   0.00029   0.00290   0.00717
  91        9D+2        0.00096  -0.00055  -0.00017   0.00064  -0.00167
  92        9D-2       -0.00053   0.00097   0.00032  -0.00097   0.00471
  93 4   H  1S          0.04050  -0.03282   0.02896  -0.00708  -0.02007
  94        2S          0.03987  -0.00245   0.02305   0.08057  -0.13337
  95        3S         -0.00475   0.02193   0.02042   0.06905  -0.08493
  96        4S         -0.00094   0.00007   0.00189   0.00731  -0.03632
  97        5PX        -0.00243   0.00177  -0.00217   0.00179  -0.00507
  98        5PY        -0.00202   0.00108  -0.00123   0.00095   0.00008
  99        5PZ        -0.00015  -0.00267  -0.00321   0.01427   0.00615
 100        6PX         0.00515  -0.00470   0.00131  -0.00858   0.02320
 101        6PY         0.00078  -0.00259   0.00082  -0.00490   0.02110
 102        6PZ         0.00102  -0.00105  -0.01030   0.02842   0.00257
 103        7PX         0.00803  -0.00934   0.00140  -0.01122   0.02336
 104        7PY         0.00296  -0.00548   0.00085  -0.00628   0.01152
 105        7PZ        -0.00260   0.00807   0.00319  -0.01403  -0.00264
 106        8D 0       -0.00035   0.00014  -0.00085   0.00061  -0.00128
 107        8D+1       -0.00023   0.00017   0.00148  -0.00583  -0.00252
 108        8D-1       -0.00011   0.00010   0.00085  -0.00337   0.00038
 109        8D+2       -0.00004  -0.00024   0.00031  -0.00096   0.00228
 110        8D-2        0.00054  -0.00046   0.00052  -0.00161   0.00013
 111        9D 0        0.00013   0.00078  -0.00283   0.00614   0.00143
 112        9D+1       -0.00064  -0.00173   0.00047   0.00507   0.00486
 113        9D-1        0.00032  -0.00103   0.00029   0.00290   0.00718
 114        9D+2       -0.00096  -0.00055  -0.00017   0.00065  -0.00167
 115        9D-2       -0.00052  -0.00097  -0.00032   0.00097  -0.00471
 116 5   Cl 1S          0.00000   0.01022   0.00052  -0.01681   0.00000
 117        2S          0.00000  -0.03899  -0.00176   0.05632   0.00004
 118        3S          0.00001   0.08064   0.01145  -0.15699   0.00014
 119        4S          0.00000   0.01244   0.00456  -0.03986  -0.00003
 120        5S          0.00001   0.06889   0.01236  -0.04572  -0.00063
 121        6S          0.00000   0.02020  -0.01251   0.01624  -0.00077
 122        7PX         0.22359   0.00000  -0.00004  -0.00003   0.00001
 123        7PY        -0.00051   0.00696  -0.00024  -0.00033   0.02122
 124        7PZ        -0.00004   0.02654  -0.21009  -0.16359   0.00023
 125        8PX        -0.51153   0.00000   0.00008   0.00006  -0.00002
 126        8PY         0.00116  -0.01589   0.00051   0.00070  -0.03303
 127        8PZ         0.00008  -0.06197   0.46454   0.36115  -0.00047
 128        9PX        -0.24711   0.00000   0.00004   0.00004  -0.00002
 129        9PY         0.00056  -0.00770   0.00023   0.00042  -0.03526
 130        9PZ         0.00004  -0.03092   0.21824   0.20667  -0.00034
 131       10PX        -0.36762  -0.00001   0.00006   0.00001   0.00001
 132       10PY         0.00083  -0.01148   0.00023   0.00008   0.01709
 133       10PZ         0.00006  -0.07191   0.31756   0.02929   0.00073
 134       11PX        -0.06209   0.00000   0.00001   0.00000   0.00000
 135       11PY         0.00014  -0.00200  -0.00002   0.00014   0.00592
 136       11PZ         0.00001  -0.02391   0.04608   0.00726   0.00029
 137       12D 0        0.00000  -0.00472  -0.01243   0.06754  -0.00057
 138       12D+1        0.00021   0.00000   0.00000   0.00002  -0.00003
 139       12D-1        0.00000  -0.00002  -0.00006   0.00018  -0.05800
 140       12D+2        0.00000   0.00001   0.00000   0.00001   0.00073
 141       12D-2        0.00024   0.00000   0.00000   0.00000  -0.00001
 142       13D 0        0.00000  -0.00754  -0.01946   0.09797  -0.00083
 143       13D+1        0.00066   0.00000  -0.00001   0.00003  -0.00004
 144       13D-1        0.00000  -0.00006  -0.00007   0.00036  -0.08671
 145       13D+2        0.00000   0.00002   0.00000   0.00000   0.00118
 146       13D-2        0.00055   0.00000   0.00000   0.00000  -0.00002
 147       14D 0        0.00000   0.00150  -0.01322   0.03016  -0.00020
 148       14D+1        0.00332   0.00000   0.00000   0.00001   0.00000
 149       14D-1       -0.00001   0.00009   0.00000   0.00006  -0.00942
 150       14D+2        0.00000   0.00000  -0.00001   0.00001   0.00022
 151       14D-2        0.00005   0.00000   0.00000   0.00000   0.00000
 152       15F 0        0.00000   0.00099   0.00461  -0.00358   0.00004
 153       15F+1       -0.00141   0.00000   0.00000   0.00000   0.00000
 154       15F-1        0.00000  -0.00003   0.00002  -0.00001   0.00501
 155       15F+2        0.00000  -0.00001   0.00000  -0.00001  -0.00021
 156       15F-2       -0.00011   0.00000   0.00000   0.00000   0.00000
 157       15F+3        0.00000   0.00000   0.00000   0.00000   0.00000
[...]
  82        7PZ        -1.16570   1.92172  -3.00461   0.00002  -0.40158
  83        8D 0       -0.03700   0.00369   0.00884   0.02735   0.00888
  84        8D+1        0.00859  -0.00912  -0.02849   0.00815   0.00903
  85        8D-1       -0.01356  -0.03605  -0.00776  -0.00469   0.00064
  86        8D+2        0.08008   0.07542   0.04950   0.02159   0.01143
  87        8D-2       -0.09664   0.07161   0.03324  -0.03804   0.03012
  88        9D 0       -0.52273  -0.12256   0.40279  -0.13299   0.13873
  89        9D+1       -0.16855   0.28506  -0.05603  -0.04073  -0.15820
  90        9D-1        0.18010   0.21380   0.26115   0.02403  -0.00199
  91        9D+2       -0.32620  -1.00985  -1.37330  -0.34529  -0.49315
  92        9D-2       -0.07120  -1.40385   0.54648   0.62262  -0.12841
  93 4   H  1S         -0.03579   0.00288  -0.00936  -0.00773   0.01314
  94        2S          0.57404   1.65711   2.95829  -0.55457  -1.09842
  95        3S          9.90651  12.11799  24.07841  -3.48730 -13.01237
  96        4S          1.30966  -1.23989  -1.61804  -1.98829  -5.57484
  97        5PX        -0.02718   0.00408   0.10436  -0.07993  -0.07294
  98        5PY         0.00527   0.10904  -0.00028  -0.04710   0.00904
  99        5PZ         0.05983  -0.00686   0.00656   0.03073   0.00527
 100        6PX        -0.62095  -0.25117  -2.12459   0.63345   0.79312
 101        6PY        -0.64960  -1.61157  -0.39033   0.37920  -0.05420
 102        6PZ        -0.32523   0.07740   0.04307  -0.16446  -0.08228
 103        7PX        -0.89404   0.72767  -9.75334   1.73367   4.73796
 104        7PY        -2.68228 -10.04238   0.51203   1.08938  -0.73845
 105        7PZ        -1.16616   1.91990   3.00873  -0.00049  -0.40380
 106        8D 0       -0.03699   0.00369  -0.00884   0.02735   0.00889
 107        8D+1       -0.00864   0.00910  -0.02847  -0.00814  -0.00904
 108        8D-1       -0.01359  -0.03603   0.00773  -0.00470   0.00065
 109        8D+2        0.08014   0.07541  -0.04943   0.02161   0.01139
 110        8D-2        0.09659  -0.07167   0.03326   0.03803  -0.03014
 111        9D 0       -0.52275  -0.12216  -0.40296  -0.13301   0.13882
 112        9D+1        0.16841  -0.28468  -0.05692   0.04077   0.15860
 113        9D-1        0.18010   0.21351  -0.26118   0.02423  -0.00196
 114        9D+2       -0.32643  -1.00992   1.37294  -0.34557  -0.49293
 115        9D-2        0.07130   1.40414   0.54644  -0.62243   0.12839
 116 5   Cl 1S          0.01986  -0.00421   0.00000   0.01156  -0.00008
 117        2S          0.27446  -0.05881   0.00002   0.16017  -0.00116
 118        3S          0.76576  -0.16284   0.00006   0.45135  -0.00304
 119        4S         -0.04066   0.01035   0.00000  -0.01250   0.00042
 120        5S         -4.25702   0.90203  -0.00032  -2.97886   0.02949
 121        6S         -9.71714   1.87149  -0.00066 -13.26577   0.04701
 122        7PX         0.00000   0.00000   0.00043   0.00000   0.00000
 123        7PY        -0.00013   0.00056   0.00000  -0.00013  -0.00312
 124        7PZ        -0.00488   0.00056   0.00000  -0.02303   0.00009
 125        8PX        -0.00001   0.00000   0.01301  -0.00006  -0.00003
 126        8PY        -0.00016   0.01445   0.00000  -0.00225  -0.06079
 127        8PZ        -0.06959   0.00744   0.00000  -0.32212   0.00078
 128        9PX         0.00000   0.00000  -0.00257   0.00001   0.00001
 129        9PY         0.00031  -0.00309   0.00000   0.00048   0.01052
 130        9PZ         0.00324   0.00101   0.00000   0.08075  -0.00043
 131       10PX         0.00103  -0.00020  -0.02341   0.00090   0.00021
 132       10PY         0.01089  -0.03425   0.00000   0.01313   0.42835
 133       10PZ         5.82192  -1.17289   0.00042   5.06862  -0.02258
 134       11PX         0.00027   0.00014  -1.15230   0.00059  -0.00013
 135       11PY        -0.22855  -1.11709  -0.00016   0.01128  -0.25349
 136       11PZ         0.80064  -0.13169   0.00024   3.36861  -0.00492
 137       12D 0        0.06663  -0.01386   0.00000   0.00154   0.00009
 138       12D+1        0.00002  -0.00001   0.03143   0.00000   0.00000
 139       12D-1        0.00606   0.03023   0.00001  -0.00037  -0.00363
 140       12D+2       -0.00171  -0.00812   0.00000   0.00011   0.01216
 141       12D-2        0.00000   0.00001  -0.00822   0.00000   0.00000
 142       13D 0       -0.37945   0.07915   0.00001  -0.06855  -0.00020
 143       13D+1       -0.00011   0.00004  -0.11470  -0.00002   0.00002
 144       13D-1       -0.02189  -0.11128  -0.00002   0.00168   0.02528
 145       13D+2        0.00376   0.01838  -0.00001  -0.00034  -0.04375
 146       13D-2       -0.00001  -0.00003   0.01894   0.00000   0.00000
 147       14D 0       -1.37545   0.27294  -0.00018  -1.24358  -0.00009
 148       14D+1       -0.00045   0.00005   0.28894  -0.00038  -0.00020
 149       14D-1        0.04866   0.28121   0.00005  -0.01134  -0.32716
 150       14D+2       -0.01046  -0.05723   0.00002   0.00025   0.20156
 151       14D-2        0.00002   0.00008  -0.05975   0.00000  -0.00003
 152       15F 0       -0.04214   0.00845   0.00000   0.00119  -0.00040
 153       15F+1       -0.00002   0.00001   0.00317   0.00000  -0.00001
 154       15F-1        0.00052   0.00356   0.00000  -0.00046  -0.01836
 155       15F+2       -0.00137  -0.00838   0.00000  -0.00002   0.01046
 156       15F-2        0.00000   0.00001  -0.00894  -0.00001   0.00000
 157       15F+3        0.00000   0.00000  -0.00069   0.00001   0.00000
 158       15F-3       -0.00910   0.00132   0.00000   0.02259   0.00030
 159       16F 0        0.22940  -0.04572   0.00002   0.08923   0.00148
 160       16F+1        0.00010  -0.00003  -0.01081   0.00004   0.00004
 161       16F-1       -0.00173  -0.01036  -0.00001   0.00206   0.06309
 162       16F+2        0.00803   0.04191   0.00002  -0.00010  -0.04282
 163       16F-2       -0.00001  -0.00003   0.04321   0.00001   0.00001
 164       16F+3        0.00001   0.00001   0.00154  -0.00002  -0.00001
 165       16F-3        0.01893  -0.00266   0.00001  -0.04210  -0.00064
 166 6   F  1S          0.03839  -0.00850   0.00000  -0.02341  -0.00019
 167        2S          0.13436  -0.03014   0.00001  -0.08925  -0.00087
 168        3S         -0.06952   0.01506  -0.00001   0.03752   0.00010
 169        4S         -0.35721   0.08592  -0.00003  -0.00743   0.00442
 170        5S         -0.06782  -0.00040   0.00001  -5.90913   0.04439
 171        6PX         0.00000   0.00000  -0.00750   0.00000   0.00000
 172        6PY        -0.00157  -0.00713   0.00000   0.00005   0.00167
 173        6PZ         0.00539  -0.00108   0.00000   0.00229   0.00004
 174        7PX        -0.00002   0.00000   0.03861   0.00000   0.00000
 175        7PY         0.00807   0.03661   0.00001   0.00001  -0.00608
 176        7PZ        -0.06287   0.01309  -0.00001   0.00231  -0.00033
 177        8PX         0.00014   0.00002  -0.26748  -0.00004   0.00000
 178        8PY        -0.05559  -0.25427  -0.00003  -0.00184   0.00152
 179        8PZ         0.62329  -0.12967   0.00009  -0.24110   0.00618
 180        9PX        -0.00007   0.00014  -0.81871  -0.00043  -0.00011
 181        9PY        -0.16393  -0.80165  -0.00011  -0.00408  -0.22639
 182        9PZ        -0.86436   0.15839   0.00009  -2.48564   0.01851
 183       10D 0        0.01094  -0.00246   0.00001  -0.00813   0.00003
 184       10D+1        0.00000   0.00000  -0.01418   0.00000   0.00000
 185       10D-1       -0.00295  -0.01386   0.00000   0.00000   0.00218
 186       10D+2        0.00124   0.00496   0.00000  -0.00005   0.00285
 187       10D-2        0.00000   0.00000   0.00468   0.00000   0.00000
 188       11D 0       -0.04057   0.00906  -0.00002   0.01631  -0.00006
 189       11D+1       -0.00002   0.00000   0.04565   0.00000   0.00000
 190       11D-1        0.00952   0.04458   0.00001   0.00008  -0.00378
 191       11D+2       -0.00416  -0.01703   0.00000   0.00015  -0.01008
 192       11D-2        0.00001   0.00002  -0.01618   0.00000   0.00000
 193       12D 0        0.40749  -0.08747   0.00007  -0.01258   0.00127
 194       12D+1        0.00014  -0.00002  -0.13616   0.00000  -0.00002
 195       12D-1       -0.02945  -0.12805  -0.00003  -0.00213  -0.03206
 196       12D+2        0.01435   0.06402   0.00001  -0.00094   0.01894
 197       12D-2       -0.00002  -0.00005   0.06139   0.00000   0.00000
 198       13F 0       -0.02667   0.00532   0.00001  -0.00748   0.00002
 199       13F+1       -0.00001   0.00001  -0.01765   0.00000   0.00000
 200       13F-1       -0.00353  -0.01813   0.00000  -0.00003   0.00817
 201       13F+2       -0.00175  -0.00905  -0.00001   0.00011   0.00270
 202       13F-2        0.00000   0.00000  -0.00882   0.00000   0.00000
 203       13F+3        0.00000   0.00000   0.00072   0.00000   0.00000
 204       13F-3        0.01242  -0.00217   0.00000  -0.00150  -0.00017
 205       14F 0        0.06624  -0.01349  -0.00001   0.01159  -0.00003
 206       14F+1        0.00002  -0.00002   0.03837   0.00000  -0.00001
 207       14F-1        0.00757   0.03979   0.00000  -0.00026  -0.01818
 208       14F+2        0.00493   0.02506   0.00002  -0.00032  -0.00657
 209       14F-2        0.00000   0.00000   0.02445   0.00000  -0.00001
 210       14F+3       -0.00001   0.00001  -0.00117   0.00000   0.00000
 211       14F-3       -0.01675   0.00277   0.00000   0.00275   0.00022
                         211
     Eigenvalues --     0.00000
   1 1   C  1S          0.00000
   2        2S          0.00000
   3        3S          0.00000
   4        4S         -0.00003
   5        5S         -0.00004
   6        6PX        -0.00760
   7        6PY         0.00000
   8        6PZ         0.00000
   9        7PX         1.54795
  10        7PY        -0.00077
  11        7PZ        -0.00028
  12        8PX        17.38598
  13        8PY        -0.00877
  14        8PZ        -0.00312
  15        9PX         7.88124
  16        9PY        -0.00400
  17        9PZ        -0.00141
  18       10D 0        0.00000
  19       10D+1       -0.00177
  20       10D-1        0.00000
  21       10D+2        0.00000
  22       10D-2        0.02163
  23       11D 0        0.00007
  24       11D+1       -0.21434
  25       11D-1        0.00003
  26       11D+2       -0.00008
  27       11D-2        0.44039
  28       12D 0        0.00042
  29       12D+1       -1.30552
  30       12D-1        0.00075
  31       12D+2       -0.00015
  32       12D-2       -0.51356
  33       13F 0       -0.00002
  34       13F+1        0.03820
  35       13F-1       -0.00002
  36       13F+2        0.00001
  37       13F-2        0.00980
  38       13F+3        0.00013
  39       13F-3        0.00000
  40       14F 0        0.00018
  41       14F+1       -0.40488
  42       14F-1        0.00023
  43       14F+2       -0.00010
  44       14F-2       -0.08404
  45       14F+3        0.00265
  46       14F-3       -0.00002
  47 2   H  1S          0.00001
  48        2S         -0.00083
  49        3S         -0.00979
  50        4S         -0.00424
  51        5PX         0.05036
  52        5PY         0.00004
  53        5PZ         0.00000
  54        6PX        -0.50085
  55        6PY        -0.00043
  56        6PZ         0.00002
  57        7PX        -3.44147
  58        7PY        -0.00237
  59        7PZ         0.00027
  60        8D 0        0.00000
  61        8D+1        0.00660
  62        8D-1        0.00000
  63        8D+2        0.00002
  64        8D-2        0.02895
  65        9D 0        0.00013
  66        9D+1       -0.10164
  67        9D-1        0.00000
  68        9D+2       -0.00005
  69        9D-2       -0.55895
  70 3   H  1S         -0.02335
  71        2S          1.95692
  72        3S         22.61669
  73        4S          9.67722
  74        5PX        -0.07536
  75        5PY         0.07306
  76        5PZ        -0.00882
  77        6PX         0.87612
  78        6PY        -0.79952
  79        6PZ         0.14294
  80        7PX         4.75660
  81        7PY        -4.73414
  82        7PZ         0.70534
  83        8D 0       -0.01627
  84        8D+1       -0.01014
  85        8D-1        0.00910
  86        8D+2        0.03036
  87        8D-2       -0.02385
  88        9D 0       -0.23110
  89        9D+1        0.18220
  90        9D-1       -0.15948
  91        9D+2       -0.12199
  92        9D-2       -0.34926
  93 4   H  1S          0.02334
  94        2S         -1.95611
  95        3S        -22.60682
  96        4S         -9.67296
  97        5PX        -0.07532
  98        5PY        -0.07305
  99        5PZ         0.00885
 100        6PX         0.87567
 101        6PY         0.79934
 102        6PZ        -0.14319
 103        7PX         4.75395
 104        7PY         4.73349
 105        7PZ        -0.70673
 106        8D 0        0.01627
 107        8D+1       -0.01012
 108        8D-1       -0.00909
 109        8D+2       -0.03039
 110        8D-2       -0.02382
 111        9D 0        0.23089
 112        9D+1        0.18222
 113        9D-1        0.15957
 114        9D+2        0.12226
 115        9D-2       -0.34936
 116 5   Cl 1S          0.00000
 117        2S          0.00000
 118        3S          0.00000
 119        4S          0.00000
 120        5S         -0.00001
 121        6S         -0.00001
 122        7PX        -0.00302
 123        7PY         0.00000
 124        7PZ         0.00000
 125        8PX        -0.05973
 126        8PY         0.00003
 127        8PZ         0.00001
 128        9PX         0.01016
 129        9PY        -0.00001
 130        9PZ         0.00000
 131       10PX         0.42574
 132       10PY        -0.00022
 133       10PZ        -0.00007
 134       11PX        -0.25026
 135       11PY         0.00013
 136       11PZ         0.00004
 137       12D 0        0.00000
 138       12D+1       -0.00351
 139       12D-1        0.00000
 140       12D+2        0.00000
 141       12D-2        0.01236
 142       13D 0       -0.00001
 143       13D+1        0.02508
 144       13D-1        0.00000
 145       13D+2        0.00001
 146       13D-2       -0.04452
 147       14D 0        0.00010
 148       14D+1       -0.32456
 149       14D-1        0.00013
 150       14D+2       -0.00008
 151       14D-2        0.20352
 152       15F 0        0.00001
 153       15F+1       -0.01853
 154       15F-1        0.00001
 155       15F+2       -0.00001
 156       15F-2        0.01062
 157       15F+3       -0.00037
 158       15F-3        0.00000
 159       16F 0       -0.00003
 160       16F+1        0.06293
 161       16F-1       -0.00002
 162       16F+2        0.00002
 163       16F-2       -0.04323
 164       16F+3        0.00080
 165       16F-3       -0.00001
 166 6   F  1S          0.00000
 167        2S          0.00000
 168        3S          0.00000
 169        4S          0.00000
 170        5S         -0.00001
 171        6PX         0.00165
 172        6PY         0.00000
 173        6PZ         0.00000
 174        7PX        -0.00588
 175        7PY         0.00000
 176        7PZ         0.00000
 177        8PX         0.00001
 178        8PY         0.00000
 179        8PZ         0.00000
 180        9PX        -0.22748
 181        9PY         0.00012
 182        9PZ         0.00003
 183       10D 0        0.00000
 184       10D+1        0.00223
 185       10D-1        0.00000
 186       10D+2        0.00000
 187       10D-2        0.00271
 188       11D 0        0.00000
 189       11D+1       -0.00389
 190       11D-1        0.00000
 191       11D+2        0.00000
 192       11D-2       -0.00966
 193       12D 0        0.00001
 194       12D+1       -0.03232
 195       12D-1        0.00001
 196       12D+2       -0.00001
 197       12D-2        0.01778
 198       13F 0        0.00000
 199       13F+1        0.00833
 200       13F-1        0.00000
 201       13F+2        0.00000
 202       13F-2        0.00269
 203       13F+3        0.00012
 204       13F-3        0.00000
 205       14F 0        0.00001
 206       14F+1       -0.01846
 207       14F-1        0.00001
 208       14F+2        0.00000
 209       14F-2       -0.00658
 210       14F+3       -0.00018
 211       14F-3        0.00000
          Condensed to atoms (all electrons):
              1          2          3          4          5          6
     1  C    7.002844  -0.004353  -0.008512  -0.008513  -0.049235  -0.099111
     2  H   -0.004353   0.545051   0.019736   0.019737  -0.019071   0.002800
     3  H   -0.008512   0.019736   0.546485   0.020640  -0.018755   0.004413
     4  H   -0.008513   0.019737   0.020640   0.546484  -0.018755   0.004412
     5  Cl  -0.049235  -0.019071  -0.018755  -0.018755  17.707346   0.026343
     6  F   -0.099111   0.002800   0.004413   0.004412   0.026343   9.908237
 Mulliken atomic charges:
              1
     1  C   -0.833119
     2  H    0.436099
     3  H    0.435992
     4  H    0.435995
     5  Cl  -0.627873
     6  F   -0.847094
 Sum of Mulliken atomic charges =  -1.00000
 Mulliken charges with hydrogens summed into heavy atoms:
              1
     1  C    0.474967
     5  Cl  -0.627873
     6  F   -0.847094
 Sum of Mulliken charges with hydrogens summed into heavy atoms =  -1.00000
 Electronic spatial extent (au):  <R**2>=            490.3541
 Charge=             -1.0000 electrons
 Dipole moment (field-independent basis, Debye):
    X=             -0.0006    Y=              0.0011    Z=              4.0734  Tot=              4.0734
 Quadrupole moment (field-independent basis, Debye-Ang):
   XX=            -28.1825   YY=            -28.1841   ZZ=            -62.8096
   XY=              0.0000   XZ=             -0.0050   YZ=             -0.0009
 Traceless Quadrupole moment (field-independent basis, Debye-Ang):
   XX=             11.5429   YY=             11.5413   ZZ=            -23.0842
   XY=              0.0000   XZ=             -0.0050   YZ=             -0.0009
 Octapole moment (field-independent basis, Debye-Ang**2):
  XXX=             -0.0244  YYY=             -0.9691  ZZZ=             49.8125  XYY=             -0.0086
  XXY=              0.9412  XXZ=             -4.2187  XZZ=             -0.0066  YZZ=              0.0021
  YYZ=             -4.2325  XYZ=             -0.0002
 Hexadecapole moment (field-independent basis, Debye-Ang**3):
 XXXX=            -41.2672 YYYY=            -41.2801 ZZZZ=           -761.7418 XXXY=              0.0004
 XXXZ=             -0.0507 YYYX=             -0.0002 YYYZ=              0.5154 ZZZX=             -0.0657
 ZZZY=             -0.1707 XXYY=            -13.7582 XXZZ=           -103.3915 YYZZ=           -103.3702
 XXYZ=             -0.6834 YYXZ=             -0.0166 ZZXY=              0.0002
 N-N= 8.497627566569D+01 E-N=-1.604162600338D+03  KE= 5.991932759894D+02
 1\1\GINC-TRAPISTA\SP\RQCISD-FC\Aug-CC-pVTZ\C1H3Cl1F1(1-)\BRUNS\24-Aug-
 2020\0\\# QCISD aug-cc-pvtz nosymm density=current output=wfn\\clch3f_
 ts-wavefunction\\-1,1\C,0,0.000175,0.000029,-0.497709\H,0,0.000019,-1.
 05257,-0.630726\H,0,-0.911312,0.526365,-0.621245\H,0,0.91175,0.526132,
 -0.62157\Cl,0,0.000555,0.000962,1.644718\F,0,-0.000186,-0.000921,-2.59
 3468\\Version=EM64L-G09RevB.01\HF=-598.6171148\MP2=-599.291281\MP3=-59
 9.3099893\MP4D=-599.3248822\MP4DQ=-599.3104411\MP4SDQ=-599.3198058\QCI
 SD=-599.3191869\RMSD=9.360e-09\Dipole=0.0002725,0.0008813,1.589602\Qua
 drupole=8.581887,8.5806715,-17.1625584,-0.0000028,-0.0036884,-0.000669
 8\PG=C01 [X(C1H3Cl1F1)]\\@

 Writing a WFN file to GAUSSIAN.wfn.


 IT IS THE GODS' CUSTOM TO BRING LOW ALL THINGS OF SURPASSING GREATNESS.
     -- HERODOTUS
 IT IS THE LOFTY PINE THAT BY THE STORM IS OFTENER TOSSED;
 TOWERS FALL WITH HEAVIER CRASH WHICH HIGHER SOAR.
     -- HORACE
 THE BIGGER THEY COME, THE HARDER THEY FALL.
     -- BOB FITZSIMONS HEAVYWEIGHT CHAMPION, 1897-1899
 Job cpu time:  0 days  3 hours 13 minutes  1.0 seconds.
 File lengths (MBytes):  RWF=  29002 Int=      0 D2E=      0 Chk=      4 Scr=      1
 Normal termination of Gaussian 09 at Mon Aug 24 00:50:25 2020.
