 clch3f_ts-wavefunction
GAUSSIAN            211 MOL ORBITALS    339 PRIMITIVES        6 NUCLEI
  C    1    (CENTRE  1)   0.00033070  0.00005480 -0.94053370  CHARGE =  6.0
  H    2    (CENTRE  2)   0.00003590 -1.98906904 -1.17300214  CHARGE =  1.0
  H    3    (CENTRE  3)  -1.70323284  0.99468570 -1.17398291  CHARGE =  1.0
  H    4    (CENTRE  4)   1.72295780  0.99424539 -1.17459707  CHARGE =  1.0
  Cl   5    (CENTRE  5)   0.00104880  0.00181792  3.10806659  CHARGE = 17.0
  F    6    (CENTRE  6)  -0.00035149 -0.00174044 -4.90094425  CHARGE =  9.0
CENTRE ASSIGNMENTS    1  1  1  1  1  1  1  1  1  1  1  1  1  1  1  1  1  1  1  1
CENTRE ASSIGNMENTS    1  1  1  1  1  1  1  1  1  1  1  1  1  1  1  1  1  1  1  1
CENTRE ASSIGNMENTS    1  1  1  1  1  1  1  1  1  1  1  1  1  1  1  1  1  1  1  1
CENTRE ASSIGNMENTS    1  1  1  1  1  1  1  1  1  1  1  1  2  2  2  2  2  2  2  2
CENTRE ASSIGNMENTS    2  2  2  2  2  2  2  2  2  2  2  2  2  2  2  2  2  2  2  3
CENTRE ASSIGNMENTS    3  3  3  3  3  3  3  3  3  3  3  3  3  3  3  3  3  3  3  3
CENTRE ASSIGNMENTS    3  3  3  3  3  3  4  4  4  4  4  4  4  4  4  4  4  4  4  4
CENTRE ASSIGNMENTS    4  4  4  4  4  4  4  4  4  4  4  4  4  5  5  5  5  5  5  5
CENTRE ASSIGNMENTS    5  5  5  5  5  5  5  5  5  5  5  5  5  5  5  5  5  5  5  5
CENTRE ASSIGNMENTS    5  5  5  5  5  5  5  5  5  5  5  5  5  5  5  5  5  5  5  5
CENTRE ASSIGNMENTS    5  5  5  5  5  5  5  5  5  5  5  5  5  5  5  5  5  5  5  5
CENTRE ASSIGNMENTS    5  5  5  5  5  5  5  5  5  5  5  5  5  5  5  5  5  5  5  5
CENTRE ASSIGNMENTS    5  5  5  5  5  5  5  5  5  5  5  5  5  5  5  5  5  5  5  5
CENTRE ASSIGNMENTS    5  5  5  5  5  5  5  6  6  6  6  6  6  6  6  6  6  6  6  6
CENTRE ASSIGNMENTS    6  6  6  6  6  6  6  6  6  6  6  6  6  6  6  6  6  6  6  6
CENTRE ASSIGNMENTS    6  6  6  6  6  6  6  6  6  6  6  6  6  6  6  6  6  6  6  6
CENTRE ASSIGNMENTS    6  6  6  6  6  6  6  6  6  6  6  6  6  6  6  6  6  6  6
TYPE ASSIGNMENTS      1  1  1  1  1  1  1  1  1  1  1  1  1  1  1  1  2  2  2  3
TYPE ASSIGNMENTS      3  3  4  4  4  2  3  4  2  3  4  2  3  4  5  6  7  8  9 10
TYPE ASSIGNMENTS      5  6  7  8  9 10  5  6  7  8  9 10 11 12 13 17 14 15 18 19
TYPE ASSIGNMENTS     16 20 11 12 13 17 14 15 18 19 16 20  1  1  1  1  1  1  2  3
TYPE ASSIGNMENTS      4  2  3  4  2  3  4  5  6  7  8  9 10  5  6  7  8  9 10  1
TYPE ASSIGNMENTS      1  1  1  1  1  2  3  4  2  3  4  2  3  4  5  6  7  8  9 10
TYPE ASSIGNMENTS      5  6  7  8  9 10  1  1  1  1  1  1  2  3  4  2  3  4  2  3
TYPE ASSIGNMENTS      4  5  6  7  8  9 10  5  6  7  8  9 10  1  1  1  1  1  1  1
TYPE ASSIGNMENTS      1  1  1  1  1  1  1  1  1  1  1  1  1  1  1  1  1  1  1  1
TYPE ASSIGNMENTS      1  1  1  1  2  2  2  2  2  2  3  3  3  3  3  3  4  4  4  4
TYPE ASSIGNMENTS      4  4  2  2  2  2  2  2  3  3  3  3  3  3  4  4  4  4  4  4
TYPE ASSIGNMENTS      2  3  4  2  3  4  2  3  4  5  6  7  8  9 10  5  6  7  8  9
TYPE ASSIGNMENTS     10  5  6  7  8  9 10 11 12 13 17 14 15 18 19 16 20 11 12 13
TYPE ASSIGNMENTS     17 14 15 18 19 16 20  1  1  1  1  1  1  1  1  1  1  1  1  1
TYPE ASSIGNMENTS      1  1  1  2  2  2  3  3  3  4  4  4  2  3  4  2  3  4  2  3
TYPE ASSIGNMENTS      4  5  6  7  8  9 10  5  6  7  8  9 10  5  6  7  8  9 10 11
TYPE ASSIGNMENTS     12 13 17 14 15 18 19 16 20 11 12 13 17 14 15 18 19 16 20
EXPONENTS  0.8236000D+04 0.1235000D+04 0.2808000D+03 0.7927000D+02 0.2559000D+02
EXPONENTS  0.8997000D+01 0.3319000D+01 0.2808000D+03 0.7927000D+02 0.2559000D+02
EXPONENTS  0.8997000D+01 0.3319000D+01 0.3643000D+00 0.9059000D+00 0.1285000D+00
EXPONENTS  0.4402000D-01 0.1871000D+02 0.4133000D+01 0.1200000D+01 0.1871000D+02
EXPONENTS  0.4133000D+01 0.1200000D+01 0.1871000D+02 0.4133000D+01 0.1200000D+01
EXPONENTS  0.3827000D+00 0.3827000D+00 0.3827000D+00 0.1209000D+00 0.1209000D+00
EXPONENTS  0.1209000D+00 0.3569000D-01 0.3569000D-01 0.3569000D-01 0.1097000D+01
EXPONENTS  0.1097000D+01 0.1097000D+01 0.1097000D+01 0.1097000D+01 0.1097000D+01
EXPONENTS  0.3180000D+00 0.3180000D+00 0.3180000D+00 0.3180000D+00 0.3180000D+00
EXPONENTS  0.3180000D+00 0.1000000D+00 0.1000000D+00 0.1000000D+00 0.1000000D+00
EXPONENTS  0.1000000D+00 0.1000000D+00 0.7610000D+00 0.7610000D+00 0.7610000D+00
EXPONENTS  0.7610000D+00 0.7610000D+00 0.7610000D+00 0.7610000D+00 0.7610000D+00
EXPONENTS  0.7610000D+00 0.7610000D+00 0.2680000D+00 0.2680000D+00 0.2680000D+00
EXPONENTS  0.2680000D+00 0.2680000D+00 0.2680000D+00 0.2680000D+00 0.2680000D+00
EXPONENTS  0.2680000D+00 0.2680000D+00 0.3387000D+02 0.5095000D+01 0.1159000D+01
EXPONENTS  0.3258000D+00 0.1027000D+00 0.2526000D-01 0.1407000D+01 0.1407000D+01
EXPONENTS  0.1407000D+01 0.3880000D+00 0.3880000D+00 0.3880000D+00 0.1020000D+00
EXPONENTS  0.1020000D+00 0.1020000D+00 0.1057000D+01 0.1057000D+01 0.1057000D+01
EXPONENTS  0.1057000D+01 0.1057000D+01 0.1057000D+01 0.2470000D+00 0.2470000D+00
EXPONENTS  0.2470000D+00 0.2470000D+00 0.2470000D+00 0.2470000D+00 0.3387000D+02
EXPONENTS  0.5095000D+01 0.1159000D+01 0.3258000D+00 0.1027000D+00 0.2526000D-01
EXPONENTS  0.1407000D+01 0.1407000D+01 0.1407000D+01 0.3880000D+00 0.3880000D+00
EXPONENTS  0.3880000D+00 0.1020000D+00 0.1020000D+00 0.1020000D+00 0.1057000D+01
EXPONENTS  0.1057000D+01 0.1057000D+01 0.1057000D+01 0.1057000D+01 0.1057000D+01
EXPONENTS  0.2470000D+00 0.2470000D+00 0.2470000D+00 0.2470000D+00 0.2470000D+00
EXPONENTS  0.2470000D+00 0.3387000D+02 0.5095000D+01 0.1159000D+01 0.3258000D+00
EXPONENTS  0.1027000D+00 0.2526000D-01 0.1407000D+01 0.1407000D+01 0.1407000D+01
EXPONENTS  0.3880000D+00 0.3880000D+00 0.3880000D+00 0.1020000D+00 0.1020000D+00
EXPONENTS  0.1020000D+00 0.1057000D+01 0.1057000D+01 0.1057000D+01 0.1057000D+01
EXPONENTS  0.1057000D+01 0.1057000D+01 0.2470000D+00 0.2470000D+00 0.2470000D+00
EXPONENTS  0.2470000D+00 0.2470000D+00 0.2470000D+00 0.4561000D+06 0.6833000D+05
EXPONENTS  0.1555000D+05 0.4405000D+04 0.1439000D+04 0.5204000D+03 0.2031000D+03
EXPONENTS  0.8396000D+02 0.3620000D+02 0.1583000D+02 0.6334000D+01 0.4405000D+04
EXPONENTS  0.1439000D+04 0.5204000D+03 0.2031000D+03 0.8396000D+02 0.3620000D+02
EXPONENTS  0.1583000D+02 0.6334000D+01 0.2694000D+01 0.1439000D+04 0.2031000D+03
EXPONENTS  0.8396000D+02 0.3620000D+02 0.1583000D+02 0.6334000D+01 0.2694000D+01
EXPONENTS  0.4313000D+00 0.9768000D+00 0.1625000D+00 0.5910000D-01 0.6633000D+03
EXPONENTS  0.1568000D+03 0.4998000D+02 0.1842000D+02 0.7240000D+01 0.2922000D+01
EXPONENTS  0.6633000D+03 0.1568000D+03 0.4998000D+02 0.1842000D+02 0.7240000D+01
EXPONENTS  0.2922000D+01 0.6633000D+03 0.1568000D+03 0.4998000D+02 0.1842000D+02
EXPONENTS  0.7240000D+01 0.2922000D+01 0.1568000D+03 0.4998000D+02 0.1842000D+02
EXPONENTS  0.7240000D+01 0.2922000D+01 0.3818000D+00 0.1568000D+03 0.4998000D+02
EXPONENTS  0.1842000D+02 0.7240000D+01 0.2922000D+01 0.3818000D+00 0.1568000D+03
EXPONENTS  0.4998000D+02 0.1842000D+02 0.7240000D+01 0.2922000D+01 0.3818000D+00
EXPONENTS  0.1022000D+01 0.1022000D+01 0.1022000D+01 0.1301000D+00 0.1301000D+00
EXPONENTS  0.1301000D+00 0.4190000D-01 0.4190000D-01 0.4190000D-01 0.1046000D+01
EXPONENTS  0.1046000D+01 0.1046000D+01 0.1046000D+01 0.1046000D+01 0.1046000D+01
EXPONENTS  0.3440000D+00 0.3440000D+00 0.3440000D+00 0.3440000D+00 0.3440000D+00
EXPONENTS  0.3440000D+00 0.1350000D+00 0.1350000D+00 0.1350000D+00 0.1350000D+00
EXPONENTS  0.1350000D+00 0.1350000D+00 0.7060000D+00 0.7060000D+00 0.7060000D+00
EXPONENTS  0.7060000D+00 0.7060000D+00 0.7060000D+00 0.7060000D+00 0.7060000D+00
EXPONENTS  0.7060000D+00 0.7060000D+00 0.3120000D+00 0.3120000D+00 0.3120000D+00
EXPONENTS  0.3120000D+00 0.3120000D+00 0.3120000D+00 0.3120000D+00 0.3120000D+00
EXPONENTS  0.3120000D+00 0.3120000D+00 0.1950000D+05 0.2923000D+04 0.6645000D+03
EXPONENTS  0.1875000D+03 0.6062000D+02 0.2142000D+02 0.7950000D+01 0.6645000D+03
EXPONENTS  0.1875000D+03 0.6062000D+02 0.2142000D+02 0.7950000D+01 0.8815000D+00
EXPONENTS  0.2257000D+01 0.3041000D+00 0.9158000D-01 0.4388000D+02 0.9926000D+01
EXPONENTS  0.2930000D+01 0.4388000D+02 0.9926000D+01 0.2930000D+01 0.4388000D+02
EXPONENTS  0.9926000D+01 0.2930000D+01 0.9132000D+00 0.9132000D+00 0.9132000D+00
EXPONENTS  0.2672000D+00 0.2672000D+00 0.2672000D+00 0.7361000D-01 0.7361000D-01
EXPONENTS  0.7361000D-01 0.3107000D+01 0.3107000D+01 0.3107000D+01 0.3107000D+01
EXPONENTS  0.3107000D+01 0.3107000D+01 0.8550000D+00 0.8550000D+00 0.8550000D+00
EXPONENTS  0.8550000D+00 0.8550000D+00 0.8550000D+00 0.2920000D+00 0.2920000D+00
EXPONENTS  0.2920000D+00 0.2920000D+00 0.2920000D+00 0.2920000D+00 0.1917000D+01
EXPONENTS  0.1917000D+01 0.1917000D+01 0.1917000D+01 0.1917000D+01 0.1917000D+01
EXPONENTS  0.1917000D+01 0.1917000D+01 0.1917000D+01 0.1917000D+01 0.7240000D+00
EXPONENTS  0.7240000D+00 0.7240000D+00 0.7240000D+00 0.7240000D+00 0.7240000D+00
EXPONENTS  0.7240000D+00 0.7240000D+00 0.7240000D+00 0.7240000D+00
MO    1     MO 0.0        OCC NO =    2.0000300  ORB. ENERGY =    0.000000
 -0.46594815D-05 -0.86862123D-05 -0.14680882D-04 -0.22068104D-04 -0.27106713D-04
 -0.22877110D-04 -0.86023907D-05  0.98940914D-08  0.73952204D-07  0.27637627D-06
  0.77104676D-06  0.10329901D-05 -0.12197687D-05 -0.24173731D-05  0.82057010D-05
  0.29008300D-06  0.80585203D-04  0.75553750D-04  0.53798771D-04  0.76427462D-04
  0.71655604D-04  0.51023059D-04  0.20189688D-06  0.18929116D-06  0.13478658D-06
  0.26336862D-03  0.24954852D-03 -0.13008600D-05  0.33561952D-03  0.31969814D-03
 -0.42302348D-06  0.68347010D-05  0.64253032D-05 -0.69145679D-08  0.44094235D-04
 -0.45246337D-04  0.11521022D-05  0.93518200D-04 -0.36792676D-03 -0.35162248D-03
  0.13662437D-03 -0.13481349D-03 -0.18108769D-05  0.28112803D-03  0.71455484D-04
  0.66908012D-04  0.28492297D-04 -0.29015518D-04  0.52322126D-06  0.59193768D-04
 -0.47856093D-04 -0.45809124D-04  0.66310710D-04  0.64126336D-04  0.43802092D-06
  0.69147228D-04  0.64050019D-04  0.15305342D-04 -0.26807936D-03 -0.25642903D-03
 -0.16619405D-04  0.36834650D-04 -0.19659154D-04 -0.19315122D-04  0.26439877D-07
 -0.18328047D-04 -0.16262030D-04  0.35486887D-04  0.77305509D-04  0.74207397D-04
 -0.35566207D-04  0.73756017D-04 -0.27775592D-04 -0.50094424D-04 -0.73864198D-04
  0.24955742D-03  0.77910202D-03 -0.84010930D-05  0.36243309D-05  0.49547553D-04
  0.16012344D-04  0.58112343D-04  0.19914419D-03  0.18772487D-03  0.54142781D-04
  0.11889044D-03  0.15400481D-04 -0.76452667D-04  0.29689488D-04  0.46763179D-04
  0.20231746D-04 -0.34007759D-04  0.20541645D-03 -0.29680873D-04 -0.82356216D-05
  0.37916495D-04  0.20784661D-04  0.44352685D-04  0.21696217D-04 -0.11044760D-04
 -0.19919680D-04 -0.29371556D-04  0.99040924D-04  0.31775213D-03 -0.32839615D-05
  0.19132016D-04 -0.71424921D-05  0.70146957D-05  0.11115804D-03  0.32548414D-04
  0.77674017D-04  0.78392539D-04  0.39607484D-04  0.65008007D-05  0.13522353D-04
 -0.32991950D-04  0.19469597D-04 -0.21206242D-04  0.49898476D-04 -0.81712918D-04
  0.68817092D-05 -0.21858717D-04  0.14977008D-04  0.66720696D-05  0.38026775D-04
  0.47686151D-04  0.38862205D-04  0.70089587D-04  0.10334706D-03 -0.36420701D-03
 -0.10966029D-02  0.11655048D-04  0.60046973D-04  0.35812225D-04 -0.22950780D-04
  0.23453929D-03  0.15743961D-03 -0.26546361D-03  0.13669065D-03  0.99991269D-04
 -0.21638250D-04 -0.11467824D-05  0.67315510D-04 -0.66168728D-04 -0.13232697D-03
  0.25648423D-03  0.13518239D-03  0.22492727D-04  0.31983219D-04 -0.54475946D-04
 -0.30154193D-04  0.18924420D-04  0.28030552D-04 -0.11467340D-05 -0.21454170D-05
 -0.37068047D-05 -0.60091660D-05 -0.91254952D-05 -0.12683580D-04 -0.15079804D-04
 -0.13433614D-04 -0.66714167D-05 -0.10740416D-05 -0.11331774D-07 -0.60715284D-08
 -0.20253602D-06 -0.70579750D-06 -0.25416911D-05 -0.56028416D-05 -0.78869927D-05
  0.37623526D-06  0.10321500D-04  0.61030381D-05  0.11188383D-08  0.13551864D-07
  0.28260983D-07  0.81047578D-07  0.42086879D-08 -0.34951646D-06 -0.90308341D-06
  0.73578986D-06  0.20065483D-06 -0.24672574D-05 -0.45674918D-06  0.84036612D+01
  0.11069588D+02  0.12211488D+02  0.10142597D+02  0.53860004D+01  0.13896163D+01
  0.80117401D+01  0.10553336D+02  0.11641981D+02  0.96695771D+01  0.51348138D+01
  0.13248088D+01 -0.55258912D-02 -0.72788914D-02 -0.80297567D-02 -0.66693416D-02
 -0.35416055D-02 -0.91375272D-03 -0.33260391D-03  0.32154006D-02  0.45340504D-02
  0.64848915D-02 -0.32838578D-04 -0.59472572D-02 -0.31712406D-03  0.30657513D-02
  0.43230294D-02  0.61830757D-02 -0.31310225D-04 -0.56704635D-02  0.25215391D-06
 -0.24376618D-05 -0.34373576D-05 -0.49163306D-05  0.24895606D-07  0.45087389D-05
  0.55478331D-01  0.52891791D-01 -0.37012226D-04 -0.46607535D-03 -0.44402711D-03
  0.91865609D-06 -0.41955749D-04 -0.39972425D-04  0.56196563D-07  0.82743813D-05
 -0.85620508D-05  0.28766945D-06  0.17594607D-04 -0.71029606D-03 -0.67776328D-03
 -0.29734012D-05  0.30952944D-05 -0.12189320D-06 -0.61861207D-05  0.25780409D-03
  0.24619441D-03  0.86139958D-06 -0.87845937D-06  0.17059782D-07  0.17964786D-05
 -0.44083956D-04 -0.42212348D-04  0.16391689D-05  0.17352862D-05  0.37497056D-07
  0.15714153D-05  0.13112327D-05  0.24199455D-04 -0.64889220D-05 -0.65170912D-05
 -0.24311946D-04  0.50357051D-04  0.10653121D-04  0.10107717D-04 -0.46899923D-07
  0.10666218D-04  0.10252561D-04 -0.48164084D-05 -0.42625581D-04 -0.40575713D-04
  0.49571082D-05 -0.10264869D-04  0.95684776D-06  0.17835659D-05  0.30235415D-05
  0.45780507D-05  0.57235718D-05  0.49232981D-05  0.18881908D-05 -0.29672175D-08
 -0.39280404D-07 -0.14267357D-06 -0.42323847D-06 -0.48769685D-06  0.59238047D-06
  0.25436861D-08 -0.14916365D-05 -0.86247670D-06 -0.20966694D-03 -0.20504968D-03
 -0.13548500D-03 -0.20138252D-03 -0.19694771D-03 -0.13013168D-03 -0.14995394D-05
 -0.14665168D-05 -0.96898963D-06 -0.60761505D-05 -0.61045659D-05 -0.72748024D-06
 -0.48106877D-04 -0.46185883D-04 -0.34968078D-06 -0.14188383D-04 -0.13513530D-04
 -0.81491153D-07  0.49027411D-04 -0.49417045D-04  0.38963350D-06  0.10208477D-03
 -0.96533461D-04 -0.90612144D-04 -0.24534917D-04  0.24848341D-04 -0.31342352D-06
 -0.51209696D-04  0.73961698D-04  0.69946380D-04  0.12364630D-04 -0.12622138D-04
  0.25750759D-06  0.25968732D-04 -0.53503294D-04 -0.51075467D-04 -0.51583940D-04
 -0.49033778D-04 -0.10086836D-05 -0.50946603D-04 -0.50252221D-04 -0.12895741D-03
  0.20569842D-03  0.19735355D-03  0.13198346D-03 -0.27212832D-03  0.18303480D-04
  0.17439861D-04  0.36235389D-06  0.18107384D-04  0.17799797D-04  0.40880702D-04
 -0.73017825D-04 -0.70119380D-04 -0.41967764D-04  0.86421590D-04
MO    2     MO 0.0        OCC NO =    2.0000300  ORB. ENERGY =    0.000000
  0.14339412D-04  0.26731552D-04  0.45179965D-04  0.67913914D-04  0.83420079D-04
  0.70403604D-04  0.26473594D-04  0.14368331D-07  0.10739437D-06  0.40135730D-06
  0.11197244D-05  0.15001220D-05 -0.17713643D-05 -0.45263155D-07 -0.23835830D-04
 -0.54922499D-06  0.78288857D-04  0.73400779D-04  0.52265728D-04 -0.81742894D-04
 -0.76639159D-04 -0.54571647D-04 -0.11889604D-06 -0.11147259D-06 -0.79375126D-07
  0.25949127D-03 -0.27045835D-03 -0.35688408D-05  0.32394144D-03 -0.33948811D-03
  0.17405833D-05  0.64384701D-05 -0.66583409D-05  0.18450941D-07 -0.47367279D-04
  0.47379885D-04 -0.12606361D-07  0.92067955D-04 -0.34967738D-03  0.36763694D-03
 -0.14221214D-03  0.14104668D-03  0.11654561D-05  0.27233917D-03  0.69872914D-04
 -0.72020923D-04 -0.29793808D-04  0.29910642D-04 -0.11683409D-06  0.57008668D-04
 -0.45747772D-04  0.48174359D-04  0.63564751D-04 -0.67557548D-04  0.68059115D-06
  0.66008642D-04 -0.67471317D-04 -0.19133984D-04 -0.25670290D-03  0.27014396D-03
  0.17092210D-04  0.38475690D-04 -0.18875008D-04  0.20071150D-04  0.23294854D-06
 -0.17433736D-04  0.17987084D-04 -0.36915318D-04  0.74058760D-04 -0.78200533D-04
  0.36216472D-04  0.70451541D-04  0.29056449D-04  0.52404503D-04  0.77270409D-04
 -0.26524698D-03 -0.82035838D-03  0.89402990D-05  0.30648832D-05 -0.52272641D-04
 -0.17186708D-04  0.56274704D-04 -0.21170674D-03 -0.19620803D-03  0.52272960D-04
 -0.12605285D-03 -0.16097656D-04  0.80399900D-04 -0.32216752D-04 -0.48183148D-04
  0.19579665D-04 -0.32314161D-04 -0.21547776D-03  0.31617616D-04  0.83072705D-05
 -0.39924886D-04  0.20131168D-04  0.42389740D-04 -0.22793323D-04 -0.37808092D-04
 -0.68188451D-04 -0.10054383D-03  0.37185715D-03  0.11038253D-02 -0.11671181D-04
  0.62093964D-04 -0.37086292D-04  0.25445496D-04  0.23082294D-03 -0.16231553D-03
  0.26663348D-03  0.13391570D-03 -0.10378436D-03  0.21484066D-04 -0.15494882D-05
 -0.65482816D-04  0.67032305D-04 -0.13018197D-03  0.25661411D-03 -0.13466542D-03
 -0.23289350D-04 -0.30993478D-04  0.54282828D-04 -0.30600156D-04  0.17191732D-04
 -0.30575463D-04  0.95167080D-05  0.17163775D-04  0.25307976D-04 -0.82869387D-04
 -0.26796810D-03  0.28400447D-05  0.16298336D-04  0.46992193D-05 -0.55264395D-05
  0.10149313D-03 -0.37919099D-04 -0.64730224D-04  0.72663069D-04 -0.43580022D-04
 -0.55060736D-05 -0.14833560D-04  0.30415521D-04 -0.15581961D-04 -0.16152151D-04
  0.38965071D-04  0.74841843D-04 -0.79524153D-05  0.20624385D-04 -0.12671970D-04
  0.77078369D-05  0.36476194D-04 -0.48256653D-04 -0.52411046D-04 -0.98055475D-04
 -0.16941811D-03 -0.27464666D-03 -0.41707731D-03 -0.57969823D-03 -0.68921677D-03
 -0.61397825D-03 -0.30491458D-03 -0.49088668D-04 -0.51791444D-06 -0.24601764D-06
 -0.82067367D-05 -0.28598834D-04 -0.10298903D-03 -0.22702651D-03 -0.31958005D-03
  0.15245010D-04  0.41822599D-03  0.24729441D-03 -0.50026064D-08 -0.60593780D-07
 -0.12636194D-06 -0.36238405D-06 -0.18818099D-07  0.15627758D-05  0.40379124D-05
 -0.32899010D-05  0.15380405D-04 -0.13939934D-05  0.16020471D-06  0.80117330D+01
  0.10553327D+02  0.11641971D+02  0.96695686D+01  0.51348092D+01  0.13248076D+01
 -0.84036512D+01 -0.11069574D+02 -0.12211473D+02 -0.10142585D+02 -0.53859940D+01
 -0.13896146D+01 -0.18187008D-02 -0.23956545D-02 -0.26427819D-02 -0.21950373D-02
 -0.11656257D-02 -0.30073752D-03 -0.31708758D-03  0.30653987D-02  0.43225321D-02
  0.61823643D-02 -0.31306623D-04 -0.56698112D-02  0.33263205D-03 -0.32156726D-02
 -0.45344341D-02 -0.64854403D-02  0.32841357D-04  0.59477604D-02  0.92800207D-07
 -0.89713269D-06 -0.12650507D-05 -0.18093572D-05  0.91623303D-08  0.16593512D-05
  0.52892817D-01 -0.55481066D-01 -0.12677612D-04 -0.44402035D-03  0.46541901D-03
  0.22728554D-06 -0.39973449D-04  0.41901011D-04 -0.53735058D-08 -0.92968230D-05
  0.87791116D-05  0.51771140D-06  0.17519133D-04 -0.67707450D-03  0.71082131D-03
  0.33151288D-05 -0.30566563D-05 -0.25847244D-06 -0.60256028D-05  0.24612930D-03
 -0.25860298D-03 -0.88950103D-06  0.88828184D-06  0.12191890D-08  0.17039281D-05
 -0.42097862D-04  0.44348620D-04  0.16207553D-05 -0.17343500D-05  0.38021608D-07
  0.15959562D-05 -0.19130772D-05 -0.25087364D-04 -0.64582220D-05  0.71161272D-05
  0.24973299D-04  0.48226739D-04  0.10170704D-04 -0.10662394D-04  0.34565972D-07
  0.10158819D-04 -0.10609471D-04  0.49691194D-05 -0.40670931D-04  0.42596651D-04
 -0.50728173D-05 -0.97919955D-05  0.18662212D-05  0.34786395D-05  0.58970689D-05
  0.89289599D-05  0.11163166D-04  0.96023250D-05  0.36826983D-05  0.22767965D-08
  0.30140523D-07  0.10947586D-06  0.32475809D-06  0.37421810D-06 -0.45454362D-06
  0.25984627D-06  0.83396855D-06  0.80834502D-07 -0.19787742D-03 -0.19351979D-03
 -0.12786671D-03  0.20911922D-03  0.20451403D-03  0.13513107D-03 -0.35231530D-05
 -0.34455667D-05 -0.22766316D-05 -0.57470492D-05  0.63471586D-05 -0.99863825D-06
 -0.45520949D-04  0.48090803D-04  0.55320336D-06 -0.13458938D-04  0.14104153D-04
 -0.45893747D-07 -0.51046720D-04  0.51078249D-04 -0.31529285D-07  0.98271069D-04
 -0.91627461D-04  0.94625549D-04  0.25647902D-04 -0.25637788D-04 -0.10114138D-07
 -0.49352609D-04  0.70239089D-04 -0.73085496D-04 -0.13092010D-04  0.12908411D-04
  0.18359922D-06  0.25079207D-04 -0.50818656D-04  0.53378950D-04 -0.48657860D-04
  0.51589574D-04 -0.17336671D-06 -0.49667431D-04  0.51765084D-04  0.13612869D-03
  0.19564101D-03 -0.20653381D-03 -0.13560859D-03 -0.26301877D-03  0.17287077D-04
 -0.18329467D-04  0.71491421D-07  0.17595902D-04 -0.18401828D-04 -0.43261714D-04
 -0.69457134D-04  0.73390229D-04  0.43047240D-04  0.83561553D-04
MO    3     MO 0.0        OCC NO =    2.0000210  ORB. ENERGY =    0.000000
 -0.14441940D-01 -0.26922685D-01 -0.45503006D-01 -0.68399505D-01 -0.84016541D-01
 -0.70906996D-01 -0.26662882D-01 -0.38066269D-05 -0.28452177D-04 -0.10633228D-03
 -0.29665051D-03 -0.39742990D-03  0.46929061D-03 -0.87298860D-03 -0.19419380D-02
 -0.82689442D-04 -0.32630540D-05 -0.30593205D-05 -0.21784184D-05  0.23316203D-05
  0.21860422D-05  0.15565923D-05  0.11687920D-02  0.10958168D-02  0.78028683D-03
  0.10230348D-04 -0.66007029D-05  0.60983397D-03  0.25698708D-05 -0.40353828D-05
 -0.38024831D-03  0.32788103D-07  0.26329529D-07  0.46604393D-05 -0.10725031D-03
 -0.10537317D-03  0.21262349D-03  0.37541172D-05 -0.46054750D-06  0.28112737D-06
 -0.24685766D-04 -0.22267640D-04  0.46953406D-04  0.47518714D-05 -0.19801858D-05
  0.19178970D-05  0.11130029D-04  0.11611806D-04 -0.22741835D-04  0.13545765D-06
  0.86317839D-07 -0.40418589D-06 -0.62300142D-07  0.36118599D-04  0.79139846D-05
  0.69324568D-06 -0.10895476D-03 -0.11693452D-04 -0.50634525D-06  0.59896542D-06
 -0.12048502D-04 -0.10482914D-05 -0.29622966D-06  0.51746981D-04 -0.85858110D-04
  0.76137116D-06 -0.15473276D-03  0.12908571D-03  0.12731781D-06 -0.50818625D-06
  0.12848862D-03 -0.71889347D-06 -0.48860834D-05 -0.88122526D-05 -0.12993661D-04
  0.74601009D-03  0.22865325D-03  0.50688657D-05 -0.29945902D-06  0.95302410D-04
  0.28111585D-04  0.45994851D-07  0.19543541D-03 -0.40641518D-05  0.17617654D-06
  0.42709716D-04  0.38286915D-04 -0.73444417D-04  0.53173238D-04  0.20271179D-04
 -0.34231395D-06 -0.47972196D-07  0.75983858D-04 -0.93257692D-05 -0.12314777D-04
  0.21640546D-04  0.32471041D-06 -0.21080927D-06 -0.34429255D-04 -0.39065734D-05
 -0.70456659D-05 -0.10388830D-04  0.76645624D-03  0.25012077D-03  0.52933775D-05
  0.85863067D-04 -0.49389492D-04  0.31150788D-04  0.17209830D-03 -0.10326813D-03
 -0.65228001D-05  0.39534742D-04 -0.23726981D-04  0.39702206D-04  0.20609722D-04
 -0.41525275D-04  0.20915553D-04 -0.11173646D-03  0.66007907D-04 -0.39424420D-04
 -0.11316521D-04 -0.10174680D-04  0.21491201D-04  0.13631956D-05 -0.30396937D-04
  0.17799430D-04 -0.49921075D-05 -0.90034714D-05 -0.13275613D-04  0.74803826D-03
  0.23573828D-03  0.49669128D-05 -0.83274160D-04 -0.46962350D-04  0.28054888D-04
 -0.16857388D-03 -0.10001073D-03 -0.40807323D-05 -0.37476373D-04 -0.22463902D-04
  0.39009254D-04  0.21385739D-04 -0.41662793D-04  0.20277055D-04  0.10995706D-03
 -0.65374108D-04 -0.38536058D-04 -0.11876691D-04 -0.98448946D-05  0.21721586D-04
 -0.22014247D-05  0.29880407D-04  0.17535369D-04 -0.15455612D+00 -0.28915800D+00
 -0.49960090D+00 -0.80991175D+00 -0.12299287D+01 -0.17094852D+01 -0.20324469D+01
 -0.18105743D+01 -0.89916950D+00 -0.14475868D+00 -0.15272896D-02 -0.72262523D-03
 -0.24105568D-01 -0.84003078D-01 -0.30250868D+00 -0.66684275D+00 -0.93869937D+00
  0.44779019D-01  0.12284511D+01  0.72637547D+00 -0.15529135D-04 -0.18809574D-03
 -0.39225384D-03 -0.11249157D-02 -0.58415308D-04  0.48511822D-02  0.12534523D-01
 -0.10212539D-01  0.46584929D-01 -0.38355148D-03 -0.13182792D-03  0.66211113D-03
  0.87215525D-03  0.96212376D-03  0.79911912D-03  0.42435443D-03  0.10948566D-03
  0.33028647D-02  0.43506454D-02  0.47994429D-02  0.39863132D-02  0.21168429D-02
  0.54615653D-03  0.59464367D+01  0.78328482D+01  0.86408577D+01  0.71769089D+01
  0.38111378D+01  0.98329347D+00 -0.10033620D-07  0.96998585D-07  0.13677813D-06
  0.19562891D-06 -0.99063726D-09 -0.17941016D-06 -0.11768463D-06  0.11376993D-05
  0.16042747D-05  0.22945373D-05 -0.11619214D-07 -0.21043071D-05 -0.21103692D-03
  0.20401692D-02  0.28768515D-02  0.41146587D-02 -0.20836053D-04 -0.37735301D-02
  0.47468289D-05  0.22697091D-04  0.41689761D-01 -0.88035793D-07 -0.77376586D-07
 -0.48455825D-03 -0.40794463D-08 -0.28619550D-07 -0.98526809D-05 -0.65880420D-05
 -0.67281839D-05  0.13316226D-04 -0.40798243D-06  0.63644611D-06  0.63636571D-07
 -0.11180071D-03 -0.11177333D-03  0.22357404D-03  0.10748942D-06 -0.55159238D-07
  0.97363415D-07 -0.14356864D-04 -0.14363386D-04  0.28720250D-04  0.44470552D-07
  0.86147786D-07 -0.35519988D-07  0.71822310D-08 -0.71598643D-05  0.54203369D-05
 -0.14246473D-06  0.21564471D-04 -0.80913973D-05  0.12091804D-06 -0.84878239D-07
 -0.81696133D-05  0.50659696D-06  0.26465075D-08  0.20461568D-05 -0.33879095D-04
  0.45527701D-07 -0.61348116D-05  0.50822403D-04 -0.53467224D-07 -0.36587874D-08
  0.50814883D-04 -0.27040220D-06 -0.88004827D-03 -0.16404115D-02 -0.27808629D-02
 -0.42106026D-02 -0.52641806D-02 -0.45281393D-02 -0.17366389D-02 -0.68713305D-06
 -0.90963549D-05 -0.33039616D-04 -0.98011399D-04 -0.11293834D-03  0.13718044D-03
 -0.96093999D-04 -0.16038780D-03  0.12216336D-04  0.16965053D-05  0.16591451D-05
  0.10962673D-05  0.13993646D-05  0.13685480D-05  0.90425751D-06  0.39043084D-02
  0.38183284D-02  0.25229310D-02  0.56615538D-06  0.54400879D-06  0.87971688D-03
  0.37682955D-08 -0.10166884D-06  0.21040221D-04  0.35980992D-07 -0.41938262D-07
  0.93320359D-05 -0.35422508D-04 -0.35869843D-04  0.71292352D-04 -0.40725125D-06
 -0.39326952D-06 -0.28886593D-06  0.21040739D-04  0.21247377D-04 -0.42288116D-04
  0.17901651D-06  0.14827290D-06  0.13375633D-06  0.18163414D-04  0.18070883D-04
 -0.36234297D-04 -0.60171788D-07 -0.15077536D-06 -0.20443023D-07 -0.38417401D-07
 -0.26183146D-05  0.46033647D-04 -0.98205181D-07  0.84740852D-05 -0.69401897D-04
  0.21345738D-06 -0.61914150D-06 -0.68699044D-04 -0.49429304D-06  0.28851184D-07
  0.82198362D-06 -0.25268954D-04  0.47846894D-07 -0.26982888D-05  0.38014984D-04
 -0.13440044D-06  0.23233794D-06  0.37791879D-04  0.12028891D-06
MO    4     MO 0.0        OCC NO =    2.0000123  ORB. ENERGY =    0.000000
  0.27155678D-01  0.50623654D-01  0.85560872D-01  0.12861395D+00  0.15797920D+00
  0.13332887D+00  0.50135138D-01 -0.13962491D-05 -0.10436097D-04 -0.39002078D-04
 -0.10880972D-03 -0.14577503D-03  0.17213313D-03  0.26722107D-02 -0.36291959D-02
 -0.43789026D-04  0.57198388D-05  0.53627125D-05  0.38185707D-05 -0.16328528D-05
 -0.15309033D-05 -0.10900944D-05  0.36707321D-02  0.34415447D-02  0.24505849D-02
  0.17343136D-04 -0.93854998D-05  0.13088240D-02  0.69919471D-05 -0.69793599D-05
 -0.41893979D-03  0.56477521D-07  0.10267187D-07  0.36578752D-05 -0.31984732D-03
 -0.31798288D-03  0.63783020D-03  0.29244015D-05  0.15771204D-06  0.31298060D-06
  0.88135181D-05  0.11385085D-04 -0.20198603D-04  0.95027585D-05 -0.42662008D-05
  0.33535409D-05 -0.18023709D-04 -0.17704626D-04  0.35728335D-04  0.98524700D-06
  0.29394313D-06 -0.47195994D-06  0.21119900D-06 -0.42926801D-04  0.23030446D-04
 -0.64135193D-06  0.12860187D-03 -0.34265848D-04  0.77549208D-08  0.17852943D-06
 -0.34825489D-04 -0.16925759D-05 -0.48563256D-06  0.82227798D-04 -0.16399038D-03
  0.11960343D-05 -0.24563662D-03  0.24621862D-03  0.26086337D-06 -0.10467773D-05
  0.24575252D-03 -0.17833037D-05 -0.90573435D-04 -0.16335292D-03 -0.24086379D-03
  0.10169915D-02  0.67344579D-03  0.42564779D-05 -0.18226545D-06 -0.59242983D-04
  0.32737861D-04  0.92865721D-06  0.29983222D-03 -0.42406084D-04  0.10704262D-05
  0.10892719D-03  0.75122113D-04 -0.14111428D-03  0.22078800D-04  0.11903548D-03
  0.54412877D-06  0.31676888D-06  0.14258912D-03 -0.14428991D-04 -0.21451529D-04
  0.35880520D-04  0.84557352D-06 -0.52237138D-06 -0.62451030D-04 -0.91161110D-04
 -0.16441282D-03 -0.24242660D-03  0.10485373D-02  0.71472367D-03  0.45949547D-05
 -0.44359033D-04  0.27202142D-04  0.38493363D-04  0.26452892D-03 -0.15742426D-03
 -0.47843796D-04  0.99051920D-04 -0.57892190D-04  0.77593118D-04 -0.16151693D-04
 -0.10184466D-03  0.11799635D-03 -0.15066965D-03  0.12528697D-03 -0.74356324D-04
 -0.19454729D-04 -0.16517970D-04  0.35972699D-04  0.48334115D-05 -0.55565318D-04
  0.32259092D-04 -0.90543820D-04 -0.16329951D-03 -0.24078503D-03  0.10164629D-02
  0.67720499D-03  0.41781222D-05  0.50471104D-04  0.30596030D-04  0.32292823D-04
 -0.25740556D-03 -0.15245691D-03 -0.41875725D-04 -0.94448839D-04 -0.55795467D-04
  0.75893927D-04 -0.18680659D-04 -0.10048724D-03  0.11916790D-03  0.14145988D-03
 -0.12247372D-03 -0.72240025D-04 -0.20228624D-04 -0.15774132D-04  0.36002756D-04
 -0.56157850D-05  0.54169288D-04  0.31677933D-04  0.91377816D-01  0.17095814D+00
  0.29537775D+00  0.47884204D+00  0.72716759D+00  0.10106945D+01  0.12016384D+01
  0.10704612D+01  0.53161367D+00  0.85585303D-01  0.90297550D-03  0.42782952D-03
  0.14271677D-01  0.49733936D-01  0.17909996D+00  0.39480356D+00  0.55575600D+00
 -0.26511372D-01 -0.72730324D+00 -0.43004985D+00  0.62822074D-05  0.76092874D-04
  0.15868367D-03  0.45507713D-03  0.23631521D-04 -0.19625133D-02 -0.50707574D-02
  0.41314144D-02 -0.28565063D-01  0.14204872D-02 -0.18063185D-03  0.56798184D-02
  0.74816496D-02  0.82534306D-02  0.68551204D-02  0.36402591D-02  0.93920588D-03
  0.95816971D-03  0.12621337D-02  0.13923310D-02  0.11564399D-02  0.61410168D-03
  0.15844144D-03  0.99110872D+01  0.13055220D+02  0.14401952D+02  0.11961949D+02
  0.63521266D+01  0.16388819D+01 -0.17149922D-06  0.16579441D-05  0.23378743D-05
  0.33437786D-05 -0.16932424D-07 -0.30665604D-05 -0.33306769D-07  0.32198841D-06
  0.45403727D-06  0.64939340D-06 -0.32884368D-08 -0.59555500D-06 -0.33688729D-03
  0.32568096D-02  0.45924415D-02  0.65684062D-02 -0.33261484D-04 -0.60238480D-02
  0.40822406D-04  0.71297763D-05  0.72532652D-01 -0.26662020D-06  0.16756230D-06
 -0.30788239D-03 -0.22687189D-07 -0.16332679D-07 -0.39984243D-05  0.45520592D-03
  0.45498484D-03 -0.91019076D-03 -0.31814601D-06 -0.82195649D-06 -0.56060103D-07
 -0.31014759D-03 -0.31010626D-03  0.62025385D-03  0.12605271D-06  0.48158033D-06
  0.14032761D-06  0.42021596D-05  0.42280471D-05 -0.84302067D-05  0.78004330D-07
  0.10429607D-06 -0.83873140D-07  0.22858102D-07 -0.14416378D-04 -0.46914105D-04
 -0.27995149D-06  0.43522448D-04  0.70286141D-04  0.21137719D-06 -0.27331336D-06
  0.70456172D-04  0.11366550D-05  0.16203775D-07  0.41616035D-05 -0.62813506D-04
  0.10376095D-06 -0.12495191D-04  0.94275220D-04 -0.15237227D-06  0.10380013D-07
  0.94165297D-04 -0.58382560D-06 -0.63687631D-02 -0.11871385D-01 -0.20124643D-01