 clch3f_ts-wavefunction
GAUSSIAN            211 MOL ORBITALS    339 PRIMITIVES        6 NUCLEI
  C    1    (CENTRE  1)   0.00033070  0.00005480 -0.95943097  CHARGE =  6.0
  H    2    (CENTRE  2)   0.00003590 -1.98906904 -1.17300214  CHARGE =  1.0
  H    3    (CENTRE  3)  -1.72213010  0.99468570 -1.17398291  CHARGE =  1.0
  H    4    (CENTRE  4)   1.72295780  0.99424539 -1.17459707  CHARGE =  1.0
  Cl   5    (CENTRE  5)   0.00104880  0.00181792  3.10806659  CHARGE = 17.0
  F    6    (CENTRE  6)  -0.00035149 -0.00174044 -4.90094425  CHARGE =  9.0
CENTRE ASSIGNMENTS    1  1  1  1  1  1  1  1  1  1  1  1  1  1  1  1  1  1  1  1
CENTRE ASSIGNMENTS    1  1  1  1  1  1  1  1  1  1  1  1  1  1  1  1  1  1  1  1
CENTRE ASSIGNMENTS    1  1  1  1  1  1  1  1  1  1  1  1  1  1  1  1  1  1  1  1
CENTRE ASSIGNMENTS    1  1  1  1  1  1  1  1  1  1  1  1  2  2  2  2  2  2  2  2
CENTRE ASSIGNMENTS    2  2  2  2  2  2  2  2  2  2  2  2  2  2  2  2  2  2  2  3
CENTRE ASSIGNMENTS    3  3  3  3  3  3  3  3  3  3  3  3  3  3  3  3  3  3  3  3
CENTRE ASSIGNMENTS    3  3  3  3  3  3  4  4  4  4  4  4  4  4  4  4  4  4  4  4
CENTRE ASSIGNMENTS    4  4  4  4  4  4  4  4  4  4  4  4  4  5  5  5  5  5  5  5
CENTRE ASSIGNMENTS    5  5  5  5  5  5  5  5  5  5  5  5  5  5  5  5  5  5  5  5
CENTRE ASSIGNMENTS    5  5  5  5  5  5  5  5  5  5  5  5  5  5  5  5  5  5  5  5
CENTRE ASSIGNMENTS    5  5  5  5  5  5  5  5  5  5  5  5  5  5  5  5  5  5  5  5
CENTRE ASSIGNMENTS    5  5  5  5  5  5  5  5  5  5  5  5  5  5  5  5  5  5  5  5
CENTRE ASSIGNMENTS    5  5  5  5  5  5  5  5  5  5  5  5  5  5  5  5  5  5  5  5
CENTRE ASSIGNMENTS    5  5  5  5  5  5  5  6  6  6  6  6  6  6  6  6  6  6  6  6
CENTRE ASSIGNMENTS    6  6  6  6  6  6  6  6  6  6  6  6  6  6  6  6  6  6  6  6
CENTRE ASSIGNMENTS    6  6  6  6  6  6  6  6  6  6  6  6  6  6  6  6  6  6  6  6
CENTRE ASSIGNMENTS    6  6  6  6  6  6  6  6  6  6  6  6  6  6  6  6  6  6  6
TYPE ASSIGNMENTS      1  1  1  1  1  1  1  1  1  1  1  1  1  1  1  1  2  2  2  3
TYPE ASSIGNMENTS      3  3  4  4  4  2  3  4  2  3  4  2  3  4  5  6  7  8  9 10
TYPE ASSIGNMENTS      5  6  7  8  9 10  5  6  7  8  9 10 11 12 13 17 14 15 18 19
TYPE ASSIGNMENTS     16 20 11 12 13 17 14 15 18 19 16 20  1  1  1  1  1  1  2  3
TYPE ASSIGNMENTS      4  2  3  4  2  3  4  5  6  7  8  9 10  5  6  7  8  9 10  1
TYPE ASSIGNMENTS      1  1  1  1  1  2  3  4  2  3  4  2  3  4  5  6  7  8  9 10
TYPE ASSIGNMENTS      5  6  7  8  9 10  1  1  1  1  1  1  2  3  4  2  3  4  2  3
TYPE ASSIGNMENTS      4  5  6  7  8  9 10  5  6  7  8  9 10  1  1  1  1  1  1  1
TYPE ASSIGNMENTS      1  1  1  1  1  1  1  1  1  1  1  1  1  1  1  1  1  1  1  1
TYPE ASSIGNMENTS      1  1  1  1  2  2  2  2  2  2  3  3  3  3  3  3  4  4  4  4
TYPE ASSIGNMENTS      4  4  2  2  2  2  2  2  3  3  3  3  3  3  4  4  4  4  4  4
TYPE ASSIGNMENTS      2  3  4  2  3  4  2  3  4  5  6  7  8  9 10  5  6  7  8  9
TYPE ASSIGNMENTS     10  5  6  7  8  9 10 11 12 13 17 14 15 18 19 16 20 11 12 13
TYPE ASSIGNMENTS     17 14 15 18 19 16 20  1  1  1  1  1  1  1  1  1  1  1  1  1
TYPE ASSIGNMENTS      1  1  1  2  2  2  3  3  3  4  4  4  2  3  4  2  3  4  2  3
TYPE ASSIGNMENTS      4  5  6  7  8  9 10  5  6  7  8  9 10  5  6  7  8  9 10 11
TYPE ASSIGNMENTS     12 13 17 14 15 18 19 16 20 11 12 13 17 14 15 18 19 16 20
EXPONENTS  0.8236000D+04 0.1235000D+04 0.2808000D+03 0.7927000D+02 0.2559000D+02
EXPONENTS  0.8997000D+01 0.3319000D+01 0.2808000D+03 0.7927000D+02 0.2559000D+02
EXPONENTS  0.8997000D+01 0.3319000D+01 0.3643000D+00 0.9059000D+00 0.1285000D+00
EXPONENTS  0.4402000D-01 0.1871000D+02 0.4133000D+01 0.1200000D+01 0.1871000D+02
EXPONENTS  0.4133000D+01 0.1200000D+01 0.1871000D+02 0.4133000D+01 0.1200000D+01
EXPONENTS  0.3827000D+00 0.3827000D+00 0.3827000D+00 0.1209000D+00 0.1209000D+00
EXPONENTS  0.1209000D+00 0.3569000D-01 0.3569000D-01 0.3569000D-01 0.1097000D+01
EXPONENTS  0.1097000D+01 0.1097000D+01 0.1097000D+01 0.1097000D+01 0.1097000D+01
EXPONENTS  0.3180000D+00 0.3180000D+00 0.3180000D+00 0.3180000D+00 0.3180000D+00
EXPONENTS  0.3180000D+00 0.1000000D+00 0.1000000D+00 0.1000000D+00 0.1000000D+00
EXPONENTS  0.1000000D+00 0.1000000D+00 0.7610000D+00 0.7610000D+00 0.7610000D+00
EXPONENTS  0.7610000D+00 0.7610000D+00 0.7610000D+00 0.7610000D+00 0.7610000D+00
EXPONENTS  0.7610000D+00 0.7610000D+00 0.2680000D+00 0.2680000D+00 0.2680000D+00
EXPONENTS  0.2680000D+00 0.2680000D+00 0.2680000D+00 0.2680000D+00 0.2680000D+00
EXPONENTS  0.2680000D+00 0.2680000D+00 0.3387000D+02 0.5095000D+01 0.1159000D+01
EXPONENTS  0.3258000D+00 0.1027000D+00 0.2526000D-01 0.1407000D+01 0.1407000D+01
EXPONENTS  0.1407000D+01 0.3880000D+00 0.3880000D+00 0.3880000D+00 0.1020000D+00
EXPONENTS  0.1020000D+00 0.1020000D+00 0.1057000D+01 0.1057000D+01 0.1057000D+01
EXPONENTS  0.1057000D+01 0.1057000D+01 0.1057000D+01 0.2470000D+00 0.2470000D+00
EXPONENTS  0.2470000D+00 0.2470000D+00 0.2470000D+00 0.2470000D+00 0.3387000D+02
EXPONENTS  0.5095000D+01 0.1159000D+01 0.3258000D+00 0.1027000D+00 0.2526000D-01
EXPONENTS  0.1407000D+01 0.1407000D+01 0.1407000D+01 0.3880000D+00 0.3880000D+00
EXPONENTS  0.3880000D+00 0.1020000D+00 0.1020000D+00 0.1020000D+00 0.1057000D+01
EXPONENTS  0.1057000D+01 0.1057000D+01 0.1057000D+01 0.1057000D+01 0.1057000D+01
EXPONENTS  0.2470000D+00 0.2470000D+00 0.2470000D+00 0.2470000D+00 0.2470000D+00
EXPONENTS  0.2470000D+00 0.3387000D+02 0.5095000D+01 0.1159000D+01 0.3258000D+00
EXPONENTS  0.1027000D+00 0.2526000D-01 0.1407000D+01 0.1407000D+01 0.1407000D+01
EXPONENTS  0.3880000D+00 0.3880000D+00 0.3880000D+00 0.1020000D+00 0.1020000D+00
EXPONENTS  0.1020000D+00 0.1057000D+01 0.1057000D+01 0.1057000D+01 0.1057000D+01
EXPONENTS  0.1057000D+01 0.1057000D+01 0.2470000D+00 0.2470000D+00 0.2470000D+00
EXPONENTS  0.2470000D+00 0.2470000D+00 0.2470000D+00 0.4561000D+06 0.6833000D+05
EXPONENTS  0.1555000D+05 0.4405000D+04 0.1439000D+04 0.5204000D+03 0.2031000D+03
EXPONENTS  0.8396000D+02 0.3620000D+02 0.1583000D+02 0.6334000D+01 0.4405000D+04
EXPONENTS  0.1439000D+04 0.5204000D+03 0.2031000D+03 0.8396000D+02 0.3620000D+02
EXPONENTS  0.1583000D+02 0.6334000D+01 0.2694000D+01 0.1439000D+04 0.2031000D+03
EXPONENTS  0.8396000D+02 0.3620000D+02 0.1583000D+02 0.6334000D+01 0.2694000D+01
EXPONENTS  0.4313000D+00 0.9768000D+00 0.1625000D+00 0.5910000D-01 0.6633000D+03
EXPONENTS  0.1568000D+03 0.4998000D+02 0.1842000D+02 0.7240000D+01 0.2922000D+01
EXPONENTS  0.6633000D+03 0.1568000D+03 0.4998000D+02 0.1842000D+02 0.7240000D+01
EXPONENTS  0.2922000D+01 0.6633000D+03 0.1568000D+03 0.4998000D+02 0.1842000D+02
EXPONENTS  0.7240000D+01 0.2922000D+01 0.1568000D+03 0.4998000D+02 0.1842000D+02
EXPONENTS  0.7240000D+01 0.2922000D+01 0.3818000D+00 0.1568000D+03 0.4998000D+02
EXPONENTS  0.1842000D+02 0.7240000D+01 0.2922000D+01 0.3818000D+00 0.1568000D+03
EXPONENTS  0.4998000D+02 0.1842000D+02 0.7240000D+01 0.2922000D+01 0.3818000D+00
EXPONENTS  0.1022000D+01 0.1022000D+01 0.1022000D+01 0.1301000D+00 0.1301000D+00
EXPONENTS  0.1301000D+00 0.4190000D-01 0.4190000D-01 0.4190000D-01 0.1046000D+01
EXPONENTS  0.1046000D+01 0.1046000D+01 0.1046000D+01 0.1046000D+01 0.1046000D+01
EXPONENTS  0.3440000D+00 0.3440000D+00 0.3440000D+00 0.3440000D+00 0.3440000D+00
EXPONENTS  0.3440000D+00 0.1350000D+00 0.1350000D+00 0.1350000D+00 0.1350000D+00
EXPONENTS  0.1350000D+00 0.1350000D+00 0.7060000D+00 0.7060000D+00 0.7060000D+00
EXPONENTS  0.7060000D+00 0.7060000D+00 0.7060000D+00 0.7060000D+00 0.7060000D+00
EXPONENTS  0.7060000D+00 0.7060000D+00 0.3120000D+00 0.3120000D+00 0.3120000D+00
EXPONENTS  0.3120000D+00 0.3120000D+00 0.3120000D+00 0.3120000D+00 0.3120000D+00
EXPONENTS  0.3120000D+00 0.3120000D+00 0.1950000D+05 0.2923000D+04 0.6645000D+03
EXPONENTS  0.1875000D+03 0.6062000D+02 0.2142000D+02 0.7950000D+01 0.6645000D+03
EXPONENTS  0.1875000D+03 0.6062000D+02 0.2142000D+02 0.7950000D+01 0.8815000D+00
EXPONENTS  0.2257000D+01 0.3041000D+00 0.9158000D-01 0.4388000D+02 0.9926000D+01
EXPONENTS  0.2930000D+01 0.4388000D+02 0.9926000D+01 0.2930000D+01 0.4388000D+02
EXPONENTS  0.9926000D+01 0.2930000D+01 0.9132000D+00 0.9132000D+00 0.9132000D+00
EXPONENTS  0.2672000D+00 0.2672000D+00 0.2672000D+00 0.7361000D-01 0.7361000D-01
EXPONENTS  0.7361000D-01 0.3107000D+01 0.3107000D+01 0.3107000D+01 0.3107000D+01
EXPONENTS  0.3107000D+01 0.3107000D+01 0.8550000D+00 0.8550000D+00 0.8550000D+00
EXPONENTS  0.8550000D+00 0.8550000D+00 0.8550000D+00 0.2920000D+00 0.2920000D+00
EXPONENTS  0.2920000D+00 0.2920000D+00 0.2920000D+00 0.2920000D+00 0.1917000D+01
EXPONENTS  0.1917000D+01 0.1917000D+01 0.1917000D+01 0.1917000D+01 0.1917000D+01
EXPONENTS  0.1917000D+01 0.1917000D+01 0.1917000D+01 0.1917000D+01 0.7240000D+00
EXPONENTS  0.7240000D+00 0.7240000D+00 0.7240000D+00 0.7240000D+00 0.7240000D+00
EXPONENTS  0.7240000D+00 0.7240000D+00 0.7240000D+00 0.7240000D+00
MO    1     MO 0.0        OCC NO =    2.0000299  ORB. ENERGY =    0.000000
 -0.56844298D-09 -0.10596922D-08 -0.17910242D-08 -0.26922435D-08 -0.33069389D-08
 -0.27909398D-08 -0.10494662D-08 -0.37647994D-10 -0.28139543D-09 -0.10516390D-08
 -0.29339090D-08 -0.39306292D-08  0.46413402D-08  0.54818321D-08 -0.15532013D-07
 -0.96161071D-08 -0.28495935D-04 -0.26716750D-04 -0.19023918D-04  0.11222522D-03
  0.10521828D-03  0.74921681D-04 -0.32642995D-07 -0.30604882D-07 -0.21792499D-07
 -0.93549607D-04  0.36842645D-03 -0.14805505D-06 -0.11513123D-03  0.45342097D-03
 -0.16550324D-06 -0.21850605D-05  0.86049700D-05 -0.32484787D-08  0.61225757D-04
 -0.61415729D-04  0.18997141D-06 -0.31165436D-04  0.12186182D-03 -0.47991526D-03
  0.19585039D-03 -0.19581753D-03 -0.32866823D-07 -0.99614725D-04 -0.24336667D-04
  0.95937331D-04  0.41233706D-04 -0.41255283D-04  0.21577377D-07 -0.20974904D-04
  0.15776323D-04 -0.62111918D-04 -0.22786456D-04  0.89744795D-04  0.13599354D-06
 -0.22800629D-04  0.89762446D-04  0.26516534D-04  0.91159997D-04 -0.35899683D-03
 -0.26924514D-04 -0.13538722D-04  0.65007960D-05 -0.25587019D-04 -0.37879979D-07
  0.64737387D-05 -0.25555674D-04  0.48285129D-04 -0.25976127D-04  0.10231673D-03
 -0.48171489D-04 -0.24545471D-04 -0.37068481D-04 -0.66854532D-04 -0.98576969D-04
  0.38025968D-03  0.11064057D-02 -0.12862866D-04 -0.27170240D-06  0.73250707D-04
  0.22321514D-04 -0.22457644D-04  0.29030947D-03  0.26390803D-03 -0.19681005D-04
  0.16911914D-03  0.22616353D-04 -0.10659110D-03  0.44478178D-04  0.62112923D-04
 -0.78672358D-05  0.11319057D-04  0.28503903D-03 -0.42576909D-04 -0.10873339D-04
  0.53450248D-04 -0.78524942D-05 -0.14423404D-04  0.31083808D-04  0.26688791D-04
  0.48134333D-04  0.70974046D-04 -0.27376775D-03 -0.79663089D-03  0.92617832D-05
 -0.45254342D-04  0.27082438D-04 -0.16101839D-04 -0.14817096D-03  0.16119163D-03
 -0.19014205D-03 -0.76771651D-04  0.11052838D-03 -0.16366882D-04  0.52443610D-05
  0.39566077D-04 -0.44810438D-04  0.10563608D-03 -0.19410034D-03  0.74273193D-04
  0.23446141D-04  0.15065147D-04 -0.38511288D-04  0.31195965D-04  0.16651364D-05
  0.47553822D-04  0.10377780D-04  0.18716753D-04  0.27597842D-04 -0.10644619D-03
 -0.30978326D-03  0.36022673D-05  0.17201350D-04  0.11210364D-04 -0.62674785D-05
  0.26302472D-04  0.11689577D-03 -0.73978951D-04  0.24975879D-05  0.90385080D-04
 -0.63917075D-05  0.11634201D-04  0.58082408D-05 -0.17442442D-04 -0.52116681D-04
  0.91057310D-04  0.18966418D-05  0.18562386D-04 -0.35765040D-05 -0.14985882D-04
 -0.23049994D-04 -0.20744564D-04  0.53305261D-04  0.22359952D-06  0.41833084D-06
  0.72278290D-06  0.11717160D-05  0.17793632D-05  0.24731474D-05  0.29403828D-05
  0.26193951D-05  0.13008470D-05  0.20942536D-06  0.22095613D-08  0.10501193D-08
  0.35030224D-07  0.12207332D-06  0.43960578D-06  0.96905622D-06  0.13641184D-05
 -0.65072894D-07 -0.17851858D-05 -0.10555692D-05  0.19258656D-10  0.23326936D-09
  0.48645865D-09  0.13950787D-08  0.72444496D-10 -0.60162560D-08 -0.15544850D-07
  0.12665212D-07 -0.63486809D-07  0.77370770D-08  0.22947036D-08 -0.28573570D+01
 -0.37638076D+01 -0.41520689D+01 -0.34486183D+01 -0.18313120D+01 -0.47248808D+00
  0.11253365D+02  0.14823314D+02  0.16352435D+02  0.13581978D+02  0.72124072D+01
  0.18608388D+01 -0.43505246D-02 -0.57306587D-02 -0.63218136D-02 -0.52507612D-02
 -0.27882999D-02 -0.71939594D-03  0.11277591D-03 -0.10902450D-02 -0.15373592D-02
 -0.21988303D-02  0.11134567D-04  0.20165348D-02 -0.44415436D-03  0.42937986D-02
  0.60547042D-02  0.86598287D-02 -0.43852153D-04 -0.79418797D-02  0.17188184D-06
 -0.16616430D-05 -0.23430901D-05 -0.33512387D-05  0.16970201D-07  0.30734019D-05
 -0.18875395D-01  0.74338517D-01 -0.28740692D-04  0.15804226D-03 -0.62243276D-03
  0.24060181D-06  0.14385038D-04 -0.56653826D-04  0.21677895D-07  0.11614380D-04
 -0.11971451D-04  0.35707101D-06 -0.59477667D-05  0.23468479D-03 -0.92426449D-03
 -0.41856678D-05  0.43178673D-05 -0.13219952D-06  0.21440714D-05 -0.85847737D-04
  0.33809319D-03  0.13749920D-05 -0.13972825D-05  0.22290558D-07 -0.70165016D-06
  0.14815155D-04 -0.58346128D-04 -0.69331468D-06  0.27393000D-05  0.45482482D-08
 -0.71356351D-06  0.27674027D-05  0.35089346D-04  0.27935076D-05 -0.10985303D-04
 -0.35102991D-04 -0.17849119D-04 -0.34701381D-05  0.13664408D-04  0.21505713D-07
 -0.34657582D-05  0.13658225D-04 -0.75918777D-05  0.13876173D-04 -0.54651448D-04
  0.75273605D-05  0.38523582D-05 -0.26436143D-07 -0.49277016D-07 -0.83535520D-07
 -0.12648407D-06 -0.15813295D-06 -0.13602270D-06 -0.52167631D-07  0.50462738D-10
  0.66803216D-09  0.24264143D-08  0.71979124D-08  0.82941402D-08 -0.10074469D-07
 -0.10367998D-08  0.17942914D-07  0.18601239D-07  0.71161700D-04  0.69594588D-04
  0.45984087D-04 -0.28026277D-03 -0.27409087D-03 -0.18110342D-03  0.13789666D-06
  0.13485993D-06  0.89107655D-07  0.16747629D-05 -0.66102602D-05 -0.12503980D-08
  0.16798273D-04 -0.66146544D-04  0.45416821D-07  0.48328625D-05 -0.19033334D-04
  0.99636415D-08  0.67100755D-04 -0.67145493D-04  0.44737473D-07 -0.34131841D-04
  0.32740374D-04 -0.12890699D-03 -0.33697495D-04  0.33734574D-04 -0.37079156D-07
  0.17141907D-04 -0.25096772D-04  0.98819539D-04  0.17152725D-04 -0.17184928D-04
  0.32203112D-07 -0.87270465D-05  0.18443689D-04 -0.72619425D-04  0.17201611D-04
 -0.67779167D-04 -0.11223487D-06  0.17306639D-04 -0.67922337D-04 -0.18311690D-03
 -0.68911472D-04  0.27125984D-03  0.18345360D-03  0.93170974D-04 -0.61512436D-05
  0.24235733D-04  0.41011072D-07 -0.61845844D-05  0.24281095D-04  0.58111689D-04
  0.24638315D-04 -0.96988295D-04 -0.58234722D-04 -0.29569530D-04
MO    2     MO 0.0        OCC NO =    2.0000299  ORB. ENERGY =    0.000000
  0.11786857D-07  0.21973075D-07  0.37137491D-07  0.55824575D-07  0.68570492D-07
  0.57871076D-07  0.21761036D-07 -0.22584825D-10 -0.16880757D-09 -0.63087245D-09
 -0.17600359D-08 -0.23579629D-08  0.27843145D-08  0.47672497D-08 -0.62538005D-08
 -0.11255771D-08  0.11222879D-03  0.10522162D-03  0.74924065D-04  0.28495470D-04
  0.26716315D-04  0.19023608D-04 -0.29905200D-07 -0.28038026D-07 -0.19964745D-07
  0.36844953D-03  0.93551530D-04 -0.10319421D-06  0.45343642D-03  0.11513010D-03
 -0.13109929D-06  0.86051896D-05  0.21847933D-05 -0.24692011D-08  0.15481483D-04
 -0.15618628D-04  0.13714463D-06  0.12219226D-03 -0.48002856D-03 -0.12187876D-03
  0.49826010D-04 -0.49800589D-04 -0.25421003D-07  0.39176694D-03  0.95558438D-04
  0.24286268D-04  0.10474822D-04 -0.10491974D-04  0.17152052D-07  0.82429557D-04
 -0.62194245D-04 -0.15786414D-04  0.89760436D-04  0.22787063D-04  0.10236416D-06
  0.89779733D-04  0.22801809D-04  0.65581437D-05 -0.35906104D-03 -0.91162998D-04
 -0.68652362D-05  0.52576399D-04 -0.25567369D-04 -0.64962713D-05 -0.29454693D-07
 -0.25528787D-04 -0.64720068D-05  0.12333096D-04  0.10223089D-03  0.25960821D-04
 -0.12244732D-04  0.96700610D-04 -0.94169861D-05 -0.16983922D-04 -0.25042783D-04
  0.96608251D-04  0.28108284D-03 -0.32680102D-05  0.11244515D-05  0.18609003D-04
  0.56708261D-05  0.88751653D-04  0.73741519D-04  0.67027767D-04  0.77580319D-04
  0.42954873D-04  0.57310997D-05 -0.27082887D-04  0.11295374D-04  0.15787513D-04
  0.31342904D-04 -0.44151776D-04  0.72414317D-04 -0.10801953D-04 -0.27663646D-05
  0.13568317D-04  0.30967449D-04  0.56932562D-04  0.78827702D-05 -0.27393775D-04
 -0.49405801D-04 -0.72848824D-04  0.28102591D-03  0.81765811D-03 -0.95052828D-05
  0.47280671D-04 -0.26365913D-04  0.16527510D-04  0.21770335D-03 -0.51842464D-04
  0.19509583D-03  0.13615823D-03 -0.14124652D-04  0.16743994D-04  0.14681629D-04
 -0.60705105D-04  0.46023476D-04 -0.85297445D-04  0.16654054D-03 -0.13276716D-03
 -0.42481327D-05 -0.35242761D-04  0.39490894D-04 -0.91267791D-05  0.40374776D-04
  0.24101369D-04  0.36810469D-04  0.66389198D-04  0.97890833D-04 -0.37761670D-03
 -0.10987455D-02  0.12773417D-04  0.63149411D-04  0.36079329D-04 -0.22231189D-04
  0.26196444D-03  0.12242530D-03 -0.26228768D-03  0.15629905D-03  0.65126893D-04
 -0.22581197D-04 -0.10344554D-04  0.72260062D-04 -0.61915509D-04 -0.12527701D-03
  0.23899324D-03  0.15210285D-03  0.14930215D-04  0.38165470D-04 -0.53095685D-04
 -0.22897063D-04  0.34637565D-04  0.15171178D-05  0.41801307D-07  0.78205784D-07
  0.13512225D-06  0.21904904D-06  0.33264699D-06  0.46234802D-06  0.54969636D-06
  0.48968862D-06  0.24318972D-06  0.39151488D-07  0.41307133D-09  0.19754849D-09
  0.65898870D-08  0.22964437D-07  0.82698656D-07  0.18229890D-06  0.25661801D-06
 -0.12241515D-07 -0.33582923D-06 -0.19857372D-06  0.17694147D-11  0.21431933D-10
  0.44694037D-10  0.12817472D-09  0.66559346D-11 -0.55275155D-09 -0.14282038D-08
  0.11636333D-08 -0.12202328D-07  0.50408696D-08  0.50746277D-09  0.11253365D+02
  0.14823315D+02  0.16352436D+02  0.13581979D+02  0.72124076D+01  0.18608389D+01
  0.28573559D+01  0.37638062D+01  0.41520674D+01  0.34486170D+01  0.18313113D+01
  0.47248790D+00 -0.32148628D-02 -0.42347263D-02 -0.46715660D-02 -0.38801013D-02
 -0.20604415D-02 -0.53160467D-03 -0.44415459D-03  0.42938008D-02  0.60547073D-02
  0.86598331D-02 -0.43852176D-04 -0.79418838D-02 -0.11277576D-03  0.10902435D-02
  0.15373571D-02  0.21988274D-02 -0.11134552D-04 -0.20165321D-02  0.12680549D-06
 -0.12258739D-05 -0.17286101D-05 -0.24723698D-05  0.12519732D-07  0.22673963D-05
  0.74338532D-01  0.18875387D-01 -0.21234949D-04 -0.62243044D-03 -0.15804256D-03
  0.17673679D-06 -0.56653717D-04 -0.14385026D-04  0.16166087D-07  0.27804573D-05
 -0.30441671D-05  0.26370972D-06  0.22704280D-04 -0.92429247D-03 -0.23468470D-03
 -0.10012559D-05  0.10976451D-05 -0.96389166D-07 -0.81802201D-05  0.33810634D-03
  0.85846962D-04  0.33867356D-06 -0.35540416D-06  0.16730602D-07  0.27158542D-05
 -0.58349721D-04 -0.14815239D-04  0.27567077D-05  0.69540383D-06  0.31534686D-08
  0.27837788D-05  0.71628405D-06  0.89181584D-05 -0.11053902D-04 -0.28024955D-05
 -0.89276188D-05  0.70163217D-04  0.13660949D-04  0.34695643D-05  0.15665545D-07
  0.13655129D-04  0.34649536D-05 -0.19589030D-05 -0.54637975D-04 -0.13873647D-04
  0.19119064D-05 -0.15248951D-04 -0.48603278D-08 -0.90596593D-08 -0.15358141D-07
 -0.23254302D-07 -0.29073000D-07 -0.25007993D-07 -0.95911037D-08  0.54480815D-11
  0.72122398D-10  0.26196167D-09  0.77710437D-09  0.89545582D-09 -0.10876645D-08
 -0.26054066D-09  0.23427475D-08  0.27341755D-08 -0.28025930D-03 -0.27408747D-03
 -0.18110118D-03 -0.71161186D-04 -0.69594086D-04 -0.45983755D-04  0.89910623D-07
  0.87930626D-07  0.58099482D-07 -0.66001154D-05 -0.16794991D-05  0.33340277D-08
 -0.66154323D-04 -0.16794416D-04  0.20885537D-07 -0.19033380D-04 -0.48327067D-05
  0.58553530D-08  0.17040686D-04 -0.17077051D-04  0.36365425D-07  0.13411725D-03
 -0.12903909D-03 -0.32755042D-04 -0.85515476D-05  0.85796123D-05 -0.28064710D-07
 -0.67332725D-04  0.98887694D-04  0.25103325D-04  0.43493260D-05 -0.43701505D-05
  0.20824560D-07  0.34263658D-04 -0.72660202D-04 -0.18444450D-04 -0.67874211D-04
 -0.17209090D-04 -0.77315217D-07 -0.68032813D-04 -0.17313578D-04 -0.46435015D-04
  0.27165544D-03  0.68940848D-04  0.46666961D-04 -0.36587162D-03  0.24266375D-04
  0.61534224D-05  0.27687414D-07  0.24316547D-04  0.61866082D-05  0.14730887D-04
 -0.97115672D-04 -0.24646875D-04 -0.14813949D-04  0.11609664D-03
MO    3     MO 0.0        OCC NO =    2.0000210  ORB. ENERGY =    0.000000
 -0.13855199D-01 -0.25828882D-01 -0.43654330D-01 -0.65620600D-01 -0.80603154D-01
 -0.68026218D-01 -0.25579635D-01 -0.37336706D-05 -0.27906874D-04 -0.10429436D-03
 -0.29096503D-03 -0.38981292D-03  0.46029637D-03 -0.82834289D-03 -0.19318252D-02
 -0.79756627D-04  0.21216884D-06  0.19892177D-06  0.14164415D-06  0.51600925D-06
  0.48379147D-06  0.34448835D-06  0.11852172D-02  0.11112165D-02  0.79125234D-03
  0.10284220D-06  0.26001033D-06  0.61697429D-03 -0.67854797D-07 -0.17302881D-06
 -0.38646333D-03  0.82093081D-09  0.20281213D-08  0.47772668D-05 -0.10803914D-03
 -0.10803633D-03  0.21607547D-03 -0.27467177D-08  0.11556919D-06  0.27895297D-06
 -0.26757468D-04 -0.26750940D-04  0.53508408D-04 -0.25008917D-08  0.29358247D-07
  0.76012041D-07  0.11161061D-04  0.11161559D-04 -0.22322620D-04  0.25877419D-09
 -0.11651755D-07 -0.29129409D-07 -0.16786778D-07  0.35461565D-04  0.12113255D-04
  0.37372014D-07 -0.10641783D-03 -0.18122390D-04  0.12988321D-07  0.33134148D-07
 -0.18217375D-04  0.38560810D-07  0.31651538D-08  0.52355364D-04 -0.87411612D-04
  0.83018553D-07 -0.15683634D-03  0.13118655D-03 -0.92514014D-07 -0.22975096D-06
  0.13104829D-03  0.55786785D-07 -0.52830508D-05 -0.95281997D-05 -0.14049325D-04
  0.75468148D-03  0.23758124D-03  0.49936120D-05  0.17552413D-07  0.95004277D-04
  0.29544068D-04  0.24719369D-07  0.19872797D-03 -0.10925913D-04  0.13040144D-07
  0.44380738D-04  0.39394417D-04 -0.75485104D-04  0.52956872D-04  0.22528233D-04
  0.47181456D-07  0.45064830D-07  0.75524750D-04 -0.99262510D-05 -0.12187405D-04
  0.22113656D-04 -0.67190154D-08  0.68346257D-08 -0.34904058D-04 -0.52821851D-05
 -0.95266384D-05 -0.14047023D-04  0.75469285D-03  0.23760234D-03  0.49940725D-05
  0.82267415D-04 -0.47494742D-04  0.29593310D-04  0.17209734D-03 -0.99393632D-04
 -0.10835751D-04  0.38427213D-04 -0.22171529D-04  0.39416621D-04  0.20819708D-04
 -0.43387599D-04  0.22567891D-04 -0.11120164D-03  0.65469650D-04 -0.37705075D-04
 -0.11615732D-04 -0.10480306D-04  0.22096038D-04  0.19342021D-05 -0.30241561D-04
  0.17499944D-04 -0.52815880D-05 -0.95255614D-05 -0.14045435D-04  0.75470237D-03
  0.23760347D-03  0.49941926D-05 -0.82270076D-04 -0.47474675D-04  0.29623604D-04
 -0.17212806D-03 -0.99352311D-04 -0.10774338D-04 -0.38419015D-04 -0.22162297D-04
  0.39430203D-04  0.20824729D-04 -0.43415150D-04  0.22590421D-04  0.11115635D-03
 -0.65478976D-04 -0.37729198D-04 -0.11605298D-04 -0.10479943D-04  0.22085241D-04
 -0.19267697D-05  0.30269863D-04  0.17492994D-04 -0.15412847D+00 -0.28835792D+00
 -0.49821852D+00 -0.80767076D+00 -0.12265255D+01 -0.17047551D+01 -0.20268232D+01
 -0.18055645D+01 -0.89668153D+00 -0.14435814D+00 -0.15230636D-02 -0.72062222D-03
 -0.24038751D-01 -0.83770234D-01 -0.30167018D+00 -0.66499436D+00 -0.93609743D+00
  0.44654898D-01  0.12250461D+01  0.72436206D+00 -0.15472562D-04 -0.18741051D-03
 -0.39082487D-03 -0.11208177D-02 -0.58202501D-04  0.48335094D-02  0.12488860D-01
 -0.10175335D-01  0.46465054D-01 -0.38220016D-03 -0.13677106D-03  0.10550570D-02
  0.13897568D-02  0.15331193D-02  0.12733756D-02  0.67619780D-03  0.17446257D-03
  0.25976595D-02  0.34217253D-02  0.37746986D-02  0.31351827D-02  0.16648690D-02
  0.42954491D-03  0.59935624D+01  0.78949238D+01  0.87093367D+01  0.72337861D+01
  0.38413411D+01  0.99108609D+00 -0.37463132D-07  0.36216945D-06  0.51069673D-06
  0.73043142D-06 -0.36988019D-08 -0.66987451D-06 -0.92220947D-07  0.89153278D-06
  0.12571543D-05  0.17980632D-05 -0.91051389D-08 -0.16489935D-05 -0.21268596D-03
  0.20561110D-02  0.28993312D-02  0.41468105D-02 -0.20998865D-04 -0.38030164D-02
  0.73971066D-05  0.18208519D-04  0.42016743D-01 -0.85382179D-07 -0.20938498D-06
 -0.48404561D-03 -0.17270241D-08 -0.43381344D-08 -0.99652856D-05 -0.10275014D-05
 -0.10283606D-05  0.20558620D-05  0.38584911D-09  0.16927372D-09  0.17880859D-08
 -0.11274023D-03 -0.11273996D-03  0.22548019D-03 -0.77865558D-10  0.11980802D-06
  0.29246072D-06 -0.14098169D-04 -0.14098048D-04  0.28196217D-04  0.11110310D-10
  0.14913514D-07  0.36166510D-07  0.15642553D-08 -0.75549096D-05  0.50292520D-05
 -0.99665638D-08  0.22652929D-04 -0.75545469D-05  0.52737979D-08  0.11799817D-07
 -0.75332092D-05 -0.81101817D-08  0.81946836D-08  0.22212508D-05 -0.34029589D-04
  0.11552762D-07 -0.65761661D-05  0.51047672D-04 -0.36136813D-07 -0.87586203D-07
  0.51041094D-04  0.23900477D-08 -0.86525264D-03 -0.16128324D-02 -0.27341102D-02
 -0.41398127D-02 -0.51756776D-02 -0.44520109D-02 -0.17074420D-02 -0.68198058D-06
 -0.90281459D-05 -0.32791869D-04 -0.97276461D-04 -0.11209147D-03  0.13615179D-03
 -0.95689094D-04 -0.16834268D-03  0.86904697D-05  0.68552068D-06  0.67042425D-06
  0.44297765D-06  0.18286078D-05  0.17883385D-05  0.11816308D-05  0.39812794D-02
  0.38936043D-02  0.25726690D-02  0.15308329D-06  0.41331884D-06  0.89291440D-03
  0.35783358D-08  0.63715984D-08  0.18704326D-04  0.15121052D-08  0.43065734D-08
  0.89245065D-05 -0.37795184D-04 -0.37792204D-04  0.75587387D-04  0.48891195D-09
  0.39358762D-07  0.10524333D-06  0.22654202D-04  0.22652907D-04 -0.45307109D-04
 -0.18501401D-09 -0.23682743D-07 -0.61801199D-07  0.18404963D-04  0.18405160D-04
 -0.36810124D-04 -0.24025304D-10 -0.18583674D-07 -0.53162204D-07 -0.99649318D-08
 -0.25694636D-05  0.44674634D-04 -0.13832058D-07  0.75675550D-05 -0.67018574D-04
  0.43726853D-07  0.14083582D-06 -0.67005328D-04  0.11369844D-09  0.59751331D-08
  0.81625099D-06 -0.25207010D-04  0.71917384D-08 -0.23728790D-05  0.37812659D-04
 -0.25117138D-07 -0.75873999D-07  0.37808372D-04 -0.25321965D-10
MO    4     MO 0.0        OCC NO =    2.0000125  ORB. ENERGY =    0.000000
  0.28051967D-01  0.52294519D-01  0.88384861D-01  0.13285893D+00  0.16319340D+00
  0.13772947D+00  0.51789878D-01 -0.11719371D-05 -0.87595041D-05 -0.32736267D-04
 -0.91329087D-04 -0.12235580D-03  0.14447938D-03  0.27221053D-02 -0.35465643D-02
 -0.36197884D-04  0.63584661D-06  0.59614662D-06  0.42449191D-06  0.15745326D-05
  0.14762244D-05  0.10511597D-05  0.36136410D-02  0.33880181D-02  0.24124707D-02
  0.22030424D-06  0.54499229D-06  0.13046184D-02 -0.75661617D-07 -0.19187394D-06
 -0.41956756D-03  0.70067056D-09  0.15168040D-08  0.39575513D-05 -0.31540861D-03
 -0.31540746D-03  0.63081607D-03 -0.27627848D-08  0.33396140D-06  0.82179630D-06
  0.21708962D-05  0.21874709D-05 -0.43583671D-05 -0.54131286D-08  0.15926238D-08
  0.11309794D-08 -0.18161215D-04 -0.18159671D-04  0.36320885D-04 -0.33089078D-09
  0.19093862D-07  0.48998510D-07  0.86929440D-08 -0.45057022D-04  0.32229865D-04
 -0.60070338D-07  0.13508350D-03 -0.48403017D-04  0.33991506D-07  0.87566870D-07
 -0.48286577D-04 -0.45626791D-07  0.11678933D-07  0.82463248D-04 -0.16261763D-03
  0.13742972D-06 -0.24696471D-03  0.24403558D-03 -0.17246652D-06 -0.42503142D-06
  0.24381730D-03  0.88942219D-07 -0.90461881D-04 -0.16315173D-03 -0.24056713D-03
  0.10090239D-02  0.67705152D-03  0.40088829D-05 -0.16228151D-08 -0.61904939D-04
  0.36389850D-04  0.30801280D-07  0.29770067D-03 -0.46927889D-04  0.27224833D-07
  0.11021556D-03  0.75171272D-04 -0.14233295D-03  0.19519531D-04  0.12281342D-03
  0.67775811D-07  0.11305928D-06  0.14691538D-03 -0.16182411D-04 -0.21285089D-04
  0.37467500D-04 -0.12408050D-07  0.11526774D-07 -0.61155782D-04 -0.90461676D-04
 -0.16315136D-03 -0.24056658D-03  0.10090579D-02  0.67708161D-03  0.40102735D-05
 -0.53607875D-04  0.30978369D-04  0.36366754D-04  0.25781697D-03 -0.14891882D-03
 -0.46787543D-04  0.95430639D-04 -0.55073844D-04  0.75227276D-04 -0.20987603D-04
 -0.10190544D-03  0.12289304D-03 -0.14009930D-03  0.12725927D-03 -0.73208903D-04
 -0.19998130D-04 -0.17437760D-04  0.37435889D-04  0.43776023D-05 -0.52983277D-04
  0.30656934D-04 -0.90462125D-04 -0.16315217D-03 -0.24056778D-03  0.10090750D-02
  0.67709621D-03  0.40101972D-05  0.53626169D-04  0.30963513D-04  0.36348976D-04
 -0.25787582D-03 -0.14885713D-03 -0.46699906D-04 -0.95419723D-04 -0.55050411D-04
  0.75261386D-04 -0.20993674D-04 -0.10194014D-03  0.12293381D-03  0.14003740D-03
 -0.12717586D-03 -0.73226586D-04 -0.19980092D-04 -0.17437101D-04  0.37417193D-04
 -0.43645666D-05  0.53033046D-04  0.30645380D-04  0.92092824D-01  0.17229585D+00
  0.29768901D+00  0.48258886D+00  0.73285749D+00  0.10186030D+01  0.12110409D+01
  0.10788373D+01  0.53577341D+00  0.86254986D-01  0.91004105D-03  0.43117011D-03
  0.14383113D-01  0.50122269D-01  0.18049841D+00  0.39788628D+00  0.56009546D+00
 -0.26718379D-01 -0.73298218D+00 -0.43340777D+00  0.63967087D-05  0.77479763D-04
  0.16157588D-03  0.46337149D-03  0.24062236D-04 -0.19982826D-02 -0.51631784D-02
  0.42067147D-02 -0.28761359D-01  0.14020977D-02 -0.18767030D-03  0.17411385D-02
  0.22934867D-02  0.25300748D-02  0.21014252D-02  0.11159151D-02  0.28791193D-03
  0.42545993D-02  0.56043026D-02  0.61824230D-02  0.51349864D-02  0.27268203D-02
  0.70353388D-03  0.98813315D+01  0.13016025D+02  0.14358713D+02  0.11926036D+02
  0.63330558D+01  0.16339615D+01 -0.59296323D-07  0.57323870D-06  0.80832641D-06
  0.11561206D-05 -0.58544319D-08 -0.10602716D-05 -0.14481563D-06  0.13999843D-05
  0.19741240D-05  0.28235196D-05 -0.14297906D-07 -0.25894338D-05 -0.33617824D-03
  0.32499549D-02  0.45827757D-02  0.65545816D-02 -0.33191478D-04 -0.60111695D-02
  0.12726410D-04  0.31096682D-04  0.72216410D-01 -0.52302386D-07 -0.13025055D-06
 -0.29888354D-03 -0.66177823D-09 -0.18049787D-08 -0.40864390D-05  0.44597550D-03
  0.44597465D-03 -0.89195015D-03  0.21305807D-09 -0.47334180D-06 -0.11534667D-05
 -0.30361651D-03 -0.30361620D-03  0.60723271D-03 -0.10363099D-09  0.32221923D-06
  0.78633664D-06  0.50934330D-05  0.50935336D-05 -0.10186967D-04  0.64186386D-11
 -0.56661468D-08 -0.12741455D-07  0.18258552D-07 -0.14862017D-04 -0.47012845D-04
 -0.44811600D-08  0.44709061D-04  0.70499171D-04 -0.50294496D-07 -0.12300935D-06
  0.70539364D-04 -0.16365605D-07  0.14446896D-07  0.43942918D-05 -0.60839643D-04
  0.21096449D-07 -0.13025452D-04  0.91265558D-04 -0.64437137D-07 -0.15742318D-06
  0.91253371D-04  0.49239199D-08 -0.62179947D-02 -0.11590353D-01 -0.19648230D-01