 Entering Gaussian System, Link 0=/home/bruns/programas/chemistry/gaussian/g09/g09
 Input=GAUSSIAN.com
 Output=GAUSSIAN.log
 Initial command:
 /home/bruns/programas/chemistry/gaussian/g09/l1.exe /home/bruns/programas/chemistry/gaussian/work/Gau-73671.inp -scrdir=/home/bruns/programas/chemistry/gaussian/work/
 Entering Link 1 = /home/bruns/programas/chemistry/gaussian/g09/l1.exe PID=     73673.
  
 Copyright (c) 1988,1990,1992,1993,1995,1998,2003,2009,2010,
            Gaussian, Inc.  All Rights Reserved.
  
 This is part of the Gaussian(R) 09 program.  It is based on
 the Gaussian(R) 03 system (copyright 2003, Gaussian, Inc.),
 the Gaussian(R) 98 system (copyright 1998, Gaussian, Inc.),
 the Gaussian(R) 94 system (copyright 1995, Gaussian, Inc.),
 the Gaussian 92(TM) system (copyright 1992, Gaussian, Inc.),
 the Gaussian 90(TM) system (copyright 1990, Gaussian, Inc.),
 the Gaussian 88(TM) system (copyright 1988, Gaussian, Inc.),
 the Gaussian 86(TM) system (copyright 1986, Carnegie Mellon
 University), and the Gaussian 82(TM) system (copyright 1983,
 Carnegie Mellon University). Gaussian is a federally registered
 trademark of Gaussian, Inc.
  
 This software contains proprietary and confidential information,
 including trade secrets, belonging to Gaussian, Inc.
  
 This software is provided under written license and may be
 used, copied, transmitted, or stored only in accord with that
 written license.
  
 The following legend is applicable only to US Government
 contracts under FAR:
  
                    RESTRICTED RIGHTS LEGEND
  
 Use, reproduction and disclosure by the US Government is
 subject to restrictions as set forth in subparagraphs (a)
 and (c) of the Commercial Computer Software - Restricted
 Rights clause in FAR 52.227-19.
  
 Gaussian, Inc.
 340 Quinnipiac St., Bldg. 40, Wallingford CT 06492
  
  
 ---------------------------------------------------------------
 Warning -- This program may not be used in any manner that
 competes with the business of Gaussian, Inc. or will provide
 assistance to any competitor of Gaussian, Inc.  The licensee
 of this program is prohibited from giving any competitor of
 Gaussian, Inc. access to this program.  By using this program,
 the user acknowledges that Gaussian, Inc. is engaged in the
 business of creating and licensing software in the field of
 computational chemistry and represents and warrants to the
 licensee that it is not a competitor of Gaussian, Inc. and that
 it will not use this program in any manner prohibited above.
 ---------------------------------------------------------------
  

 Cite this work as:
 Gaussian 09, Revision B.01,
 M. J. Frisch, G. W. Trucks, H. B. Schlegel, G. E. Scuseria, 
 M. A. Robb, J. R. Cheeseman, G. Scalmani, V. Barone, B. Mennucci, 
 G. A. Petersson, H. Nakatsuji, M. Caricato, X. Li, H. P. Hratchian, 
 A. F. Izmaylov, J. Bloino, G. Zheng, J. L. Sonnenberg, M. Hada, 
 M. Ehara, K. Toyota, R. Fukuda, J. Hasegawa, M. Ishida, T. Nakajima, 
 Y. Honda, O. Kitao, H. Nakai, T. Vreven, J. A. Montgomery, Jr., 
 J. E. Peralta, F. Ogliaro, M. Bearpark, J. J. Heyd, E. Brothers, 
 K. N. Kudin, V. N. Staroverov, T. Keith, R. Kobayashi, J. Normand, 
 K. Raghavachari, A. Rendell, J. C. Burant, S. S. Iyengar, J. Tomasi, 
 M. Cossi, N. Rega, J. M. Millam, M. Klene, J. E. Knox, J. B. Cross, 
 V. Bakken, C. Adamo, J. Jaramillo, R. Gomperts, R. E. Stratmann, 
 O. Yazyev, A. J. Austin, R. Cammi, C. Pomelli, J. W. Ochterski, 
 R. L. Martin, K. Morokuma, V. G. Zakrzewski, G. A. Voth, 
 P. Salvador, J. J. Dannenberg, S. Dapprich, A. D. Daniels, 
 O. Farkas, J. B. Foresman, J. V. Ortiz, J. Cioslowski, 
 and D. J. Fox, Gaussian, Inc., Wallingford CT, 2010.
 
 ******************************************
 Gaussian 09:  EM64L-G09RevB.01 12-Aug-2010
                23-Aug-2020 
 ******************************************
 %nproc=8
 Will use up to    8 processors via shared memory.
 %mem=8GB
 -----------------------------------------------------
 # QCISD aug-cc-pvtz nosymm density=current output=wfn
 -----------------------------------------------------
 1/30=1,38=1/1;
 2/12=2,15=1,17=6,18=5,40=1/2;
 3/5=16,6=1,7=10,11=9,16=1,25=1,30=1,71=1/1,2,3;
 4//1;
 5/5=2,38=5/2;
 8/6=4,9=120000,10=1/1,4;
 9/5=8,15=1/13;
 11/28=-7,31=1,32=3,42=3/11;
 10/5=6,13=10,31=1/2;
 6/7=2,8=2,9=2,10=2,22=-1,31=1/1;
 99/5=1,6=1100,9=1/99;
 ----------------------
 clch3f_ts-wavefunction
 ----------------------
 Symbolic Z-matrix:
 Charge = -1 Multiplicity = 1
 C                     0.00018  -0.00997  -0.49771 
 H                     0.00002  -1.05257  -0.62073 
 H                    -0.91131   0.52637  -0.62125 
 H                     0.91175   0.52613  -0.62157 
 Cl                    0.00056   0.00096   1.64472 
 F                    -0.00019  -0.00092  -2.59347 
 
                          Input orientation:                          
 ---------------------------------------------------------------------
 Center     Atomic      Atomic             Coordinates (Angstroms)
 Number     Number       Type             X           Y           Z
 ---------------------------------------------------------------------
      1          6           0        0.000175   -0.009971   -0.497709
      2          1           0        0.000019   -1.052570   -0.620726
      3          1           0       -0.911312    0.526365   -0.621245
      4          1           0        0.911750    0.526132   -0.621570
      5         17           0        0.000555    0.000962    1.644718
      6          9           0       -0.000186   -0.000921   -2.593468
 ---------------------------------------------------------------------
                    Distance matrix (angstroms):
                    1          2          3          4          5
     1  C    0.000000
     2  H    1.049831   0.000000
     3  H    1.064766   1.823063   0.000000
     4  H    1.064761   1.823062   1.823062   0.000000
     5  Cl   2.142455   2.498433   2.498427   2.498428   0.000000
     6  F    2.095779   2.235548   2.235586   2.235575   4.238186
                    6
     6  F    0.000000
 Symmetry turned off by external request.
 Stoichiometry    CH3ClF(1-)
 Framework group  C1[X(CH3ClF)]
 Deg. of freedom    12
 Full point group                 C1      NOp   1
 Rotational constants (GHZ):    150.8353130      2.2147216      2.2147121
 Standard basis: Aug-CC-pVTZ (5D, 7F)
 Integral buffers will be    131072 words long.
 Raffenetti 1 integral format.
 Two-electron integral symmetry is turned off.
   211 basis functions,   339 primitive gaussians,   244 cartesian basis functions
    18 alpha electrons       18 beta electrons
       nuclear repulsion energy        84.9840294944 Hartrees.
 NAtoms=    6 NActive=    6 NUniq=    6 SFac= 1.00D+00 NAtFMM=   50 NAOKFM=F Big=F
 One-electron integrals computed using PRISM.
 NBasis=   211 RedAO= T  NBF=   211
 NBsUse=   211 1.00D-06 NBFU=   211
 Harris functional with IExCor=  205 diagonalized for initial guess.
 ExpMin= 2.53D-02 ExpMax= 4.56D+05 ExpMxC= 1.44D+03 IAcc=3 IRadAn=         0 AccDes= 0.00D+00
 HarFok:  IExCor=  205 AccDes= 0.00D+00 IRadAn=         0 IDoV= 1
 ScaDFX=  1.000000  1.000000  1.000000  1.000000
 FoFCou: FMM=F IPFlag=           0 FMFlag=      100000 FMFlg1=           0
         NFxFlg=           0 DoJE=T BraDBF=F KetDBF=T FulRan=T
         Omega=  0.000000  0.000000  1.000000  0.000000  0.000000 ICntrl=     500 IOpCl=  0
         NMat0=    1 NMatS0=    1 NMatT0=    0 NMatD0=    1 NMtDS0=    0 NMtDT0=    0
         I1Cent=           4 NGrid=           0.
 Symmetry not used in FoFCou.
 Requested convergence on RMS density matrix=1.00D-08 within 128 cycles.
 Requested convergence on MAX density matrix=1.00D-06.
 Requested convergence on             energy=1.00D-06.
 No special actions if energy rises.
 Keep R1 ints in memory in canonical form, NReq=454274131.
 SCF Done:  E(RHF) =  -598.616986524     A.U. after   12 cycles
             Convg  =    0.9415D-08             -V/T =  2.0001
 ExpMin= 2.53D-02 ExpMax= 4.56D+05 ExpMxC= 1.44D+03 IAcc=3 IRadAn=         5 AccDes= 0.00D+00
 HarFok:  IExCor=  205 AccDes= 0.00D+00 IRadAn=         5 IDoV=-2
 ScaDFX=  1.000000  1.000000  1.000000  1.000000
 DSYEVD returned Info=          93 IAlg= 4 N=    46 NDim=    46 NE2=    21472034 trying DSYEV.
 Range of M.O.s used for correlation:     8   211
 NBasis=   211 NAE=    18 NBE=    18 NFC=     7 NFV=     0
 NROrb=    204 NOA=    11 NOB=    11 NVA=   193 NVB=   193

 **** Warning!!: The largest alpha MO coefficient is  0.35016283D+02

 Semi-Direct transformation.
 ModeAB=           2 MOrb=            11 LenV=    1072528222
 LASXX=     44979418 LTotXX=    44979418 LenRXX=    44979418
 LTotAB=    45631872 MaxLAS=    67073160 LenRXY=    67073160
 NonZer=    89958836 LenScr=   135708672 LnRSAI=           0
 LnScr1=           0 LExtra=           0 Total=    247761250
 MaxDsk=          -1 SrtSym=           F ITran=            4
 JobTyp=0 Pass  1:  I=   1 to  11.
 (rs|ai) integrals will be sorted in core.
 Spin components of T(2) and E(2):
     alpha-alpha T2 =       0.2567418657D-01 E2=     -0.8208292951D-01
     alpha-beta  T2 =       0.1452608608D+00 E2=     -0.5099830122D+00
     beta-beta   T2 =       0.2567418657D-01 E2=     -0.8208292951D-01
 ANorm=    0.1093896354D+01
 E2 =    -0.6741488712D+00 EUMP2 =    -0.59929113539490D+03
 R2 and R3 integrals will be kept in memory, NReq=   900794930.
 Iterations=  50 Convergence= 0.100D-07
 Iteration Nr.   1
 **********************
 DD1Dir will call FoFMem   1 times, MxPair=       132
 NAB=    66 NAA=     0 NBB=     0.
 MP4(R+Q)=  0.14439557D-01
 E3=       -0.18700916D-01        EUMP3=      -0.59930983631D+03
 E4(DQ)=   -0.45163425D-03        UMP4(DQ)=   -0.59931028795D+03
 E4(SDQ)=  -0.98185501D-02        UMP4(SDQ)=  -0.59931965486D+03
 DE(Corr)= -0.67841023     E(Corr)=     -599.29539675    
 NORM(A)=   0.10996883D+01
 Iteration Nr.   2
 **********************
 DD1Dir will call FoFMem   1 times, MxPair=       132
 NAB=    66 NAA=     0 NBB=     0.
 DE(Corr)= -0.70061141     E(CORR)=     -599.31759793     Delta=-2.22D-02
 NORM(A)=   0.11070435D+01
 Iteration Nr.   3
 **********************
 DD1Dir will call FoFMem   1 times, MxPair=       132
 NAB=    66 NAA=     0 NBB=     0.
 DE(Corr)= -0.69821435     E(CORR)=     -599.31520087     Delta= 2.40D-03
 NORM(A)=   0.11110292D+01
 Iteration Nr.   4
 **********************
 DD1Dir will call FoFMem   1 times, MxPair=       132
 NAB=    66 NAA=     0 NBB=     0.
 DE(Corr)= -0.70127383     E(CORR)=     -599.31826035     Delta=-3.06D-03
 NORM(A)=   0.11131333D+01
 Iteration Nr.   5
 **********************
 DD1Dir will call FoFMem   1 times, MxPair=       132
 NAB=    66 NAA=     0 NBB=     0.
 DE(Corr)= -0.70186888     E(CORR)=     -599.31885540     Delta=-5.95D-04
 NORM(A)=   0.11141645D+01
 Iteration Nr.   6
 **********************
 DD1Dir will call FoFMem   1 times, MxPair=       132
 NAB=    66 NAA=     0 NBB=     0.
 DE(Corr)= -0.70201569     E(CORR)=     -599.31900221     Delta=-1.47D-04
 NORM(A)=   0.11144904D+01
 Iteration Nr.   7
 **********************
 DD1Dir will call FoFMem   1 times, MxPair=       132
 NAB=    66 NAA=     0 NBB=     0.
 DE(Corr)= -0.70204542     E(CORR)=     -599.31903194     Delta=-2.97D-05
 NORM(A)=   0.11145215D+01
 Iteration Nr.   8
 **********************
 DD1Dir will call FoFMem   1 times, MxPair=       132
 NAB=    66 NAA=     0 NBB=     0.
 DE(Corr)= -0.70205930     E(CORR)=     -599.31904582     Delta=-1.39D-05
 NORM(A)=   0.11145393D+01
 Iteration Nr.   9
 **********************
 DD1Dir will call FoFMem   1 times, MxPair=       132
 NAB=    66 NAA=     0 NBB=     0.
 DE(Corr)= -0.70203608     E(CORR)=     -599.31902260     Delta= 2.32D-05
 NORM(A)=   0.11145425D+01
 Iteration Nr.  10
 **********************
 DD1Dir will call FoFMem   1 times, MxPair=       132
 NAB=    66 NAA=     0 NBB=     0.
 DE(Corr)= -0.70205538     E(CORR)=     -599.31904190     Delta=-1.93D-05
 NORM(A)=   0.11145427D+01
 Iteration Nr.  11
 **********************
 DD1Dir will call FoFMem   1 times, MxPair=       132
 NAB=    66 NAA=     0 NBB=     0.
 DE(Corr)= -0.70204619     E(CORR)=     -599.31903271     Delta= 9.19D-06
 NORM(A)=   0.11145456D+01
 Iteration Nr.  12
 **********************
 DD1Dir will call FoFMem   1 times, MxPair=       132
 NAB=    66 NAA=     0 NBB=     0.
 DE(Corr)= -0.70204994     E(CORR)=     -599.31903646     Delta=-3.75D-06
 NORM(A)=   0.11145461D+01
 Iteration Nr.  13
 **********************
 DD1Dir will call FoFMem   1 times, MxPair=       132
 NAB=    66 NAA=     0 NBB=     0.
 DE(Corr)= -0.70205051     E(CORR)=     -599.31903703     Delta=-5.67D-07
 NORM(A)=   0.11145468D+01
 Iteration Nr.  14
 **********************
 DD1Dir will call FoFMem   1 times, MxPair=       132
 NAB=    66 NAA=     0 NBB=     0.
 DE(Corr)= -0.70205073     E(CORR)=     -599.31903725     Delta=-2.24D-07
 NORM(A)=   0.11145469D+01
 Iteration Nr.  15
 **********************
 DD1Dir will call FoFMem   1 times, MxPair=       132
 NAB=    66 NAA=     0 NBB=     0.
 DE(Corr)= -0.70205064     E(CORR)=     -599.31903716     Delta= 9.04D-08
 NORM(A)=   0.11145468D+01
 Iteration Nr.  16
 **********************
 DD1Dir will call FoFMem   1 times, MxPair=       132
 NAB=    66 NAA=     0 NBB=     0.
 DE(Corr)= -0.70205084     E(CORR)=     -599.31903737     Delta=-2.03D-07
 NORM(A)=   0.11145467D+01
 Iteration Nr.  17
 **********************
 DD1Dir will call FoFMem   1 times, MxPair=       132
 NAB=    66 NAA=     0 NBB=     0.
 DE(Corr)= -0.70205071     E(CORR)=     -599.31903724     Delta= 1.31D-07
 NORM(A)=   0.11145465D+01
 Iteration Nr.  18
 **********************
 DD1Dir will call FoFMem   1 times, MxPair=       132
 NAB=    66 NAA=     0 NBB=     0.
 DE(Corr)= -0.70205075     E(CORR)=     -599.31903727     Delta=-3.69D-08
 NORM(A)=   0.11145464D+01
 Iteration Nr.  19
 **********************
 DD1Dir will call FoFMem   1 times, MxPair=       132
 NAB=    66 NAA=     0 NBB=     0.
 DE(Corr)= -0.70205070     E(CORR)=     -599.31903722     Delta= 5.29D-08
 NORM(A)=   0.11145463D+01
 Iteration Nr.  20
 **********************
 DD1Dir will call FoFMem   1 times, MxPair=       132
 NAB=    66 NAA=     0 NBB=     0.
 DE(Corr)= -0.70205070     E(CORR)=     -599.31903722     Delta=-2.94D-09
 NORM(A)=   0.11145462D+01
 Iteration Nr.  21
 **********************
 DD1Dir will call FoFMem   1 times, MxPair=       132
 NAB=    66 NAA=     0 NBB=     0.
 DE(Corr)= -0.70205068     E(CORR)=     -599.31903720     Delta= 1.99D-08
 NORM(A)=   0.11145462D+01
 Iteration Nr.  22
 **********************
 DD1Dir will call FoFMem   1 times, MxPair=       132
 NAB=    66 NAA=     0 NBB=     0.
 DE(Corr)= -0.70205068     E(CORR)=     -599.31903720     Delta= 2.21D-09
 NORM(A)=   0.11145462D+01
 Iteration Nr.  23
 **********************
 DD1Dir will call FoFMem   1 times, MxPair=       132
 NAB=    66 NAA=     0 NBB=     0.
 DE(Corr)= -0.70205067     E(CORR)=     -599.31903720     Delta= 5.23D-09
 NORM(A)=   0.11145462D+01
 Iteration Nr.  24
 **********************
 DD1Dir will call FoFMem   1 times, MxPair=       132
 NAB=    66 NAA=     0 NBB=     0.
 DE(Corr)= -0.70205067     E(CORR)=     -599.31903720     Delta=-7.48D-10
 NORM(A)=   0.11145462D+01
 Iteration Nr.  25
 **********************
 DD1Dir will call FoFMem   1 times, MxPair=       132
 NAB=    66 NAA=     0 NBB=     0.
 DE(Corr)= -0.70205067     E(CORR)=     -599.31903719     Delta= 3.92D-09
 NORM(A)=   0.11145462D+01
 Iteration Nr.  26
 **********************
 DD1Dir will call FoFMem   1 times, MxPair=       132
 NAB=    66 NAA=     0 NBB=     0.
 DE(Corr)= -0.70205067     E(CORR)=     -599.31903720     Delta=-2.87D-09
 NORM(A)=   0.11145462D+01
 Iteration Nr.  27
 **********************
 DD1Dir will call FoFMem   1 times, MxPair=       132
 NAB=    66 NAA=     0 NBB=     0.
 DE(Corr)= -0.70205067     E(CORR)=     -599.31903719     Delta= 2.63D-09
 NORM(A)=   0.11145462D+01
 Largest amplitude= 6.61D-02

 Z-AMPLITUDE ITERATIONS

 Iteration Nr.   1
 **********************
 DD1Dir will call FoFMem   1 times, MxPair=       132
 NAB=    66 NAA=     0 NBB=     0.
 DE(Z)  -0.68265730D+00          E(Z)=    -0.59929964382D+03
 NORM(A)=   0.11145110D+01
 Iteration Nr.   2
 **********************
 DD1Dir will call FoFMem   1 times, MxPair=       132
 NAB=    66 NAA=     0 NBB=     0.
 DE(Z)  -0.68265344D+00          E(Z)=    -0.59929963996D+03
 NORM(A)=   0.11145250D+01
 Iteration Nr.   3
 **********************
 DD1Dir will call FoFMem   1 times, MxPair=       132
 NAB=    66 NAA=     0 NBB=     0.
 DE(Z)  -0.68265528D+00          E(Z)=    -0.59929964181D+03
 NORM(A)=   0.11144999D+01
 Iteration Nr.   4
 **********************
 DD1Dir will call FoFMem   1 times, MxPair=       132
 NAB=    66 NAA=     0 NBB=     0.
 DE(Z)  -0.68265267D+00          E(Z)=    -0.59929963920D+03
 NORM(A)=   0.11144754D+01
 Iteration Nr.   5
 **********************
 DD1Dir will call FoFMem   1 times, MxPair=       132
 NAB=    66 NAA=     0 NBB=     0.
 DE(Z)  -0.68265035D+00          E(Z)=    -0.59929963687D+03
 NORM(A)=   0.11078896D+01
 Iteration Nr.   6
 **********************
 DD1Dir will call FoFMem   1 times, MxPair=       132
 NAB=    66 NAA=     0 NBB=     0.
 DE(Z)  -0.68198869D+00          E(Z)=    -0.59929897521D+03
 NORM(A)=   0.11078836D+01
 Iteration Nr.   7
 **********************
 DD1Dir will call FoFMem   1 times, MxPair=       132
 NAB=    66 NAA=     0 NBB=     0.
 DE(Z)  -0.68199043D+00          E(Z)=    -0.59929897695D+03
 NORM(A)=   0.11078823D+01
 Iteration Nr.   8
 **********************
 DD1Dir will call FoFMem   1 times, MxPair=       132
 NAB=    66 NAA=     0 NBB=     0.
 DE(Z)  -0.68198829D+00          E(Z)=    -0.59929897482D+03
 NORM(A)=   0.11078748D+01
 Iteration Nr.   9
 **********************
 DD1Dir will call FoFMem   1 times, MxPair=       132
 NAB=    66 NAA=     0 NBB=     0.
 DE(Z)  -0.68198690D+00          E(Z)=    -0.59929897342D+03
 NORM(A)=   0.11078754D+01
 Iteration Nr.  10
 **********************
 DD1Dir will call FoFMem   1 times, MxPair=       132
 NAB=    66 NAA=     0 NBB=     0.
 DE(Z)  -0.68198930D+00          E(Z)=    -0.59929897582D+03
 NORM(A)=   0.11078747D+01
 Iteration Nr.  11
 **********************
 DD1Dir will call FoFMem   1 times, MxPair=       132
 NAB=    66 NAA=     0 NBB=     0.
 DE(Z)  -0.68198841D+00          E(Z)=    -0.59929897493D+03
 NORM(A)=   0.11078743D+01
 Iteration Nr.  12
 **********************
 DD1Dir will call FoFMem   1 times, MxPair=       132
 NAB=    66 NAA=     0 NBB=     0.
 DE(Z)  -0.68198844D+00          E(Z)=    -0.59929897496D+03
 NORM(A)=   0.11078744D+01
 Iteration Nr.  13
 **********************
 DD1Dir will call FoFMem   1 times, MxPair=       132
 NAB=    66 NAA=     0 NBB=     0.
 DE(Z)  -0.68198850D+00          E(Z)=    -0.59929897502D+03
 NORM(A)=   0.11078744D+01
 Iteration Nr.  14
 **********************
 DD1Dir will call FoFMem   1 times, MxPair=       132
 NAB=    66 NAA=     0 NBB=     0.
 DE(Z)  -0.68198851D+00          E(Z)=    -0.59929897503D+03
 NORM(A)=   0.11078744D+01
 Iteration Nr.  15
 **********************
 DD1Dir will call FoFMem   1 times, MxPair=       132
 NAB=    66 NAA=     0 NBB=     0.
 DE(Z)  -0.68198851D+00          E(Z)=    -0.59929897503D+03
 NORM(A)=   0.11078744D+01
 Iteration Nr.  16
 **********************
 DD1Dir will call FoFMem   1 times, MxPair=       132
 NAB=    66 NAA=     0 NBB=     0.
 DE(Z)  -0.68198853D+00          E(Z)=    -0.59929897505D+03
 NORM(A)=   0.11078744D+01
 Iteration Nr.  17
 **********************
 DD1Dir will call FoFMem   1 times, MxPair=       132
 NAB=    66 NAA=     0 NBB=     0.
 DE(Z)  -0.68198852D+00          E(Z)=    -0.59929897504D+03
 NORM(A)=   0.11078743D+01
 Iteration Nr.  18
 **********************
 DD1Dir will call FoFMem   1 times, MxPair=       132
 NAB=    66 NAA=     0 NBB=     0.
 DE(Z)  -0.68198852D+00          E(Z)=    -0.59929897504D+03
 NORM(A)=   0.11078744D+01
 Iteration Nr.  19
 **********************
 DD1Dir will call FoFMem   1 times, MxPair=       132
 NAB=    66 NAA=     0 NBB=     0.
 DE(Z)  -0.68198851D+00          E(Z)=    -0.59929897504D+03
 NORM(A)=   0.11078742D+01
 Iteration Nr.  20
 **********************
 DD1Dir will call FoFMem   1 times, MxPair=       132
 NAB=    66 NAA=     0 NBB=     0.
 DE(Z)  -0.68198851D+00          E(Z)=    -0.59929897504D+03
 NORM(A)=   0.11078744D+01
 Iteration Nr.  21
 **********************
 DD1Dir will call FoFMem   1 times, MxPair=       132
 NAB=    66 NAA=     0 NBB=     0.
 DE(Z)  -0.68198851D+00          E(Z)=    -0.59929897504D+03
 NORM(A)=   0.11078744D+01
 Discarding MO integrals.
          Differentiating once with respect to electric field.
                with respect to dipole field.
          Electric field/nuclear overlap derivatives assumed to be zero.
          Keep R1 ints in memory in canonical form, NReq=448662239.
          There are     1 degrees of freedom in the 1st order CPHF.  IDoFFX=0.
 LinEq1:  Iter=  0 NonCon=     1 RMS=3.11D-03 Max=1.20D-01
 AX will form     1 AO Fock derivatives at one time.
 LinEq1:  Iter=  1 NonCon=     1 RMS=6.94D-04 Max=9.61D-03
 LinEq1:  Iter=  2 NonCon=     1 RMS=2.30D-04 Max=5.72D-03
 LinEq1:  Iter=  3 NonCon=     1 RMS=9.49D-05 Max=1.45D-03
 LinEq1:  Iter=  4 NonCon=     1 RMS=3.84D-05 Max=4.10D-04
 LinEq1:  Iter=  5 NonCon=     1 RMS=1.06D-05 Max=2.26D-04
 LinEq1:  Iter=  6 NonCon=     1 RMS=2.42D-06 Max=4.22D-05
 LinEq1:  Iter=  7 NonCon=     1 RMS=6.06D-07 Max=9.15D-06
 LinEq1:  Iter=  8 NonCon=     1 RMS=1.49D-07 Max=1.80D-06
 LinEq1:  Iter=  9 NonCon=     1 RMS=3.04D-08 Max=7.48D-07
 LinEq1:  Iter= 10 NonCon=     1 RMS=6.55D-09 Max=8.90D-08
 LinEq1:  Iter= 11 NonCon=     1 RMS=1.05D-09 Max=1.14D-08
 LinEq1:  Iter= 12 NonCon=     1 RMS=1.69D-10 Max=2.85D-09
 LinEq1:  Iter= 13 NonCon=     0 RMS=2.41D-11 Max=3.21D-10
 Linear equations converged to 1.000D-10 1.000D-09 after    13 iterations.
 End of Minotr Frequency-dependent properties file   721 does not exist.
 End of Minotr Frequency-dependent properties file   722 does not exist.

 **********************************************************************

            Population analysis using the QCI/CC density.

 **********************************************************************

     Natural Orbital Coefficients:
                           1         2         3         4         5
     Eigenvalues --     2.00003   2.00003   2.00002   2.00001   2.00001
   1 1   C  1S          0.00000   0.00016  -0.04329   0.08037   0.97619
   2        2S          0.00000   0.00002   0.00131   0.00050  -0.01332
   3        3S          0.00000   0.00003  -0.00132   0.00400   0.03985
   4        4S          0.00000  -0.00026  -0.01264  -0.02360   0.00312
   5        5S          0.00000  -0.00008  -0.00120  -0.00062  -0.00061
   6        6PX         0.00005   0.00000   0.00000   0.00000   0.00000
   7        6PY         0.00000  -0.00005   0.00000   0.00001   0.00005
   8        6PZ         0.00000   0.00000   0.00053   0.00168   0.00087
   9        7PX         0.00080   0.00000   0.00000   0.00000   0.00000
  10        7PY         0.00000  -0.00089   0.00005   0.00011  -0.00004
  11        7PZ         0.00000   0.00002   0.00142   0.00304  -0.00091
  12        8PX         0.00447   0.00000   0.00000   0.00000   0.00000
  13        8PY         0.00000  -0.00466  -0.00001   0.00006  -0.00003
  14        8PZ         0.00000   0.00000  -0.00373  -0.00410  -0.00309
  15        9PX         0.00043   0.00000   0.00000   0.00000   0.00000
  16        9PY         0.00000  -0.00041   0.00001   0.00001   0.00000
  17        9PZ         0.00000   0.00000   0.00021   0.00017  -0.00049
  18       10D 0        0.00000   0.00000   0.00011   0.00033  -0.00057
  19       10D+1       -0.00015   0.00000   0.00000   0.00000   0.00000
  20       10D-1        0.00000   0.00015   0.00000   0.00000   0.00000
  21       10D+2        0.00000  -0.00004   0.00000   0.00000  -0.00002
  22       10D-2        0.00004   0.00000   0.00000   0.00000   0.00000
  23       11D 0        0.00000   0.00004   0.00022  -0.00009  -0.00029
  24       11D+1        0.00026   0.00000   0.00000   0.00000   0.00000
  25       11D-1        0.00000  -0.00025  -0.00002  -0.00004   0.00002
  26       11D+2        0.00000  -0.00102   0.00003   0.00007  -0.00001
  27       11D-2        0.00100   0.00000   0.00000   0.00000   0.00000
  28       12D 0        0.00000  -0.00009  -0.00078   0.00122  -0.00236
  29       12D+1       -0.00128   0.00000   0.00000   0.00000   0.00000
  30       12D-1        0.00000   0.00133  -0.00002  -0.00002   0.00002
  31       12D+2        0.00000  -0.00163  -0.00001   0.00004   0.00001
  32       12D-2        0.00161   0.00000   0.00000   0.00000   0.00000
  33       13F 0        0.00000   0.00000   0.00001   0.00003   0.00019
  34       13F+1       -0.00019   0.00000   0.00000   0.00000   0.00000
  35       13F-1        0.00000   0.00019   0.00000   0.00000   0.00000
  36       13F+2        0.00000  -0.00002   0.00000   0.00000   0.00001
  37       13F-2        0.00002   0.00000   0.00000   0.00000   0.00000
  38       13F+3        0.00000   0.00000   0.00000   0.00000   0.00000
  39       13F-3        0.00000   0.00000  -0.00006   0.00007   0.00090
  40       14F 0        0.00000   0.00001  -0.00113  -0.00215  -0.00019
  41       14F+1        0.00056   0.00000   0.00000   0.00000   0.00000
  42       14F-1        0.00000  -0.00059   0.00000  -0.00001  -0.00001
  43       14F+2        0.00000  -0.00033  -0.00001  -0.00002   0.00000
  44       14F-2        0.00036   0.00000   0.00000   0.00000   0.00000
  45       14F+3       -0.00001   0.00000   0.00000   0.00000   0.00000
  46       14F-3        0.00000  -0.00006  -0.00086  -0.00136  -0.00191
  47 2   H  1S          0.00000   0.00016  -0.00001  -0.00036  -0.00141
  48        2S          0.00000  -0.00116   0.00251   0.00348  -0.00081
  49        3S          0.00000  -0.00889   0.00188   0.00555  -0.00453
  50        4S          0.00000   0.00028   0.00012   0.00011  -0.00014
  51        5PX         0.00000   0.00000   0.00000   0.00000   0.00000
  52        5PY         0.00000  -0.00003   0.00005  -0.00002  -0.00049
  53        5PZ         0.00000  -0.00001   0.00001   0.00002  -0.00009
  54        6PX         0.00019   0.00000   0.00000   0.00000   0.00000
  55        6PY         0.00000  -0.00067   0.00047   0.00074  -0.00088
  56        6PZ         0.00000  -0.00061  -0.00002  -0.00012   0.00025
  57        7PX         0.00092   0.00000   0.00000   0.00000   0.00000
  58        7PY         0.00000  -0.00211   0.00056   0.00141  -0.00108
  59        7PZ         0.00000  -0.00025   0.00046   0.00093  -0.00005
  60        8D 0        0.00000  -0.00004   0.00001   0.00006   0.00013
  61        8D+1       -0.00001   0.00000   0.00000   0.00000   0.00000
  62        8D-1        0.00000  -0.00010   0.00002   0.00005  -0.00004
  63        8D+2        0.00000   0.00005  -0.00004  -0.00006   0.00027
  64        8D-2        0.00001   0.00000   0.00000   0.00000   0.00000
  65        9D 0        0.00000  -0.00038   0.00015   0.00025   0.00065
  66        9D+1        0.00026   0.00000   0.00000   0.00000   0.00000
  67        9D-1        0.00000  -0.00013  -0.00014  -0.00026   0.00000
  68        9D+2        0.00000   0.00013   0.00000   0.00001  -0.00008
  69        9D-2        0.00012   0.00000   0.00000   0.00000   0.00000
  70 3   H  1S         -0.00014  -0.00008  -0.00002  -0.00035  -0.00131
  71        2S          0.00099   0.00071   0.00242   0.00325  -0.00060
  72        3S          0.00739   0.00442   0.00179   0.00516  -0.00425
  73        4S         -0.00023  -0.00013   0.00011   0.00009  -0.00013
  74        5PX         0.00002   0.00001   0.00004  -0.00002  -0.00041
  75        5PY        -0.00001  -0.00001  -0.00002   0.00001   0.00025
  76        5PZ         0.00001   0.00001   0.00001   0.00001  -0.00009
  77        6PX         0.00053   0.00022   0.00038   0.00058  -0.00066
  78        6PY        -0.00020  -0.00033  -0.00024  -0.00035   0.00037
  79        6PZ         0.00054   0.00031  -0.00001  -0.00009   0.00023
  80        7PX         0.00176   0.00054   0.00045   0.00115  -0.00085
  81        7PY        -0.00052  -0.00125  -0.00027  -0.00065   0.00050
  82        7PZ         0.00025   0.00014   0.00048   0.00092  -0.00007
  83        8D 0        0.00003   0.00002   0.00001   0.00007   0.00014
  84        8D+1        0.00007   0.00005   0.00002   0.00004  -0.00003
  85        8D-1       -0.00005  -0.00001  -0.00001  -0.00002   0.00002
  86        8D+2        0.00002   0.00001   0.00002   0.00002  -0.00014
  87        8D-2       -0.00003  -0.00003  -0.00004  -0.00004   0.00025
  88        9D 0        0.00033   0.00021   0.00015   0.00025   0.00061
  89        9D+1        0.00016  -0.00005  -0.00012  -0.00022   0.00001
  90        9D-1        0.00005  -0.00021   0.00007   0.00012  -0.00001
  91        9D+2        0.00010  -0.00006  -0.00001  -0.00001   0.00005
  92        9D-2       -0.00007  -0.00011   0.00001   0.00003  -0.00009
  93 4   H  1S          0.00014  -0.00008  -0.00002  -0.00035  -0.00131
  94        2S         -0.00099   0.00071   0.00242   0.00325  -0.00060
  95        3S         -0.00738   0.00443   0.00179   0.00516  -0.00425
  96        4S          0.00023  -0.00013   0.00011   0.00009  -0.00013
  97        5PX         0.00002  -0.00001  -0.00004   0.00002   0.00041
  98        5PY         0.00001  -0.00001  -0.00002   0.00001   0.00025
  99        5PZ        -0.00001   0.00001   0.00001   0.00001  -0.00009
 100        6PX         0.00053  -0.00022  -0.00038  -0.00058   0.00066
 101        6PY         0.00020  -0.00033  -0.00024  -0.00035   0.00037
 102        6PZ        -0.00054   0.00031  -0.00001  -0.00009   0.00023
 103        7PX         0.00176  -0.00054  -0.00045  -0.00115   0.00085
 104        7PY         0.00052  -0.00125  -0.00027  -0.00065   0.00050
 105        7PZ        -0.00025   0.00014   0.00048   0.00092  -0.00007
 106        8D 0       -0.00003   0.00002   0.00001   0.00007   0.00014
 107        8D+1        0.00007  -0.00005  -0.00002  -0.00004   0.00003
 108        8D-1        0.00005  -0.00001  -0.00001  -0.00002   0.00002
 109        8D+2       -0.00002   0.00001   0.00002   0.00002  -0.00014
 110        8D-2       -0.00003   0.00003   0.00004   0.00004  -0.00025
 111        9D 0       -0.00033   0.00021   0.00015   0.00025   0.00061
 112        9D+1        0.00016   0.00005   0.00012   0.00022  -0.00001
 113        9D-1       -0.00005  -0.00021   0.00007   0.00012  -0.00001
 114        9D+2       -0.00010  -0.00006  -0.00001  -0.00001   0.00005
 115        9D-2       -0.00007   0.00011  -0.00001  -0.00003   0.00009
 116 5   Cl 1S          0.00000   0.00022  -0.25060   0.14799  -0.02283
 117        2S          0.00000  -0.00073   0.84592  -0.50026   0.07827
 118        3S          0.00000   0.00001  -0.02309   0.00933  -0.00239
 119        4S          0.00000  -0.00006   0.06655  -0.04076   0.00643
 120        5S          0.00000   0.00009  -0.00211   0.00777   0.00350
 121        6S          0.00000   0.00002  -0.00155  -0.00213   0.00300
 122        7PX         0.97887  -0.00021   0.00009   0.00015  -0.00001
 123        7PY        -0.00021  -0.97883   0.00354   0.00733  -0.00029
 124        7PZ        -0.00017   0.00813   0.50084   0.83586  -0.04720
 125        8PX        -0.01915   0.00000   0.00000   0.00000   0.00000
 126        8PY         0.00000   0.01915  -0.00006  -0.00011   0.00001
 127        8PZ         0.00000  -0.00017  -0.00878  -0.01404   0.00011
 128        9PX         0.05233  -0.00001   0.00001   0.00001   0.00000
 129        9PY        -0.00001  -0.05234   0.00020   0.00043  -0.00002
 130        9PZ        -0.00001   0.00044   0.02844   0.04954  -0.00268
 131       10PX        -0.00579   0.00000   0.00000   0.00000   0.00000
 132       10PY         0.00000   0.00576  -0.00003  -0.00002  -0.00004
 133       10PZ         0.00000  -0.00008  -0.00434  -0.00275  -0.00346
 134       11PX        -0.00215   0.00000   0.00000   0.00000   0.00000
 135       11PY         0.00000   0.00214  -0.00001  -0.00001  -0.00001
 136       11PZ         0.00000  -0.00002  -0.00036  -0.00015  -0.00053
 137       12D 0        0.00000  -0.00001   0.00001  -0.00051  -0.00017
 138       12D+1       -0.00032   0.00000   0.00000   0.00000   0.00000
 139       12D-1        0.00000   0.00032   0.00000  -0.00001   0.00000
 140       12D+2        0.00000  -0.00001   0.00000   0.00000   0.00000
 141       12D-2        0.00001   0.00000   0.00000   0.00000   0.00000
 142       13D 0        0.00000   0.00001   0.00088   0.00244   0.00042
 143       13D+1        0.00081   0.00000   0.00000   0.00000   0.00000
 144       13D-1        0.00000  -0.00081   0.00001   0.00002   0.00000
 145       13D+2        0.00000   0.00002   0.00000   0.00000   0.00000
 146       13D-2       -0.00002   0.00000   0.00000   0.00000   0.00000
 147       14D 0        0.00000  -0.00001   0.00058  -0.00018   0.00080
 148       14D+1       -0.00071   0.00000   0.00000   0.00000   0.00000
 149       14D-1        0.00000   0.00072   0.00001   0.00000   0.00002
 150       14D+2        0.00000  -0.00003   0.00000   0.00000   0.00000
 151       14D-2        0.00003   0.00000   0.00000   0.00000   0.00000
 152       15F 0        0.00000   0.00000   0.00001  -0.00007  -0.00003
 153       15F+1       -0.00001   0.00000   0.00000   0.00000   0.00000
 154       15F-1        0.00000   0.00001   0.00000   0.00000   0.00000
 155       15F+2        0.00000  -0.00003   0.00000   0.00000   0.00000
 156       15F-2        0.00003   0.00000   0.00000   0.00000   0.00000
 157       15F+3        0.00000   0.00000   0.00000   0.00000   0.00000
 158       15F-3        0.00000   0.00000   0.00001   0.00003   0.00000
 159       16F 0        0.00000   0.00000  -0.00032  -0.00058  -0.00031
 160       16F+1       -0.00022   0.00000   0.00000   0.00000   0.00000
 161       16F-1        0.00000   0.00022  -0.00001  -0.00001   0.00000
 162       16F+2        0.00000   0.00003   0.00000   0.00000   0.00000
 163       16F-2       -0.00004   0.00000   0.00000   0.00000   0.00000
 164       16F+3        0.00000   0.00000   0.00000   0.00000   0.00000
 165       16F-3        0.00000   0.00000  -0.00002  -0.00005   0.00002
 166 6   F  1S          0.00000  -0.00003  -0.00144  -0.01042  -0.04974
 167        2S          0.00000  -0.00001   0.00020   0.00043   0.00080
 168        3S          0.00000   0.00000  -0.00007  -0.00045  -0.00202
 169        4S          0.00000   0.00003  -0.00055  -0.00105   0.00056
 170        5S          0.00000   0.00009   0.00010  -0.00168   0.00178
 171        6PX        -0.00004   0.00000   0.00000   0.00000   0.00000
 172        6PY         0.00000   0.00004   0.00000   0.00000   0.00000
 173        6PZ         0.00000   0.00000   0.00058   0.00111   0.00011
 174        7PX        -0.00001   0.00000   0.00000   0.00000   0.00000
 175        7PY         0.00000   0.00001   0.00000  -0.00001   0.00000
 176        7PZ         0.00000   0.00000   0.00069   0.00132   0.00002
 177        8PX        -0.00024   0.00000   0.00000   0.00000   0.00000
 178        8PY         0.00000   0.00025   0.00000   0.00001   0.00000
 179        8PZ         0.00000   0.00003   0.00008   0.00017   0.00048
 180        9PX        -0.00036   0.00000   0.00000   0.00000   0.00000
 181        9PY         0.00000   0.00035   0.00000   0.00000  -0.00001
 182        9PZ         0.00000   0.00003   0.00017  -0.00009   0.00071
 183       10D 0        0.00000   0.00000   0.00001   0.00001  -0.00002
 184       10D+1       -0.00001   0.00000   0.00000   0.00000   0.00000
 185       10D-1        0.00000   0.00001   0.00000   0.00000   0.00000
 186       10D+2        0.00000  -0.00001   0.00000   0.00000   0.00000
 187       10D-2        0.00001   0.00000   0.00000   0.00000   0.00000
 188       11D 0        0.00000   0.00000  -0.00003  -0.00010   0.00001
 189       11D+1        0.00005   0.00000   0.00000   0.00000   0.00000
 190       11D-1        0.00000  -0.00005   0.00000   0.00000   0.00000
 191       11D+2        0.00000   0.00003   0.00000   0.00000   0.00000
 192       11D-2       -0.00003   0.00000   0.00000   0.00000   0.00000
 193       12D 0        0.00000   0.00000  -0.00019  -0.00012   0.00011
 194       12D+1       -0.00022   0.00000   0.00000   0.00000   0.00000
 195       12D-1        0.00000   0.00023   0.00000   0.00001   0.00000
 196       12D+2        0.00000  -0.00011   0.00000   0.00000   0.00000
 197       12D-2        0.00011   0.00000   0.00000   0.00000   0.00000
 198       13F 0        0.00000   0.00000   0.00001  -0.00001  -0.00004
 199       13F+1        0.00002   0.00000   0.00000   0.00000   0.00000
 200       13F-1        0.00000  -0.00002   0.00000   0.00000   0.00000
 201       13F+2        0.00000   0.00001   0.00000   0.00000   0.00000
 202       13F-2       -0.00002   0.00000   0.00000   0.00000   0.00000
 203       13F+3        0.00000   0.00000   0.00000   0.00000   0.00000
 204       13F-3        0.00000   0.00000   0.00000   0.00000   0.00000
 205       14F 0        0.00000   0.00000  -0.00004   0.00002   0.00013
 206       14F+1       -0.00006   0.00000   0.00000   0.00000   0.00000
 207       14F-1        0.00000   0.00006   0.00000   0.00000   0.00000
 208       14F+2        0.00000  -0.00004   0.00000   0.00000   0.00000
 209       14F-2        0.00004   0.00000   0.00000   0.00000   0.00000
 210       14F+3        0.00000   0.00000   0.00000   0.00000   0.00000
 211       14F-3        0.00000   0.00000   0.00000   0.00000  -0.00001
                           6         7         8         9        10
     Eigenvalues --     2.00000   2.00000   1.98361   1.97543   1.96949
   1 1   C  1S          0.05037  -0.00046   0.01542  -0.07340  -0.14369
   2        2S         -0.00012  -0.00001  -0.04201   0.19915   0.39719
   3        3S          0.00229  -0.00003  -0.01040   0.04621   0.09613
   4        4S         -0.00698   0.00016   0.00555   0.07913   0.19087
   5        5S         -0.00016   0.00010   0.00785  -0.00689  -0.02885
   6        6PX         0.00000   0.00000   0.00000   0.00000   0.00000
   7        6PY         0.00000   0.00000   0.00014  -0.00141  -0.00599
   8        6PZ         0.00004   0.00000   0.00646   0.01033  -0.02723
   9        7PX         0.00000   0.00000   0.00000   0.00000   0.00000
  10        7PY         0.00003   0.00000   0.00015  -0.00170  -0.00740
  11        7PZ        -0.00075   0.00000   0.00706   0.01789  -0.03246
  12        8PX         0.00000   0.00000   0.00000   0.00000   0.00000
  13        8PY        -0.00004   0.00000   0.00014  -0.00172  -0.00585
  14        8PZ         0.00519   0.00009   0.01660   0.00589  -0.02270
  15        9PX         0.00000   0.00000   0.00000   0.00000   0.00000
  16        9PY         0.00000   0.00000   0.00004  -0.00010  -0.00045
  17        9PZ         0.00011   0.00001  -0.00071   0.00033  -0.00406
  18       10D 0        0.00004   0.00000   0.00051  -0.00214  -0.00956
  19       10D+1        0.00000   0.00000   0.00000   0.00000   0.00000
  20       10D-1        0.00000   0.00000   0.00000   0.00005   0.00008
  21       10D+2        0.00000   0.00000   0.00003  -0.00019  -0.00059
  22       10D-2        0.00000   0.00000   0.00000   0.00000   0.00000
  23       11D 0       -0.00023  -0.00002  -0.00529   0.00462  -0.01877
  24       11D+1        0.00000   0.00000   0.00000   0.00000  -0.00001
  25       11D-1        0.00001   0.00000   0.00007   0.00016   0.00005
  26       11D+2        0.00001   0.00000   0.00003  -0.00053  -0.00157
  27       11D-2        0.00000   0.00000   0.00000   0.00000   0.00000
  28       12D 0        0.00027   0.00008   0.00206  -0.00841  -0.01667
  29       12D+1        0.00000   0.00000   0.00000   0.00000   0.00000
  30       12D-1        0.00002   0.00000   0.00001   0.00005   0.00004
  31       12D+2       -0.00002   0.00000  -0.00011  -0.00033  -0.00088
  32       12D-2        0.00000   0.00000   0.00000   0.00000   0.00000
  33       13F 0       -0.00007   0.00000   0.00000   0.00242   0.00064
  34       13F+1        0.00000   0.00000   0.00000   0.00000   0.00000
  35       13F-1        0.00000   0.00000   0.00000   0.00000  -0.00002
  36       13F+2        0.00000   0.00000   0.00000   0.00001   0.00001
  37       13F-2        0.00000   0.00000   0.00000   0.00000   0.00000
  38       13F+3        0.00000   0.00000   0.00000   0.00000   0.00000
  39       13F-3        0.00001   0.00000  -0.00014   0.00194   0.00397
  40       14F 0        0.00127  -0.00001   0.00471   0.00261  -0.00198
  41       14F+1        0.00000   0.00000   0.00000   0.00000   0.00000
  42       14F-1       -0.00001   0.00000  -0.00005   0.00008   0.00014
  43       14F+2        0.00000   0.00000   0.00004   0.00007   0.00008
  44       14F-2        0.00000   0.00000   0.00000   0.00000   0.00000
  45       14F+3        0.00000   0.00000   0.00000   0.00000   0.00000
  46       14F-3       -0.00044   0.00003   0.00187  -0.00100   0.00404
  47 2   H  1S         -0.00008   0.00000  -0.00876   0.03853   0.08534
  48        2S          0.00099  -0.00006  -0.01533   0.04415   0.08675
  49        3S          0.00178   0.00004  -0.00095  -0.00663  -0.01621
  50        4S          0.00004   0.00000  -0.00043   0.00041   0.00005
  51        5PX         0.00000   0.00000   0.00000   0.00000   0.00000
  52        5PY         0.00001   0.00000  -0.00111   0.00414   0.00911
  53        5PZ        -0.00004   0.00000   0.00027   0.00099   0.00041
  54        6PX         0.00000   0.00000   0.00000   0.00000   0.00000
  55        6PY         0.00008   0.00000  -0.00063   0.00047   0.00059
  56        6PZ         0.00034  -0.00001   0.00014   0.00247  -0.00056
  57        7PX         0.00000   0.00000   0.00000   0.00000   0.00000
  58        7PY         0.00043   0.00001   0.00139  -0.00540  -0.01157
  59        7PZ        -0.00055   0.00001  -0.00282  -0.00180  -0.00149
  60        8D 0        0.00006   0.00000   0.00014  -0.00037  -0.00096
  61        8D+1        0.00000   0.00000   0.00000   0.00000   0.00000
  62        8D-1       -0.00001   0.00000  -0.00014   0.00051   0.00025
  63        8D+2       -0.00002   0.00000   0.00003  -0.00056  -0.00143
  64        8D-2        0.00000   0.00000   0.00000   0.00000   0.00000
  65        9D 0        0.00009  -0.00001  -0.00007   0.00126   0.00103
  66        9D+1        0.00000   0.00000   0.00000   0.00000   0.00000
  67        9D-1        0.00014   0.00000  -0.00004   0.00002  -0.00042
  68        9D+2        0.00003   0.00000  -0.00099   0.00230   0.00427
  69        9D-2        0.00000   0.00000   0.00000   0.00000   0.00000
  70 3   H  1S         -0.00008   0.00000  -0.00848   0.03651   0.07809
  71        2S          0.00097  -0.00006  -0.01529   0.04357   0.08207
  72        3S          0.00182   0.00004  -0.00088  -0.00407  -0.01002
  73        4S          0.00003   0.00000  -0.00049   0.00055   0.00056
  74        5PX         0.00001   0.00000  -0.00093   0.00337   0.00719
  75        5PY        -0.00001   0.00000   0.00055  -0.00200  -0.00432
  76        5PZ        -0.00004   0.00000   0.00028   0.00094   0.00031
  77        6PX         0.00006   0.00000  -0.00067   0.00077   0.00113
  78        6PY        -0.00004   0.00000   0.00042  -0.00061  -0.00105
  79        6PZ         0.00031  -0.00001   0.00005   0.00241  -0.00049
  80        7PX         0.00037   0.00001   0.00111  -0.00415  -0.00850
  81        7PY        -0.00023   0.00000  -0.00074   0.00229   0.00468
  82        7PZ        -0.00055   0.00001  -0.00280  -0.00170  -0.00123
  83        8D 0        0.00006   0.00000   0.00014  -0.00035  -0.00089
  84        8D+1       -0.00001   0.00000  -0.00013   0.00042   0.00019
  85        8D-1        0.00000   0.00000   0.00007  -0.00025  -0.00012
  86        8D+2        0.00001   0.00000  -0.00002   0.00025   0.00061
  87        8D-2       -0.00001   0.00000   0.00003  -0.00047  -0.00119
  88        9D 0        0.00008  -0.00001  -0.00005   0.00121   0.00099
  89        9D+1        0.00012   0.00000  -0.00005   0.00004  -0.00031
  90        9D-1       -0.00007   0.00000   0.00005  -0.00002   0.00019
  91        9D+2       -0.00002   0.00000   0.00048  -0.00113  -0.00208
  92        9D-2        0.00003   0.00000  -0.00085   0.00192   0.00352
  93 4   H  1S         -0.00008   0.00000  -0.00848   0.03651   0.07809
  94        2S          0.00097  -0.00006  -0.01529   0.04357   0.08207
  95        3S          0.00182   0.00004  -0.00088  -0.00407  -0.01003
  96        4S          0.00003   0.00000  -0.00049   0.00055   0.00056
  97        5PX        -0.00001   0.00000   0.00093  -0.00337  -0.00719
  98        5PY        -0.00001   0.00000   0.00055  -0.00199  -0.00432
  99        5PZ        -0.00004   0.00000   0.00028   0.00094   0.00032
 100        6PX        -0.00006   0.00000   0.00067  -0.00076  -0.00113
 101        6PY        -0.00004   0.00000   0.00042  -0.00061  -0.00105
 102        6PZ         0.00031  -0.00001   0.00005   0.00241  -0.00049
 103        7PX        -0.00037  -0.00001  -0.00111   0.00415   0.00850
 104        7PY        -0.00023   0.00000  -0.00074   0.00229   0.00468
 105        7PZ        -0.00055   0.00001  -0.00280  -0.00170  -0.00123
 106        8D 0        0.00006   0.00000   0.00014  -0.00035  -0.00089
 107        8D+1        0.00001   0.00000   0.00013  -0.00042  -0.00019
 108        8D-1        0.00000   0.00000   0.00007  -0.00025  -0.00012
 109        8D+2        0.00001   0.00000  -0.00002   0.00025   0.00061
 110        8D-2        0.00001   0.00000  -0.00003   0.00047   0.00119
 111        9D 0        0.00008  -0.00001  -0.00005   0.00121   0.00099
 112        9D+1       -0.00012   0.00000   0.00005  -0.00004   0.00031
 113        9D-1       -0.00007   0.00000   0.00005  -0.00002   0.00019
 114        9D+2       -0.00002   0.00000   0.00048  -0.00113  -0.00208
 115        9D-2       -0.00003   0.00000   0.00085  -0.00192  -0.00352
 116 5   Cl 1S          0.00007   0.99708  -0.00064   0.06648  -0.03480
 117        2S         -0.00007   0.01040   0.00292  -0.25192   0.13078
 118        3S          0.00005   0.00017  -0.00391   0.52468  -0.27825
 119        4S          0.00008   0.00026  -0.00025   0.06428  -0.03748
 120        5S         -0.00181  -0.00020  -0.01230   0.35094  -0.17058
 121        6S         -0.00050  -0.00011  -0.00461   0.02452   0.01128
 122        7PX         0.00000   0.00000   0.00000   0.00000   0.00001
 123        7PY         0.00004   0.00000   0.00001   0.00007   0.00040
 124        7PZ         0.00732   0.00016   0.00152   0.00459   0.02878
 125        8PX         0.00000   0.00000   0.00000   0.00000  -0.00001
 126        8PY         0.00001   0.00000   0.00000  -0.00011  -0.00099
 127        8PZ         0.00051  -0.00003  -0.00227  -0.00602  -0.07203
 128        9PX         0.00000   0.00000   0.00000   0.00000  -0.00001
 129        9PY         0.00000   0.00000  -0.00001  -0.00003  -0.00043
 130        9PZ         0.00032   0.00003  -0.00264   0.00068  -0.03139
 131       10PX         0.00000   0.00000   0.00000   0.00000  -0.00001
 132       10PY         0.00001   0.00000   0.00005  -0.00002  -0.00045
 133       10PZ         0.00096   0.00015   0.00271   0.00302  -0.05234
 134       11PX         0.00000   0.00000   0.00000   0.00000   0.00000
 135       11PY         0.00000   0.00000  -0.00001   0.00002   0.00001
 136       11PZ         0.00002   0.00002  -0.00040   0.00263  -0.00874
 137       12D 0       -0.00003   0.00001  -0.00035   0.00448   0.00453
 138       12D+1        0.00000   0.00000   0.00000   0.00000   0.00000
 139       12D-1        0.00000   0.00000   0.00000   0.00007   0.00015
 140       12D+2        0.00000   0.00000   0.00000   0.00000  -0.00001
 141       12D-2        0.00000   0.00000   0.00000   0.00000   0.00000
 142       13D 0       -0.00022   0.00000  -0.00163   0.00819   0.00968
 143       13D+1        0.00000   0.00000   0.00000   0.00000   0.00000
 144       13D-1       -0.00001   0.00000  -0.00003   0.00013   0.00027
 145       13D+2        0.00000   0.00000   0.00000  -0.00001  -0.00001
 146       13D-2        0.00000   0.00000   0.00000   0.00000   0.00000
 147       14D 0       -0.00014  -0.00004  -0.00184  -0.00018   0.00538
 148       14D+1        0.00000   0.00000   0.00000   0.00000   0.00000
 149       14D-1       -0.00001   0.00000  -0.00004   0.00001   0.00008
 150       14D+2        0.00000   0.00000   0.00000   0.00000   0.00001
 151       14D-2        0.00000   0.00000   0.00000   0.00000   0.00000
 152       15F 0        0.00005   0.00000   0.00023  -0.00180  -0.00191
 153       15F+1        0.00000   0.00000   0.00000   0.00000   0.00000
 154       15F-1        0.00000   0.00000   0.00000  -0.00003  -0.00007
 155       15F+2        0.00000   0.00000   0.00000   0.00000   0.00001
 156       15F-2        0.00000   0.00000   0.00000   0.00000   0.00000
 157       15F+3        0.00000   0.00000   0.00000   0.00000   0.00000
 158       15F-3       -0.00001   0.00000  -0.00001   0.00002   0.00009
 159       16F 0       -0.00005   0.00001   0.00005  -0.00093  -0.00171
 160       16F+1        0.00000   0.00000   0.00000   0.00000   0.00000
 161       16F-1        0.00001   0.00000   0.00002  -0.00003  -0.00005
 162       16F+2        0.00000   0.00000   0.00001   0.00000  -0.00002
 163       16F-2        0.00000   0.00000   0.00000   0.00000   0.00000
 164       16F+3        0.00000   0.00000   0.00000   0.00000   0.00000
 165       16F-3        0.00003   0.00000   0.00002  -0.00001  -0.00021
 166 6   F  1S          0.97743  -0.00002   0.21189   0.01316   0.02161
 167        2S         -0.01503   0.00000  -0.53161  -0.03405  -0.05730
 168        3S          0.04206   0.00000  -0.16471  -0.01081  -0.01852
 169        4S          0.00193  -0.00001  -0.36876  -0.02363  -0.04389
 170        5S         -0.00084  -0.00006  -0.04529   0.00420   0.00780
 171        6PX         0.00000   0.00000   0.00000   0.00000   0.00002
 172        6PY         0.00000   0.00000  -0.00019  -0.00019  -0.00169
 173        6PZ         0.00048   0.00000   0.01352   0.01270   0.08743
 174        7PX         0.00000   0.00000   0.00000   0.00000   0.00002
 175        7PY         0.00000   0.00000  -0.00022  -0.00024  -0.00204
 176        7PZ        -0.00012   0.00000   0.01475   0.01552   0.10520
 177        8PX         0.00000   0.00000   0.00000   0.00000   0.00002
 178        8PY        -0.00001   0.00000  -0.00019  -0.00017  -0.00155
 179        8PZ         0.00240  -0.00001   0.01247   0.01226   0.08366
 180        9PX         0.00000   0.00000   0.00000   0.00000   0.00000
 181        9PY         0.00000   0.00000  -0.00007  -0.00005  -0.00038
 182        9PZ        -0.00008  -0.00002   0.00220   0.00316   0.02422
 183       10D 0       -0.00002   0.00000  -0.00013   0.00017   0.00060
 184       10D+1        0.00000   0.00000   0.00000   0.00000   0.00000
 185       10D-1        0.00000   0.00000   0.00000   0.00000  -0.00001
 186       10D+2        0.00000   0.00000   0.00000   0.00000   0.00000
 187       10D-2        0.00000   0.00000   0.00000   0.00000   0.00000
 188       11D 0       -0.00003   0.00000  -0.00104   0.00091   0.00275
 189       11D+1        0.00000   0.00000   0.00000   0.00000   0.00000
 190       11D-1        0.00000   0.00000   0.00001  -0.00001  -0.00007
 191       11D+2        0.00000   0.00000   0.00000   0.00000  -0.00001
 192       11D-2        0.00000   0.00000   0.00000   0.00000   0.00000
 193       12D 0        0.00080   0.00000  -0.00055   0.00035   0.00386
 194       12D+1        0.00000   0.00000   0.00000   0.00000   0.00000
 195       12D-1       -0.00001   0.00000  -0.00001   0.00000  -0.00004
 196       12D+2        0.00000   0.00000   0.00001   0.00001   0.00001
 197       12D-2        0.00000   0.00000   0.00000   0.00000   0.00000
 198       13F 0       -0.00006   0.00000  -0.00002   0.00013   0.00027
 199       13F+1        0.00000   0.00000   0.00000   0.00000   0.00000
 200       13F-1        0.00000   0.00000   0.00000   0.00000  -0.00001
 201       13F+2        0.00000   0.00000   0.00000   0.00000   0.00000
 202       13F-2        0.00000   0.00000   0.00000   0.00000   0.00000
 203       13F+3        0.00000   0.00000   0.00000   0.00000   0.00000
 204       13F-3        0.00001   0.00000   0.00001   0.00002   0.00003
 205       14F 0        0.00020   0.00000  -0.00040  -0.00006   0.00063
 206       14F+1        0.00000   0.00000   0.00000   0.00000   0.00000
 207       14F-1        0.00000   0.00000   0.00001   0.00000  -0.00001
 208       14F+2        0.00000   0.00000   0.00000   0.00001   0.00001
 209       14F-2        0.00000   0.00000   0.00000   0.00000   0.00000
 210       14F+3        0.00000   0.00000   0.00000   0.00000   0.00000
 211       14F-3       -0.00001   0.00000  -0.00007  -0.00006  -0.00009
                          11        12        13        14        15
     Eigenvalues --     1.96440   1.96434   1.95946   1.95899   1.94913
   1 1   C  1S         -0.00157   0.00000  -0.00202   0.00000   0.00398
   2        2S          0.00421   0.00000   0.00538   0.00000  -0.01141
   3        3S          0.00085   0.00000   0.00101   0.00000  -0.00278
   4        4S          0.00036   0.00000  -0.00440   0.00000  -0.02491
   5        5S         -0.00126   0.00000  -0.00199   0.00000  -0.00502
   6        6PX         0.00004   0.09301   0.00005   0.23175   0.00002
   7        6PY         0.10274  -0.00003   0.23006  -0.00005   0.06590
   8        6PZ        -0.00032  -0.00002  -0.00030  -0.00004  -0.00361
   9        7PX         0.00005   0.12470   0.00007   0.30714   0.00002
  10        7PY         0.13755  -0.00005   0.30493  -0.00007   0.09169
  11        7PZ        -0.00026  -0.00002  -0.00037  -0.00005  -0.00508
  12        8PX         0.00004   0.09168   0.00005   0.23771   0.00002
  13        8PY         0.10025  -0.00003   0.23475  -0.00006   0.07011
  14        8PZ        -0.00057  -0.00002  -0.00062  -0.00004  -0.00503
  15        9PX         0.00000  -0.00233   0.00000   0.01907   0.00000
  16        9PY        -0.00206   0.00000   0.01882   0.00000   0.01196
  17        9PZ        -0.00010   0.00000  -0.00012   0.00000  -0.00011
  18       10D 0       -0.00008   0.00000  -0.00005   0.00000   0.00077
  19       10D+1        0.00000  -0.00265   0.00000  -0.00126   0.00000
  20       10D-1       -0.00276   0.00000  -0.00127   0.00000  -0.00372
  21       10D+2        0.00651   0.00000   0.01470   0.00000   0.00489
  22       10D-2        0.00000   0.00596   0.00000   0.01492   0.00000
  23       11D 0       -0.00011   0.00000   0.00035   0.00000   0.00421
  24       11D+1       -0.00001  -0.01269  -0.00001   0.00758  -0.00001
  25       11D-1       -0.01276   0.00000   0.00774  -0.00001  -0.01554
  26       11D+2        0.02130   0.00000   0.04475   0.00001   0.01657
  27       11D-2        0.00000   0.01996  -0.00001   0.04583  -0.00001
  28       12D 0       -0.00014   0.00000  -0.00014   0.00000   0.00213
  29       12D+1       -0.00001  -0.00617  -0.00001   0.00562   0.00000
  30       12D-1       -0.00600   0.00000   0.00577  -0.00001   0.00127
  31       12D+2        0.02041   0.00000   0.03519   0.00001   0.00968
  32       12D-2        0.00000   0.01973   0.00000   0.03675   0.00000
  33       13F 0        0.00002   0.00000   0.00003   0.00000  -0.00015
  34       13F+1        0.00000   0.00028   0.00000  -0.00199   0.00000
  35       13F-1        0.00022   0.00000  -0.00202   0.00000  -0.00220
  36       13F+2       -0.00063   0.00000  -0.00010   0.00000  -0.00031
  37       13F-2        0.00000  -0.00064   0.00000  -0.00015   0.00000
  38       13F+3        0.00000   0.00000   0.00000  -0.00003   0.00000
  39       13F-3        0.00008   0.00000   0.00009   0.00000  -0.00022
  40       14F 0       -0.00009   0.00000  -0.00019   0.00000  -0.00040
  41       14F+1        0.00000   0.00048   0.00000  -0.00571   0.00000
  42       14F-1        0.00028   0.00000  -0.00594   0.00000  -0.00721
  43       14F+2       -0.00384   0.00000  -0.00010   0.00000  -0.00318
  44       14F-2        0.00000  -0.00388   0.00000  -0.00015   0.00000
  45       14F+3        0.00000  -0.00010   0.00000  -0.00033   0.00000
  46       14F-3        0.00009   0.00000  -0.00017   0.00000  -0.00128
  47 2   H  1S         -0.06970   0.00001  -0.15001   0.00002  -0.04803
  48        2S         -0.06147   0.00001  -0.14837   0.00002  -0.04334
  49        3S          0.06077  -0.00001   0.12245  -0.00001   0.00727
  50        4S         -0.00571   0.00000   0.01762   0.00000   0.00113
  51        5PX         0.00000   0.00206   0.00000   0.00454   0.00000
  52        5PY        -0.00550   0.00000  -0.01231   0.00000  -0.00368
  53        5PZ        -0.00006   0.00000  -0.00283   0.00000  -0.00003
  54        6PX         0.00000   0.00788   0.00000   0.01393   0.00000
  55        6PY         0.00771   0.00000   0.01192   0.00000   0.00610
  56        6PZ        -0.00291   0.00000   0.00069   0.00000  -0.00126
  57        7PX         0.00000   0.00923   0.00001   0.01378   0.00000
  58        7PY         0.01466   0.00000   0.04535  -0.00001   0.01007
  59        7PZ         0.00080   0.00000   0.00777   0.00000   0.00376
  60        8D 0        0.00041   0.00000   0.00130   0.00000   0.00038
  61        8D+1        0.00000   0.00001   0.00000   0.00032   0.00000
  62        8D-1       -0.00076   0.00000  -0.00021   0.00000  -0.00030
  63        8D+2        0.00061   0.00000   0.00183   0.00000   0.00054
  64        8D-2        0.00000   0.00104   0.00000   0.00233   0.00000
  65        9D 0       -0.00056   0.00000   0.00149   0.00000  -0.00011
  66        9D+1        0.00000  -0.00158   0.00000   0.00097   0.00000
  67        9D-1       -0.00327   0.00000   0.00351   0.00000  -0.00030
  68        9D+2       -0.00159   0.00000  -0.00248   0.00000  -0.00090
  69        9D-2        0.00000   0.00161   0.00000   0.00291   0.00000
  70 3   H  1S          0.03626  -0.05545   0.07673  -0.13143   0.02018
  71        2S          0.03364  -0.05027   0.08003  -0.13551   0.02283
  72        3S         -0.02958   0.04813  -0.05771   0.10248   0.00007
  73        4S          0.00289  -0.00505  -0.00861   0.01496  -0.00043
  74        5PX         0.00342  -0.00321   0.00732  -0.00808   0.00181
  75        5PY         0.00013   0.00305  -0.00004   0.00732  -0.00008
  76        5PZ         0.00000   0.00008   0.00140  -0.00240  -0.00032
  77        6PX         0.00049   0.00710   0.00133   0.01177  -0.00034
  78        6PY         0.00796   0.00035   0.01254   0.00122   0.00372
  79        6PZ         0.00135  -0.00235  -0.00016   0.00020   0.00048
  80        7PX        -0.00254   0.01205  -0.01399   0.03747  -0.00203
  81        7PY         0.01098  -0.00202   0.02133  -0.01427   0.00386
  82        7PZ        -0.00037   0.00047  -0.00380   0.00648  -0.00082
  83        8D 0       -0.00024   0.00033  -0.00071   0.00120  -0.00019
  84        8D+1        0.00034  -0.00055   0.00025  -0.00012   0.00010
  85        8D-1       -0.00018   0.00033   0.00017   0.00025  -0.00009
  86        8D+2        0.00098   0.00019   0.00214   0.00016   0.00054
  87        8D-2        0.00015   0.00067   0.00004   0.00202   0.00004
  88        9D 0        0.00027  -0.00046  -0.00065   0.00131   0.00018
  89        9D+1        0.00077  -0.00291  -0.00108   0.00273  -0.00015
  90        9D-1       -0.00197   0.00082   0.00165  -0.00104  -0.00110
  91        9D+2        0.00082   0.00133   0.00144   0.00239   0.00051
  92        9D-2        0.00154  -0.00078   0.00249  -0.00133   0.00103
  93 4   H  1S          0.03629   0.05543   0.07676   0.13142   0.02019
  94        2S          0.03367   0.05025   0.08005   0.13549   0.02284
  95        3S         -0.02960  -0.04812  -0.05774  -0.10247   0.00007
  96        4S          0.00289   0.00505  -0.00862  -0.01495  -0.00043
  97        5PX        -0.00342  -0.00321  -0.00732  -0.00808  -0.00181
  98        5PY         0.00013  -0.00305  -0.00004  -0.00732  -0.00008
  99        5PZ         0.00000  -0.00008   0.00141   0.00240  -0.00032
 100        6PX        -0.00048   0.00710  -0.00132   0.01177   0.00034
 101        6PY         0.00796  -0.00035   0.01254  -0.00123   0.00372
 102        6PZ         0.00135   0.00235  -0.00015  -0.00021   0.00048
 103        7PX         0.00255   0.01205   0.01400   0.03747   0.00203
 104        7PY         0.01098   0.00201   0.02133   0.01425   0.00386
 105        7PZ        -0.00037  -0.00047  -0.00381  -0.00649  -0.00082
 106        8D 0       -0.00024  -0.00033  -0.00071  -0.00120  -0.00019
 107        8D+1       -0.00034  -0.00055  -0.00025  -0.00012  -0.00010
 108        8D-1       -0.00018  -0.00033   0.00017  -0.00025  -0.00009
 109        8D+2        0.00098  -0.00019   0.00214  -0.00016   0.00054
 110        8D-2       -0.00015   0.00067  -0.00004   0.00202  -0.00004
 111        9D 0        0.00027   0.00046  -0.00065  -0.00131   0.00018
 112        9D+1       -0.00077  -0.00291   0.00108   0.00273   0.00015
 113        9D-1       -0.00197  -0.00082   0.00165   0.00104  -0.00110
 114        9D+2        0.00082  -0.00134   0.00143  -0.00239   0.00051
 115        9D-2       -0.00154  -0.00078  -0.00249  -0.00133  -0.00103
 116 5   Cl 1S         -0.00026   0.00000  -0.00032   0.00000   0.00076
 117        2S          0.00096   0.00000   0.00119   0.00000  -0.00290
 118        3S         -0.00213   0.00000  -0.00268   0.00000   0.00589
 119        4S         -0.00031   0.00000  -0.00041   0.00000   0.00090
 120        5S         -0.00114   0.00000  -0.00150   0.00000   0.00517
 121        6S          0.00058   0.00000   0.00059   0.00000   0.00176
 122        7PX         0.00000  -0.00839  -0.00001  -0.04555   0.00005
 123        7PY        -0.00920   0.00000  -0.04181   0.00001   0.22318
 124        7PZ         0.00069   0.00000   0.00154   0.00001   0.00107
 125        8PX         0.00001   0.01985   0.00002   0.10752  -0.00012
 126        8PY         0.02182  -0.00001   0.09890  -0.00003  -0.51057
 127        8PZ        -0.00167   0.00000  -0.00364  -0.00002  -0.00251
 128        9PX         0.00000   0.00923   0.00001   0.04981  -0.00006
 129        9PY         0.01011   0.00000   0.04568  -0.00001  -0.24662
 130        9PZ        -0.00073   0.00000  -0.00161  -0.00001  -0.00125
 131       10PX         0.00000   0.00996   0.00001   0.05871  -0.00009
 132       10PY         0.01083   0.00000   0.05311  -0.00001  -0.36686
 133       10PZ        -0.00131   0.00000  -0.00255  -0.00001  -0.00399
 134       11PX         0.00000   0.00214   0.00000   0.00378  -0.00002
 135       11PY         0.00211   0.00000   0.00304   0.00000  -0.06191
 136       11PZ        -0.00027   0.00000  -0.00035   0.00000  -0.00156
 137       12D 0        0.00009   0.00000   0.00022   0.00000  -0.00033
 138       12D+1        0.00000  -0.00179   0.00000  -0.00627   0.00000
 139       12D-1       -0.00199   0.00000  -0.00609   0.00000   0.00030
 140       12D+2        0.00013   0.00000   0.00056   0.00000   0.00023
 141       12D-2        0.00000   0.00010   0.00000   0.00053   0.00000
 142       13D 0        0.00023   0.00000   0.00044   0.00000  -0.00050
 143       13D+1        0.00000  -0.00272   0.00000  -0.01109   0.00000
 144       13D-1       -0.00309   0.00000  -0.01081   0.00000   0.00082
 145       13D+2        0.00034   0.00000   0.00068   0.00000   0.00053
 146       13D-2        0.00000   0.00030   0.00000   0.00061   0.00000
 147       14D 0        0.00014   0.00000   0.00027   0.00000   0.00019
 148       14D+1        0.00000   0.00007   0.00000   0.00004   0.00000
 149       14D-1        0.00006   0.00000   0.00005   0.00000   0.00341
 150       14D+2       -0.00065   0.00000  -0.00007   0.00000   0.00004
 151       14D-2        0.00000  -0.00066   0.00000  -0.00007   0.00000
 152       15F 0       -0.00005   0.00000  -0.00009   0.00000   0.00009
 153       15F+1        0.00000   0.00084   0.00000   0.00267   0.00000
 154       15F-1        0.00093   0.00000   0.00258   0.00000  -0.00143
 155       15F+2       -0.00012   0.00000  -0.00035   0.00000  -0.00008
 156       15F-2        0.00000  -0.00010   0.00000  -0.00032   0.00000
 157       15F+3        0.00000   0.00000   0.00000   0.00000   0.00000
 158       15F-3        0.00000   0.00000   0.00000   0.00000   0.00000
 159       16F 0       -0.00005   0.00000  -0.00009   0.00000   0.00012
 160       16F+1        0.00000   0.00056   0.00000   0.00204   0.00000
 161       16F-1        0.00062   0.00000   0.00198   0.00000  -0.00181
 162       16F+2        0.00001   0.00000   0.00017   0.00000  -0.00017
 163       16F-2        0.00000   0.00002   0.00000   0.00020   0.00000
 164       16F+3        0.00000   0.00000   0.00000  -0.00001   0.00000
 165       16F-3        0.00000   0.00000   0.00000   0.00000   0.00002
 166 6   F  1S          0.00032   0.00000   0.00032   0.00000  -0.00088
 167        2S         -0.00084   0.00000  -0.00091   0.00000   0.00187
 168        3S         -0.00027   0.00000  -0.00030   0.00000   0.00057
 169        4S         -0.00073   0.00000  -0.00083   0.00000   0.00122
 170        5S          0.00018   0.00000   0.00004   0.00000   0.00059
 171        6PX         0.00012   0.33529  -0.00004  -0.15544   0.00000
 172        6PY         0.32889  -0.00012  -0.16862   0.00004  -0.02214
 173        6PZ         0.00433  -0.00006   0.00286   0.00003   0.02856
 174        7PX         0.00014   0.39994  -0.00005  -0.18426   0.00000
 175        7PY         0.39234  -0.00014  -0.19999   0.00004  -0.02621
 176        7PZ         0.00517  -0.00007   0.00344   0.00003   0.03405
 177        8PX         0.00012   0.32344  -0.00004  -0.15529   0.00000
 178        8PY         0.31710  -0.00012  -0.16792   0.00004  -0.02240
 179        8PZ         0.00415  -0.00006   0.00272   0.00003   0.02813
 180        9PX         0.00004   0.10175  -0.00001  -0.05505   0.00000
 181        9PY         0.09961  -0.00004  -0.05892   0.00001  -0.01089
 182        9PZ         0.00128  -0.00002   0.00066   0.00001   0.00879
 183       10D 0        0.00002   0.00000   0.00002   0.00000   0.00007
 184       10D+1        0.00000   0.00060   0.00000   0.00011   0.00000
 185       10D-1        0.00060   0.00000   0.00008   0.00000   0.00011
 186       10D+2        0.00003   0.00000   0.00003   0.00000   0.00001
 187       10D-2        0.00000   0.00002   0.00000   0.00004   0.00000
 188       11D 0        0.00007   0.00000   0.00008   0.00000   0.00018
 189       11D+1        0.00000   0.00240   0.00000   0.00128   0.00000
 190       11D-1        0.00244   0.00000   0.00116   0.00000   0.00057
 191       11D+2        0.00007   0.00000   0.00025   0.00000   0.00017
 192       11D-2        0.00000   0.00003   0.00000   0.00025   0.00000
 193       12D 0        0.00014   0.00000   0.00012   0.00000   0.00083
 194       12D+1        0.00000   0.00600   0.00000  -0.00345   0.00000
 195       12D-1        0.00587   0.00000  -0.00366   0.00000   0.00033
 196       12D+2        0.00005   0.00000  -0.00030   0.00000  -0.00036
 197       12D-2        0.00000   0.00002   0.00000  -0.00026   0.00000
 198       13F 0        0.00001   0.00000   0.00001   0.00000   0.00002
 199       13F+1        0.00000   0.00021   0.00000   0.00026   0.00000
 200       13F-1        0.00022   0.00000   0.00025   0.00000   0.00006
 201       13F+2        0.00006   0.00000   0.00011   0.00000   0.00006
 202       13F-2        0.00000   0.00005   0.00000   0.00011   0.00000
 203       13F+3        0.00000   0.00000   0.00000   0.00000   0.00000
 204       13F-3        0.00000   0.00000   0.00000   0.00000   0.00000
 205       14F 0        0.00003   0.00000   0.00001   0.00000   0.00015
 206       14F+1        0.00000   0.00148   0.00000  -0.00085   0.00000
 207       14F-1        0.00144   0.00000  -0.00090   0.00000   0.00002
 208       14F+2       -0.00012   0.00000  -0.00024   0.00000  -0.00016
 209       14F-2        0.00000  -0.00014   0.00000  -0.00024   0.00000
 210       14F+3        0.00000   0.00000   0.00000   0.00000   0.00000
 211       14F-3        0.00000   0.00000   0.00000   0.00000   0.00001
                          16        17        18        19        20
     Eigenvalues --     1.94908   1.94879   1.93535   0.06019   0.02496
   1 1   C  1S          0.00000   0.05320  -0.01580  -0.02406   0.00000
   2        2S          0.00000  -0.15144   0.05098   0.06680   0.00000
   3        3S          0.00000  -0.03573   0.01676   0.02432   0.00000
   4        4S          0.00000  -0.29112   0.08706  -0.22143  -0.00001
   5        5S          0.00000  -0.05741   0.03918  -0.02902   0.00000
   6        6PX         0.06993  -0.00001  -0.00002   0.00005   0.16146
   7        6PY        -0.00002  -0.00712   0.00057   0.00013   0.00001
   8        6PZ        -0.00001  -0.04555  -0.12872   0.27937  -0.00003
   9        7PX         0.09704  -0.00001  -0.00003   0.00008   0.30110
  10        7PY        -0.00002  -0.01004   0.00104  -0.00061   0.00001
  11        7PZ        -0.00002  -0.06454  -0.18059   0.44327  -0.00005
  12        8PX         0.07503  -0.00001  -0.00001   0.00004   0.13743
  13        8PY        -0.00002  -0.00807   0.00128  -0.00069   0.00001
  14        8PZ        -0.00001  -0.06401  -0.07660   0.20176  -0.00002
  15        9PX         0.01250   0.00000   0.00000   0.00000   0.02922
  16        9PY         0.00000  -0.00134   0.00030   0.00013   0.00000
  17        9PZ         0.00000  -0.00123  -0.00166  -0.00006  -0.00001
  18       10D 0        0.00000   0.00932  -0.01106  -0.00881  -0.00001
  19       10D+1       -0.00373   0.00000   0.00000   0.00000   0.02539
  20       10D-1        0.00000   0.00033  -0.00004  -0.00014   0.00000
  21       10D+2        0.00000  -0.00042  -0.00003  -0.00004   0.00001
  22       10D-2        0.00515   0.00000   0.00000   0.00000   0.00328
  23       11D 0        0.00000   0.04965  -0.04570   0.06669  -0.00002
  24       11D+1       -0.01535   0.00002  -0.00001   0.00002   0.05935
  25       11D-1        0.00000   0.00112  -0.00016   0.00083  -0.00001
  26       11D+2        0.00000  -0.00140   0.00002   0.00008   0.00004
  27       11D-2        0.01756   0.00000   0.00000   0.00000   0.07331
  28       12D 0        0.00000   0.02809  -0.00381  -0.01694  -0.00001
  29       12D+1        0.00110   0.00001   0.00000  -0.00001   0.01955
  30       12D-1        0.00000  -0.00007  -0.00007   0.00025   0.00000
  31       12D+2        0.00000  -0.00062  -0.00008   0.00066   0.00001
  32       12D-2        0.01056   0.00000   0.00000   0.00000   0.01760
  33       13F 0        0.00000  -0.00208  -0.00328  -0.00586   0.00000
  34       13F+1       -0.00225   0.00000   0.00000   0.00000  -0.00994
  35       13F-1        0.00000   0.00024  -0.00005   0.00004   0.00000
  36       13F+2        0.00000   0.00005  -0.00001  -0.00003   0.00000
  37       13F-2       -0.00035   0.00000   0.00000   0.00000   0.00320
  38       13F+3       -0.00001   0.00000   0.00000   0.00000  -0.00008
  39       13F-3        0.00000  -0.00307   0.00115  -0.00053   0.00000
  40       14F 0        0.00000  -0.00545  -0.00087   0.01162   0.00000
  41       14F+1       -0.00726   0.00000   0.00000   0.00000  -0.00303
  42       14F-1        0.00000   0.00077  -0.00010   0.00031   0.00000
  43       14F+2        0.00000   0.00014  -0.00001   0.00048   0.00000
  44       14F-2       -0.00331   0.00000   0.00000   0.00001  -0.00246
  45       14F+3       -0.00004  -0.00001   0.00000  -0.00001  -0.00051
  46       14F-3        0.00000  -0.01503   0.00917  -0.03769   0.00000
  47 2   H  1S          0.00001  -0.02901   0.02858  -0.00698   0.00001
  48        2S          0.00001   0.00206   0.02221   0.07922   0.00005
  49        3S          0.00000   0.02212   0.02030   0.06970   0.00003
  50        4S          0.00000  -0.00002   0.00204   0.00711   0.00001
  51        5PX         0.00114   0.00000   0.00000   0.00000   0.00335
  52        5PY         0.00000  -0.00181   0.00250  -0.00215   0.00000
  53        5PZ         0.00000  -0.00270  -0.00329   0.01461   0.00000
  54        6PX         0.00402   0.00000   0.00000   0.00001   0.00868
  55        6PY         0.00000   0.00470  -0.00131   0.00859   0.00001
  56        6PZ         0.00000  -0.00101  -0.01040   0.02868   0.00000
  57        7PX         0.00305   0.00000   0.00000   0.00000   0.00000
  58        7PY         0.00000   0.00994  -0.00133   0.01260   0.00001
  59        7PZ         0.00000   0.00790   0.00313  -0.01423   0.00000
  60        8D 0        0.00000   0.00012  -0.00085   0.00069   0.00000
  61        8D+1       -0.00003   0.00000   0.00000   0.00000   0.00188
  62        8D-1        0.00000  -0.00019  -0.00173   0.00684   0.00000
  63        8D+2        0.00000   0.00050  -0.00061   0.00200   0.00000
  64        8D-2        0.00065   0.00000   0.00000   0.00000   0.00241
  65        9D 0        0.00000   0.00088  -0.00286   0.00621   0.00000
  66        9D+1       -0.00121   0.00000   0.00000   0.00000   0.00428
  67        9D-1        0.00000   0.00200  -0.00049  -0.00610   0.00000
  68        9D+2        0.00000   0.00120   0.00033  -0.00109   0.00000
  69        9D-2        0.00117   0.00000   0.00000   0.00000   0.00130
  70 3   H  1S         -0.04157  -0.03606   0.02898  -0.00676   0.03874
  71        2S         -0.04150  -0.00588   0.02315   0.08030   0.23736
  72        3S          0.00517   0.02167   0.02034   0.06827   0.15141
  73        4S          0.00099   0.00017   0.00188   0.00728   0.06184
  74        5PX        -0.00246  -0.00204   0.00214  -0.00166  -0.00576
  75        5PY         0.00209   0.00108  -0.00124   0.00100   0.00521
  76        5PZ         0.00014  -0.00265  -0.00318   0.01414  -0.01046
  77        6PX         0.00519   0.00483  -0.00134   0.00870   0.04907
  78        6PY        -0.00082  -0.00339   0.00096  -0.00573  -0.02407
  79        6PZ        -0.00103  -0.00099  -0.01023   0.02797  -0.00440
  80        7PX         0.00838   0.00998  -0.00157   0.01119   0.03909
  81        7PY        -0.00324  -0.00595   0.00086  -0.00614  -0.02307
  82        7PZ         0.00248   0.00812   0.00319  -0.01389   0.00549
  83        8D 0        0.00037   0.00016  -0.00085   0.00056   0.00222
  84        8D+1       -0.00023  -0.00018  -0.00146   0.00574  -0.00246
  85        8D-1        0.00012   0.00011   0.00086  -0.00341   0.00253
  86        8D+2        0.00004  -0.00032   0.00030  -0.00089  -0.00003
  87        8D-2        0.00056   0.00044  -0.00052   0.00155   0.00245
  88        9D 0       -0.00009   0.00080  -0.00280   0.00584  -0.00329
  89        9D+1       -0.00061   0.00175  -0.00047  -0.00495   0.01277
  90        9D-1       -0.00030  -0.00100   0.00032   0.00296  -0.00492
  91        9D+2        0.00096  -0.00058  -0.00017   0.00053   0.00483
  92        9D-2       -0.00057   0.00084   0.00032  -0.00103  -0.00752
  93 4   H  1S          0.04156  -0.03606   0.02898  -0.00676  -0.03875
  94        2S          0.04149  -0.00588   0.02315   0.08030  -0.23740
  95        3S         -0.00517   0.02167   0.02034   0.06827  -0.15144
  96        4S         -0.00099   0.00017   0.00188   0.00728  -0.06185
  97        5PX        -0.00246   0.00204  -0.00214   0.00167  -0.00575
  98        5PY        -0.00209   0.00107  -0.00124   0.00100  -0.00521
  99        5PZ        -0.00014  -0.00265  -0.00318   0.01414   0.01046
 100        6PX         0.00519  -0.00483   0.00134  -0.00869   0.04908
 101        6PY         0.00082  -0.00339   0.00096  -0.00573   0.02407
 102        6PZ         0.00103  -0.00099  -0.01023   0.02797   0.00439
 103        7PX         0.00838  -0.00998   0.00157  -0.01120   0.03910
 104        7PY         0.00323  -0.00595   0.00086  -0.00614   0.02307
 105        7PZ        -0.00248   0.00812   0.00319  -0.01389  -0.00551
 106        8D 0       -0.00037   0.00016  -0.00085   0.00056  -0.00222
 107        8D+1       -0.00023   0.00018   0.00146  -0.00574  -0.00247
 108        8D-1       -0.00012   0.00011   0.00086  -0.00340  -0.00253
 109        8D+2       -0.00004  -0.00032   0.00030  -0.00089   0.00003
 110        8D-2        0.00056  -0.00044   0.00052  -0.00155   0.00245
 111        9D 0        0.00009   0.00080  -0.00280   0.00584   0.00329
 112        9D+1       -0.00061  -0.00175   0.00047   0.00496   0.01278
 113        9D-1        0.00030  -0.00100   0.00032   0.00296   0.00493
 114        9D+2       -0.00096  -0.00059  -0.00017   0.00053  -0.00483
 115        9D-2       -0.00057  -0.00084  -0.00032   0.00103  -0.00752
 116 5   Cl 1S          0.00000   0.01019   0.00050  -0.01679   0.00000
 117        2S          0.00000  -0.03887  -0.00167   0.05630   0.00000
 118        3S          0.00000   0.08034   0.01125  -0.15673   0.00000
 119        4S          0.00000   0.01240   0.00452  -0.03985   0.00000
 120        5S          0.00000   0.06886   0.01222  -0.04603   0.00000
 121        6S          0.00000   0.02035  -0.01253   0.01582   0.00000
 122        7PX         0.22323   0.00000  -0.00004  -0.00003   0.02109
 123        7PY        -0.00005  -0.01788  -0.00112  -0.00110   0.00000
 124        7PZ        -0.00004   0.02662  -0.21012  -0.16340   0.00000
 125        8PX        -0.51067   0.00000   0.00008   0.00006  -0.03281
 126        8PY         0.00012   0.04087   0.00245   0.00241   0.00000
 127        8PZ         0.00009  -0.06217   0.46461   0.36065   0.00001
 128        9PX        -0.24670   0.00000   0.00004   0.00004  -0.03504
 129        9PY         0.00006   0.01975   0.00112   0.00138   0.00000
 130        9PZ         0.00004  -0.03101   0.21829   0.20646   0.00001
 131       10PX        -0.36722   0.00000   0.00006   0.00001   0.01646
 132       10PY         0.00009   0.02940   0.00160   0.00004   0.00000
 133       10PZ         0.00006  -0.07210   0.31775   0.02934   0.00000
 134       11PX        -0.06218   0.00000   0.00001   0.00000   0.00602
 135       11PY         0.00001   0.00504   0.00009  -0.00003   0.00000
 136       11PZ         0.00001  -0.02395   0.04618   0.00728   0.00000
 137       12D 0        0.00000  -0.00472  -0.01240   0.06747   0.00002
 138       12D+1        0.00013   0.00000   0.00000   0.00002  -0.05787
 139       12D-1        0.00000   0.00001  -0.00020   0.00067   0.00000
 140       12D+2        0.00000  -0.00003   0.00001   0.00000  -0.00001
 141       12D-2        0.00026   0.00000   0.00000   0.00000   0.00009
 142       13D 0        0.00000  -0.00753  -0.01943   0.09787   0.00003
 143       13D+1        0.00055   0.00000  -0.00001   0.00003  -0.08632
 144       13D-1        0.00000   0.00000  -0.00034   0.00116  -0.00001
 145       13D+2        0.00000  -0.00004   0.00001  -0.00002  -0.00001
 146       13D-2        0.00058   0.00000   0.00000   0.00000   0.00015
 147       14D 0        0.00000   0.00152  -0.01323   0.03013   0.00000
 148       14D+1        0.00329   0.00000   0.00000   0.00001  -0.00909
 149       14D-1        0.00000  -0.00021  -0.00023   0.00040   0.00000
 150       14D+2        0.00000   0.00000   0.00002  -0.00005   0.00000
 151       14D-2        0.00010   0.00000   0.00000   0.00000   0.00004
 152       15F 0        0.00000   0.00098   0.00459  -0.00358   0.00000
 153       15F+1       -0.00138   0.00000   0.00000   0.00000   0.00501
 154       15F-1        0.00000   0.00011   0.00008  -0.00004   0.00000
 155       15F+2        0.00000   0.00001   0.00000  -0.00001   0.00000
 156       15F-2       -0.00013   0.00000   0.00000   0.00000  -0.00015
 157       15F+3        0.00000   0.00000   0.00000   0.00000   0.00000
 158       15F-3        0.00000  -0.00007   0.00004   0.00004   0.00000
 159       16F 0        0.00000   0.00136   0.00401   0.00164   0.00000
 160       16F+1       -0.00177   0.00000   0.00000   0.00000   0.00017
[...]
  80        7PX         1.12057  -9.78185  -0.24827  -1.84963   4.65147
  81        7PY         0.12471  -0.32027 -10.35575   0.84015  -4.73792
  82        7PZ        -1.68280  -2.84431   1.55992   0.03866   0.70890
  83        8D 0       -0.03539   0.00710  -0.01005   0.02544  -0.01523
  84        8D+1        0.01116  -0.02846  -0.00657   0.00858  -0.01108
  85        8D-1       -0.00472  -0.00834  -0.03907  -0.00597   0.00941
  86        8D+2        0.05472   0.05068   0.09903   0.02296   0.02874
  87        8D-2       -0.11293   0.02899   0.03751  -0.04214  -0.02129
  88        9D 0       -0.48497   0.40987  -0.30285  -0.14081  -0.22705
  89        9D+1       -0.24845  -0.04585   0.23923  -0.03886   0.18006
  90        9D-1        0.11950   0.25110   0.25071   0.02327  -0.15739
  91        9D+2       -0.05035  -1.35864  -1.05337  -0.38252  -0.13812
  92        9D-2        0.28598   0.57127  -1.37326   0.60065  -0.34899
  93 4   H  1S         -0.03474  -0.00835  -0.00974  -0.00997   0.02127
  94        2S          0.09470   2.89245   1.66894  -0.48851  -1.81877
  95        3S          6.26689  24.33038  14.39652  -3.23042 -22.14378
  96        4S          1.55540  -1.52311  -0.89307  -2.06556  -9.61015
  97        5PX        -0.02442   0.10763   0.00082  -0.08354  -0.07476
  98        5PY        -0.02152   0.00422   0.10688  -0.04444  -0.07386
  99        5PZ         0.05926   0.00867   0.00875   0.02964   0.00848
 100        6PX        -0.53794  -2.10812  -0.46359   0.62204   0.82423
 101        6PY        -0.21329  -0.41060  -1.74443   0.32040   0.78743
 102        6PZ        -0.33680   0.02147  -0.00625  -0.15613  -0.13561
 103        7PX        -1.11463  -9.78157   0.24286   1.84964   4.65213
 104        7PY         0.12463   0.32631 -10.35565   0.83964   4.73681
 105        7PZ        -1.68436   2.84609   1.56079   0.03808  -0.71053
 106        8D 0       -0.03538  -0.00710  -0.01006   0.02545   0.01524
 107        8D+1       -0.01118  -0.02846   0.00650  -0.00858  -0.01107
 108        8D-1       -0.00477   0.00835  -0.03906  -0.00598  -0.00940
 109        8D+2        0.05481  -0.05067   0.09900   0.02297  -0.02876
 110        8D-2        0.11289   0.02912  -0.03756   0.04213  -0.02128
 111        9D 0       -0.48487  -0.41007  -0.30284  -0.14084   0.22692
 112        9D+1        0.24823  -0.04639  -0.23899   0.03890   0.18018
 113        9D-1        0.11971  -0.25130   0.25021   0.02346   0.15747
 114        9D+2       -0.05133   1.35922  -1.05227  -0.38279   0.13804
 115        9D-2       -0.28629   0.56984   1.37407  -0.60043  -0.34902
 116 5   Cl 1S          0.02021   0.00001   0.00160   0.01172   0.00000
 117        2S          0.27956   0.00009   0.02281   0.16293   0.00000
 118        3S          0.77972   0.00026   0.06219   0.45799   0.00000
 119        4S         -0.04164  -0.00001  -0.00519  -0.01434   0.00000
 120        5S         -4.34817  -0.00145  -0.31560  -3.01604  -0.00002
 121        6S         -9.79703  -0.00313  -0.73391 -13.24018  -0.00005
 122        7PX         0.00000   0.00067   0.00000   0.00000  -0.00299
 123        7PY        -0.00028   0.00000   0.00088  -0.00038   0.00000
 124        7PZ        -0.00459   0.00000  -0.00031  -0.02274   0.00000
 125        8PX        -0.00002   0.01671   0.00001  -0.00005  -0.05982
 126        8PY        -0.00545  -0.00001   0.01955  -0.00757   0.00001
 127        8PZ        -0.06469  -0.00002  -0.00399  -0.31750   0.00001
 128        9PX         0.00000  -0.00336   0.00000   0.00001   0.01000
 129        9PY         0.00108   0.00000  -0.00435   0.00123   0.00000
 130        9PZ         0.00197   0.00000   0.00013   0.07964   0.00000
 131       10PX         0.00106  -0.06271   0.00006   0.00090   0.42647
 132       10PY         0.04086   0.00004  -0.06414   0.07745  -0.00007
 133       10PZ         5.90060   0.00193   0.43778   5.07230  -0.00005
 134       11PX         0.00054  -1.13289  -0.00032   0.00059  -0.24461
 135       11PY         0.10967   0.00039  -1.15982   0.02612   0.00004
 136       11PZ         0.78962   0.00043   0.06067   3.35837   0.00005
 137       12D 0        0.06804   0.00001   0.00469   0.00177   0.00000
 138       12D+1        0.00001   0.03021   0.00001   0.00000  -0.00364
 139       12D-1       -0.00311  -0.00001   0.03120  -0.00044   0.00000
 140       12D+2        0.00160   0.00001  -0.00802  -0.00020   0.00000
 141       12D-2        0.00000  -0.00731   0.00001   0.00000   0.01237
 142       13D 0       -0.38744  -0.00009  -0.02831  -0.07019  -0.00001
 143       13D+1       -0.00008  -0.11015  -0.00005  -0.00002   0.02550
 144       13D-1        0.01158   0.00003  -0.11578   0.00165   0.00000
 145       13D+2       -0.00460  -0.00002   0.01870   0.00037   0.00000
 146       13D-2        0.00000   0.01611  -0.00002   0.00000  -0.04450
 147       14D 0       -1.38976  -0.00054  -0.10519  -1.23978   0.00010
 148       14D+1       -0.00053   0.30202   0.00007  -0.00038  -0.32952
 149       14D-1       -0.05525  -0.00010   0.30574  -0.05074   0.00002
 150       14D+2        0.00683   0.00006  -0.06692   0.00603  -0.00001
 151       14D-2        0.00001  -0.06186   0.00006  -0.00001   0.20275
 152       15F 0       -0.04295  -0.00002  -0.00350   0.00126   0.00001
 153       15F+1       -0.00002   0.00451   0.00000   0.00000  -0.01898
 154       15F-1       -0.00252   0.00000   0.00448  -0.00243   0.00000
 155       15F+2        0.00029   0.00000  -0.00980   0.00055   0.00000
 156       15F-2        0.00000  -0.00950   0.00000  -0.00001   0.01014
 157       15F+3        0.00000   0.00013   0.00000   0.00001   0.00025
 158       15F-3       -0.00934  -0.00001  -0.00024   0.02293   0.00000
 159       16F 0        0.23279   0.00008   0.01717   0.08881  -0.00003
 160       16F+1        0.00011  -0.01596  -0.00001   0.00004   0.06496
 161       16F-1        0.00819   0.00000  -0.01348   0.01062   0.00000
 162       16F+2       -0.00201   0.00000   0.04589  -0.00243   0.00001
 163       16F-2       -0.00002   0.04562  -0.00001   0.00001  -0.04222
 164       16F+3        0.00001  -0.00033   0.00001  -0.00002  -0.00040
 165       16F-3        0.01943   0.00002   0.00058  -0.04283  -0.00001
 166 6   F  1S          0.04005   0.00001   0.00281  -0.02272   0.00000
 167        2S          0.14088   0.00005   0.00984  -0.08628   0.00000
 168        3S         -0.07182  -0.00002  -0.00503   0.03678   0.00000
 169        4S         -0.37766  -0.00013  -0.02938  -0.01903  -0.00001
 170        5S         -0.05790   0.00001  -0.05019  -5.93323  -0.00003
 171        6PX         0.00000  -0.00718   0.00000   0.00000   0.00172
 172        6PY         0.00067   0.00000  -0.00738   0.00011   0.00000
 173        6PZ         0.00539   0.00000   0.00027   0.00222   0.00000
 174        7PX        -0.00002   0.03718   0.00001   0.00000  -0.00626
 175        7PY        -0.00286  -0.00001   0.03809  -0.00053   0.00000
 176        7PZ        -0.06355  -0.00003  -0.00408   0.00271   0.00000
 177        8PX         0.00020  -0.26040  -0.00007  -0.00004   0.00222
 178        8PY         0.01402   0.00009  -0.26575   0.00242   0.00000
 179        8PZ         0.62767   0.00026   0.03926  -0.24701   0.00000
 180        9PX         0.00013  -0.82893  -0.00026  -0.00043  -0.22864
 181        9PY         0.04937   0.00027  -0.84825   0.01155   0.00004
 182        9PZ        -0.86718  -0.00012  -0.06380  -2.49137   0.00003
 183       10D 0        0.01129   0.00001   0.00101  -0.00799   0.00000
 184       10D+1        0.00001  -0.01463   0.00000   0.00000   0.00228
 185       10D-1        0.00114   0.00000  -0.01488   0.00052   0.00000
 186       10D+2       -0.00078   0.00000   0.00485   0.00004   0.00000
 187       10D-2        0.00000   0.00498   0.00000   0.00000   0.00286
 188       11D 0       -0.04177  -0.00003  -0.00385   0.01578   0.00000
 189       11D+1       -0.00003   0.04700   0.00002   0.00000  -0.00409
 190       11D-1       -0.00345  -0.00001   0.04785  -0.00150   0.00000
 191       11D+2        0.00270   0.00001  -0.01640  -0.00032   0.00000
 192       11D-2        0.00001  -0.01688   0.00001   0.00000  -0.01013
 193       12D 0        0.41475   0.00018   0.03353  -0.01169   0.00001
 194       12D+1        0.00018  -0.13706  -0.00004   0.00000  -0.03029
 195       12D-1        0.00450   0.00003  -0.13900   0.00249   0.00000
 196       12D+2       -0.00930  -0.00002   0.06181   0.00091   0.00000
 197       12D-2       -0.00002   0.06262  -0.00003   0.00000   0.01923
 198       13F 0       -0.02728   0.00000  -0.00248  -0.00757   0.00000
 199       13F+1       -0.00001  -0.01861   0.00000   0.00000   0.00809
 200       13F-1        0.00195   0.00001  -0.01863   0.00074   0.00000
 201       13F+2        0.00097  -0.00001  -0.00918   0.00049   0.00000
 202       13F-2        0.00000  -0.00897   0.00000   0.00000   0.00279
 203       13F+3        0.00000   0.00051   0.00000   0.00000   0.00007
 204       13F-3        0.01273   0.00000   0.00095  -0.00134   0.00000
 205       14F 0        0.06784   0.00000   0.00642   0.01175   0.00001
 206       14F+1        0.00002   0.04010   0.00001   0.00001  -0.01782
 207       14F-1       -0.00461  -0.00002   0.04033  -0.00117   0.00000
 208       14F+2       -0.00250   0.00001   0.02541  -0.00084  -0.00001
 209       14F-2       -0.00001   0.02496   0.00001   0.00000  -0.00664
 210       14F+3       -0.00001  -0.00069   0.00000   0.00000  -0.00010
 211       14F-3       -0.01717   0.00000  -0.00126   0.00255   0.00000
                         211
     Eigenvalues --     0.00000
   1 1   C  1S         -0.01279
   2        2S         -0.07522
   3        3S         -0.01019
   4        4S         -0.83593
   5        5S         -0.39433
   6        6PX         0.00000
   7        6PY        -0.00812
   8        6PZ        -0.00002
   9        7PX         0.00028
  10        7PY         1.60027
  11        7PZ         0.01170
  12        8PX         0.00289
  13        8PY        17.52555
  14        8PZ         0.00143
  15        9PX         0.00128
  16        9PY         7.93646
  17        9PZ        -0.03792
  18       10D 0        0.00089
  19       10D+1        0.00000
  20       10D-1       -0.00240
  21       10D+2        0.02270
  22       10D-2       -0.00001
  23       11D 0        0.01400
  24       11D+1       -0.00011
  25       11D-1       -0.21165
  26       11D+2        0.45256
  27       11D-2       -0.00013
  28       12D 0       -0.20495
  29       12D+1       -0.00018
  30       12D-1       -1.28976
  31       12D+2       -0.55716
  32       12D-2       -0.00012
  33       13F 0       -0.00120
  34       13F+1        0.00000
  35       13F-1        0.03747
  36       13F+2        0.00901
  37       13F-2        0.00001
  38       13F+3        0.00000
  39       13F-3        0.00113
  40       14F 0        0.00332
  41       14F+1       -0.00004
  42       14F-1       -0.41063
  43       14F+2       -0.07865
  44       14F-2       -0.00009
  45       14F+3       -0.00003
  46       14F-3       -0.02558
  47 2   H  1S         -0.02945
  48        2S          2.42452
  49        3S         26.55804
  50        4S         11.28786
  51        5PX        -0.00002
  52        5PY        -0.11636
  53        5PZ        -0.01205
  54        6PX         0.00020
  55        6PY         1.38880
  56        6PZ         0.18473
  57        7PX         0.00099
  58        7PY         7.60959
  59        7PZ         0.80567
  60        8D 0       -0.02173
  61        8D+1        0.00000
  62        8D-1       -0.01395
  63        8D+2       -0.04433
  64        8D-2        0.00001
  65        9D 0       -0.26105
  66        9D+1        0.00000
  67        9D-1        0.27501
  68        9D+2       -0.29370
  69        9D-2        0.00011
  70 3   H  1S          0.01375
  71        2S         -1.10018
  72        3S        -13.01839
  73        4S         -5.58297
  74        5PX         0.07249
  75        5PY         0.00813
  76        5PZ         0.00499
  77        6PX        -0.78706
  78        6PY        -0.04074
  79        6PZ        -0.08257
  80        7PX        -4.67174
  81        7PY        -0.70245
  82        7PZ        -0.42345
  83        8D 0        0.00823
  84        8D+1        0.00899
  85        8D-1        0.00040
  86        8D+2        0.01123
  87        8D-2        0.03025
  88        9D 0        0.14379
  89        9D+1       -0.15982
  90        9D-1        0.00222
  91        9D+2       -0.48007
  92        9D-2       -0.12677
  93 4   H  1S          0.01375
  94        2S         -1.10036
  95        3S        -13.02015
  96        4S         -5.58366
  97        5PX        -0.07249
  98        5PY         0.00814
  99        5PZ         0.00501
 100        6PX         0.78710
 101        6PY        -0.04088
 102        6PZ        -0.08286
 103        7PX         4.67179
 104        7PY        -0.70329
 105        7PZ        -0.42517
 106        8D 0        0.00823
 107        8D+1       -0.00899
 108        8D-1        0.00041
 109        8D+2        0.01121
 110        8D-2       -0.03025
 111        9D 0        0.14371
 112        9D+1        0.16009
 113        9D-1        0.00214
 114        9D+2       -0.47994
 115        9D-2        0.12699
 116 5   Cl 1S         -0.00036
 117        2S         -0.00558
 118        3S         -0.01440
 119        4S          0.00215
 120        5S          0.08893
 121        6S          0.22327
 122        7PX         0.00000
 123        7PY        -0.00295
 124        7PZ         0.00050
 125        8PX        -0.00001
 126        8PY        -0.05837
 127        8PZ         0.00591
 128        9PX         0.00000
 129        9PY         0.00995
 130        9PZ        -0.00187
 131       10PX         0.00005
 132       10PY         0.41545
 133       10PZ        -0.10362
 134       11PX        -0.00005
 135       11PY        -0.25403
 136       11PZ        -0.06023
 137       12D 0        0.00027
 138       12D+1        0.00000
 139       12D-1       -0.00357
 140       12D+2        0.01196
 141       12D-2        0.00000
 142       13D 0        0.00022
 143       13D+1        0.00001
 144       13D-1        0.02515
 145       13D+2       -0.04328
 146       13D-2        0.00001
 147       14D 0        0.02335
 148       14D+1       -0.00008
 149       14D-1       -0.31734
 150       14D+2        0.20030
 151       14D-2       -0.00010
 152       15F 0       -0.00018
 153       15F+1       -0.00001
 154       15F-1       -0.01783
 155       15F+2        0.01052
 156       15F-2       -0.00001
 157       15F+3        0.00000
 158       15F-3       -0.00024
 159       16F 0       -0.00053
 160       16F+1        0.00002
 161       16F-1        0.06036
 162       16F+2       -0.04243
 163       16F-2        0.00003
 164       16F+3       -0.00001
 165       16F-3        0.00037
 166 6   F  1S         -0.00054
 167        2S         -0.00246
 168        3S          0.00033
 169        4S          0.01562
 170        5S          0.11487
 171        6PX         0.00000
 172        6PY         0.00168
 173        6PZ        -0.00011
 174        7PX         0.00000
 175        7PY        -0.00600
 176        7PZ         0.00019
 177        8PX         0.00000
 178        8PY         0.00013
 179        8PZ         0.01049
 180        9PX        -0.00003
 181        9PY        -0.23257
 182        9PZ         0.04889
 183       10D 0        0.00000
 184       10D+1        0.00000
 185       10D-1        0.00208
 186       10D+2        0.00282
 187       10D-2        0.00000
 188       11D 0        0.00031
 189       11D+1        0.00000
 190       11D-1       -0.00345
 191       11D+2       -0.01001
 192       11D-2        0.00000
 193       12D 0        0.00027
 194       12D+1       -0.00001
 195       12D-1       -0.03322
 196       12D+2        0.01886
 197       12D-2       -0.00001
 198       13F 0        0.00028
 199       13F+1        0.00000
 200       13F-1        0.00802
 201       13F+2        0.00253
 202       13F-2        0.00000
 203       13F+3        0.00000
 204       13F-3        0.00042
 205       14F 0       -0.00039
 206       14F+1        0.00000
 207       14F-1       -0.01788
 208       14F+2       -0.00621
 209       14F-2        0.00000
 210       14F+3        0.00000
 211       14F-3       -0.00075
          Condensed to atoms (all electrons):
              1          2          3          4          5          6
     1  C    7.011359  -0.015736  -0.005802  -0.005804  -0.050810  -0.099798
     2  H   -0.015736   0.546924   0.020055   0.020055  -0.018792   0.005277
     3  H   -0.005802   0.020055   0.547126   0.020112  -0.018747   0.003841
     4  H   -0.005804   0.020055   0.020112   0.547125  -0.018748   0.003840
     5  Cl  -0.050810  -0.018792  -0.018747  -0.018748  17.709188   0.026397
     6  F   -0.099798   0.005277   0.003841   0.003840   0.026397   9.907601
 Mulliken atomic charges:
              1
     1  C   -0.833409
     2  H    0.442218
     3  H    0.433416
     4  H    0.433420
     5  Cl  -0.628488
     6  F   -0.847157
 Sum of Mulliken atomic charges =  -1.00000
 Mulliken charges with hydrogens summed into heavy atoms:
              1
     1  C    0.475646
     5  Cl  -0.628488
     6  F   -0.847157
 Sum of Mulliken charges with hydrogens summed into heavy atoms =  -1.00000
 Electronic spatial extent (au):  <R**2>=            490.3168
 Charge=             -1.0000 electrons
 Dipole moment (field-independent basis, Debye):
    X=             -0.0006    Y=             -0.0049    Z=              4.0662  Tot=              4.0662
 Quadrupole moment (field-independent basis, Debye-Ang):
   XX=            -28.1971   YY=            -28.1658   ZZ=            -62.8204
   XY=              0.0000   XZ=             -0.0050   YZ=             -0.0008
 Traceless Quadrupole moment (field-independent basis, Debye-Ang):
   XX=             11.5306   YY=             11.5620   ZZ=            -23.0926
   XY=              0.0000   XZ=             -0.0050   YZ=             -0.0008
 Octapole moment (field-independent basis, Debye-Ang**2):
  XXX=             -0.0244  YYY=             -0.8397  ZZZ=             49.6878  XYY=             -0.0086
  XXY=              0.9856  XXZ=             -4.2284  XZZ=             -0.0066  YZZ=              0.0977
  YYZ=             -4.2431  XYZ=             -0.0002
 Hexadecapole moment (field-independent basis, Debye-Ang**3):
 XXXX=            -41.3506 YYYY=            -41.2115 ZZZZ=           -761.6437 XXXY=              0.0004
 XXXZ=             -0.0507 YYYX=             -0.0001 YYYZ=              0.4693 ZZZX=             -0.0657
 ZZZY=             -0.1856 XXYY=            -13.7465 XXZZ=           -103.4004 YYZZ=           -103.3720
 XXYZ=             -0.6923 YYXZ=             -0.0166 ZZXY=              0.0002
 N-N= 8.498402949443D+01 E-N=-1.604179945333D+03  KE= 5.991956603824D+02
 1\1\GINC-TRAPISTA\SP\RQCISD-FC\Aug-CC-pVTZ\C1H3Cl1F1(1-)\BRUNS\23-Aug-
 2020\0\\# QCISD aug-cc-pvtz nosymm density=current output=wfn\\clch3f_
 ts-wavefunction\\-1,1\C,0,0.000175,-0.009971,-0.497709\H,0,0.000019,-1
 .05257,-0.620726\H,0,-0.911312,0.526365,-0.621245\H,0,0.91175,0.526132
 ,-0.62157\Cl,0,0.000555,0.000962,1.644718\F,0,-0.000186,-0.000921,-2.5
 93468\\Version=EM64L-G09RevB.01\HF=-598.6169865\MP2=-599.2911354\MP3=-
 599.3098363\MP4D=-599.3247275\MP4DQ=-599.3102879\MP4SDQ=-599.3196549\Q
 CISD=-599.3190372\RMSD=9.415e-09\Dipole=0.0002718,-0.0047339,1.5872959
 \Quadrupole=8.5727365,8.596048,-17.1687845,0.0000029,-0.0036903,-0.000
 6137\PG=C01 [X(C1H3Cl1F1)]\\@

 Writing a WFN file to GAUSSIAN.wfn.


 ...THE PHYSICISTS HAVE MADE THEIR UNIVERSE, AND IF YOU DO NOT LIKE
 IT, YOU MUST MAKE YOUR OWN.
                               -- E. R. HARRISON IN "COSMOLOGY" (1980)
 Job cpu time:  0 days  3 hours 19 minutes 22.4 seconds.
 File lengths (MBytes):  RWF=  29002 Int=      0 D2E=      0 Chk=      4 Scr=      1
 Normal termination of Gaussian 09 at Sun Aug 23 20:29:23 2020.
