 clch3f_ts-wavefunction
GAUSSIAN            211 MOL ORBITALS    339 PRIMITIVES        6 NUCLEI
  C    1    (CENTRE  1)   0.00033070  0.00005480 -0.94053370  CHARGE =  6.0
  H    2    (CENTRE  2)   0.00003590 -1.98906904 -1.17300214  CHARGE =  1.0
  H    3    (CENTRE  3)  -1.72213010  0.99468570 -1.17398291  CHARGE =  1.0
  H    4    (CENTRE  4)   1.70406054  0.99424539 -1.17459707  CHARGE =  1.0
  Cl   5    (CENTRE  5)   0.00104880  0.00181792  3.10806659  CHARGE = 17.0
  F    6    (CENTRE  6)  -0.00035149 -0.00174044 -4.90094425  CHARGE =  9.0
CENTRE ASSIGNMENTS    1  1  1  1  1  1  1  1  1  1  1  1  1  1  1  1  1  1  1  1
CENTRE ASSIGNMENTS    1  1  1  1  1  1  1  1  1  1  1  1  1  1  1  1  1  1  1  1
CENTRE ASSIGNMENTS    1  1  1  1  1  1  1  1  1  1  1  1  1  1  1  1  1  1  1  1
CENTRE ASSIGNMENTS    1  1  1  1  1  1  1  1  1  1  1  1  2  2  2  2  2  2  2  2
CENTRE ASSIGNMENTS    2  2  2  2  2  2  2  2  2  2  2  2  2  2  2  2  2  2  2  3
CENTRE ASSIGNMENTS    3  3  3  3  3  3  3  3  3  3  3  3  3  3  3  3  3  3  3  3
CENTRE ASSIGNMENTS    3  3  3  3  3  3  4  4  4  4  4  4  4  4  4  4  4  4  4  4
CENTRE ASSIGNMENTS    4  4  4  4  4  4  4  4  4  4  4  4  4  5  5  5  5  5  5  5
CENTRE ASSIGNMENTS    5  5  5  5  5  5  5  5  5  5  5  5  5  5  5  5  5  5  5  5
CENTRE ASSIGNMENTS    5  5  5  5  5  5  5  5  5  5  5  5  5  5  5  5  5  5  5  5
CENTRE ASSIGNMENTS    5  5  5  5  5  5  5  5  5  5  5  5  5  5  5  5  5  5  5  5
CENTRE ASSIGNMENTS    5  5  5  5  5  5  5  5  5  5  5  5  5  5  5  5  5  5  5  5
CENTRE ASSIGNMENTS    5  5  5  5  5  5  5  5  5  5  5  5  5  5  5  5  5  5  5  5
CENTRE ASSIGNMENTS    5  5  5  5  5  5  5  6  6  6  6  6  6  6  6  6  6  6  6  6
CENTRE ASSIGNMENTS    6  6  6  6  6  6  6  6  6  6  6  6  6  6  6  6  6  6  6  6
CENTRE ASSIGNMENTS    6  6  6  6  6  6  6  6  6  6  6  6  6  6  6  6  6  6  6  6
CENTRE ASSIGNMENTS    6  6  6  6  6  6  6  6  6  6  6  6  6  6  6  6  6  6  6
TYPE ASSIGNMENTS      1  1  1  1  1  1  1  1  1  1  1  1  1  1  1  1  2  2  2  3
TYPE ASSIGNMENTS      3  3  4  4  4  2  3  4  2  3  4  2  3  4  5  6  7  8  9 10
TYPE ASSIGNMENTS      5  6  7  8  9 10  5  6  7  8  9 10 11 12 13 17 14 15 18 19
TYPE ASSIGNMENTS     16 20 11 12 13 17 14 15 18 19 16 20  1  1  1  1  1  1  2  3
TYPE ASSIGNMENTS      4  2  3  4  2  3  4  5  6  7  8  9 10  5  6  7  8  9 10  1
TYPE ASSIGNMENTS      1  1  1  1  1  2  3  4  2  3  4  2  3  4  5  6  7  8  9 10
TYPE ASSIGNMENTS      5  6  7  8  9 10  1  1  1  1  1  1  2  3  4  2  3  4  2  3
TYPE ASSIGNMENTS      4  5  6  7  8  9 10  5  6  7  8  9 10  1  1  1  1  1  1  1
TYPE ASSIGNMENTS      1  1  1  1  1  1  1  1  1  1  1  1  1  1  1  1  1  1  1  1
TYPE ASSIGNMENTS      1  1  1  1  2  2  2  2  2  2  3  3  3  3  3  3  4  4  4  4
TYPE ASSIGNMENTS      4  4  2  2  2  2  2  2  3  3  3  3  3  3  4  4  4  4  4  4
TYPE ASSIGNMENTS      2  3  4  2  3  4  2  3  4  5  6  7  8  9 10  5  6  7  8  9
TYPE ASSIGNMENTS     10  5  6  7  8  9 10 11 12 13 17 14 15 18 19 16 20 11 12 13
TYPE ASSIGNMENTS     17 14 15 18 19 16 20  1  1  1  1  1  1  1  1  1  1  1  1  1
TYPE ASSIGNMENTS      1  1  1  2  2  2  3  3  3  4  4  4  2  3  4  2  3  4  2  3
TYPE ASSIGNMENTS      4  5  6  7  8  9 10  5  6  7  8  9 10  5  6  7  8  9 10 11
TYPE ASSIGNMENTS     12 13 17 14 15 18 19 16 20 11 12 13 17 14 15 18 19 16 20
EXPONENTS  0.8236000D+04 0.1235000D+04 0.2808000D+03 0.7927000D+02 0.2559000D+02
EXPONENTS  0.8997000D+01 0.3319000D+01 0.2808000D+03 0.7927000D+02 0.2559000D+02
EXPONENTS  0.8997000D+01 0.3319000D+01 0.3643000D+00 0.9059000D+00 0.1285000D+00
EXPONENTS  0.4402000D-01 0.1871000D+02 0.4133000D+01 0.1200000D+01 0.1871000D+02
EXPONENTS  0.4133000D+01 0.1200000D+01 0.1871000D+02 0.4133000D+01 0.1200000D+01
EXPONENTS  0.3827000D+00 0.3827000D+00 0.3827000D+00 0.1209000D+00 0.1209000D+00
EXPONENTS  0.1209000D+00 0.3569000D-01 0.3569000D-01 0.3569000D-01 0.1097000D+01
EXPONENTS  0.1097000D+01 0.1097000D+01 0.1097000D+01 0.1097000D+01 0.1097000D+01
EXPONENTS  0.3180000D+00 0.3180000D+00 0.3180000D+00 0.3180000D+00 0.3180000D+00
EXPONENTS  0.3180000D+00 0.1000000D+00 0.1000000D+00 0.1000000D+00 0.1000000D+00
EXPONENTS  0.1000000D+00 0.1000000D+00 0.7610000D+00 0.7610000D+00 0.7610000D+00
EXPONENTS  0.7610000D+00 0.7610000D+00 0.7610000D+00 0.7610000D+00 0.7610000D+00
EXPONENTS  0.7610000D+00 0.7610000D+00 0.2680000D+00 0.2680000D+00 0.2680000D+00
EXPONENTS  0.2680000D+00 0.2680000D+00 0.2680000D+00 0.2680000D+00 0.2680000D+00
EXPONENTS  0.2680000D+00 0.2680000D+00 0.3387000D+02 0.5095000D+01 0.1159000D+01
EXPONENTS  0.3258000D+00 0.1027000D+00 0.2526000D-01 0.1407000D+01 0.1407000D+01
EXPONENTS  0.1407000D+01 0.3880000D+00 0.3880000D+00 0.3880000D+00 0.1020000D+00
EXPONENTS  0.1020000D+00 0.1020000D+00 0.1057000D+01 0.1057000D+01 0.1057000D+01
EXPONENTS  0.1057000D+01 0.1057000D+01 0.1057000D+01 0.2470000D+00 0.2470000D+00
EXPONENTS  0.2470000D+00 0.2470000D+00 0.2470000D+00 0.2470000D+00 0.3387000D+02
EXPONENTS  0.5095000D+01 0.1159000D+01 0.3258000D+00 0.1027000D+00 0.2526000D-01
EXPONENTS  0.1407000D+01 0.1407000D+01 0.1407000D+01 0.3880000D+00 0.3880000D+00
EXPONENTS  0.3880000D+00 0.1020000D+00 0.1020000D+00 0.1020000D+00 0.1057000D+01
EXPONENTS  0.1057000D+01 0.1057000D+01 0.1057000D+01 0.1057000D+01 0.1057000D+01
EXPONENTS  0.2470000D+00 0.2470000D+00 0.2470000D+00 0.2470000D+00 0.2470000D+00
EXPONENTS  0.2470000D+00 0.3387000D+02 0.5095000D+01 0.1159000D+01 0.3258000D+00
EXPONENTS  0.1027000D+00 0.2526000D-01 0.1407000D+01 0.1407000D+01 0.1407000D+01
EXPONENTS  0.3880000D+00 0.3880000D+00 0.3880000D+00 0.1020000D+00 0.1020000D+00
EXPONENTS  0.1020000D+00 0.1057000D+01 0.1057000D+01 0.1057000D+01 0.1057000D+01
EXPONENTS  0.1057000D+01 0.1057000D+01 0.2470000D+00 0.2470000D+00 0.2470000D+00
EXPONENTS  0.2470000D+00 0.2470000D+00 0.2470000D+00 0.4561000D+06 0.6833000D+05
EXPONENTS  0.1555000D+05 0.4405000D+04 0.1439000D+04 0.5204000D+03 0.2031000D+03
EXPONENTS  0.8396000D+02 0.3620000D+02 0.1583000D+02 0.6334000D+01 0.4405000D+04
EXPONENTS  0.1439000D+04 0.5204000D+03 0.2031000D+03 0.8396000D+02 0.3620000D+02
EXPONENTS  0.1583000D+02 0.6334000D+01 0.2694000D+01 0.1439000D+04 0.2031000D+03
EXPONENTS  0.8396000D+02 0.3620000D+02 0.1583000D+02 0.6334000D+01 0.2694000D+01
EXPONENTS  0.4313000D+00 0.9768000D+00 0.1625000D+00 0.5910000D-01 0.6633000D+03
EXPONENTS  0.1568000D+03 0.4998000D+02 0.1842000D+02 0.7240000D+01 0.2922000D+01
EXPONENTS  0.6633000D+03 0.1568000D+03 0.4998000D+02 0.1842000D+02 0.7240000D+01
EXPONENTS  0.2922000D+01 0.6633000D+03 0.1568000D+03 0.4998000D+02 0.1842000D+02
EXPONENTS  0.7240000D+01 0.2922000D+01 0.1568000D+03 0.4998000D+02 0.1842000D+02
EXPONENTS  0.7240000D+01 0.2922000D+01 0.3818000D+00 0.1568000D+03 0.4998000D+02
EXPONENTS  0.1842000D+02 0.7240000D+01 0.2922000D+01 0.3818000D+00 0.1568000D+03
EXPONENTS  0.4998000D+02 0.1842000D+02 0.7240000D+01 0.2922000D+01 0.3818000D+00
EXPONENTS  0.1022000D+01 0.1022000D+01 0.1022000D+01 0.1301000D+00 0.1301000D+00
EXPONENTS  0.1301000D+00 0.4190000D-01 0.4190000D-01 0.4190000D-01 0.1046000D+01
EXPONENTS  0.1046000D+01 0.1046000D+01 0.1046000D+01 0.1046000D+01 0.1046000D+01
EXPONENTS  0.3440000D+00 0.3440000D+00 0.3440000D+00 0.3440000D+00 0.3440000D+00
EXPONENTS  0.3440000D+00 0.1350000D+00 0.1350000D+00 0.1350000D+00 0.1350000D+00
EXPONENTS  0.1350000D+00 0.1350000D+00 0.7060000D+00 0.7060000D+00 0.7060000D+00
EXPONENTS  0.7060000D+00 0.7060000D+00 0.7060000D+00 0.7060000D+00 0.7060000D+00
EXPONENTS  0.7060000D+00 0.7060000D+00 0.3120000D+00 0.3120000D+00 0.3120000D+00
EXPONENTS  0.3120000D+00 0.3120000D+00 0.3120000D+00 0.3120000D+00 0.3120000D+00
EXPONENTS  0.3120000D+00 0.3120000D+00 0.1950000D+05 0.2923000D+04 0.6645000D+03
EXPONENTS  0.1875000D+03 0.6062000D+02 0.2142000D+02 0.7950000D+01 0.6645000D+03
EXPONENTS  0.1875000D+03 0.6062000D+02 0.2142000D+02 0.7950000D+01 0.8815000D+00
EXPONENTS  0.2257000D+01 0.3041000D+00 0.9158000D-01 0.4388000D+02 0.9926000D+01
EXPONENTS  0.2930000D+01 0.4388000D+02 0.9926000D+01 0.2930000D+01 0.4388000D+02
EXPONENTS  0.9926000D+01 0.2930000D+01 0.9132000D+00 0.9132000D+00 0.9132000D+00
EXPONENTS  0.2672000D+00 0.2672000D+00 0.2672000D+00 0.7361000D-01 0.7361000D-01
EXPONENTS  0.7361000D-01 0.3107000D+01 0.3107000D+01 0.3107000D+01 0.3107000D+01
EXPONENTS  0.3107000D+01 0.3107000D+01 0.8550000D+00 0.8550000D+00 0.8550000D+00
EXPONENTS  0.8550000D+00 0.8550000D+00 0.8550000D+00 0.2920000D+00 0.2920000D+00
EXPONENTS  0.2920000D+00 0.2920000D+00 0.2920000D+00 0.2920000D+00 0.1917000D+01
EXPONENTS  0.1917000D+01 0.1917000D+01 0.1917000D+01 0.1917000D+01 0.1917000D+01
EXPONENTS  0.1917000D+01 0.1917000D+01 0.1917000D+01 0.1917000D+01 0.7240000D+00
EXPONENTS  0.7240000D+00 0.7240000D+00 0.7240000D+00 0.7240000D+00 0.7240000D+00
EXPONENTS  0.7240000D+00 0.7240000D+00 0.7240000D+00 0.7240000D+00
MO    1     MO 0.0        OCC NO =    2.0000300  ORB. ENERGY =    0.000000
 -0.46678409D-05 -0.87017957D-05 -0.14707220D-04 -0.22107695D-04 -0.27155344D-04
 -0.22918152D-04 -0.86178237D-05  0.98910392D-08  0.73929390D-07  0.27629101D-06
  0.77080890D-06  0.10326714D-05 -0.12193924D-05 -0.24177283D-05  0.82015190D-05
  0.28695789D-06 -0.80546207D-04 -0.75517188D-04 -0.53772737D-04  0.76468689D-04
  0.71694256D-04  0.51050581D-04  0.23284938D-06  0.21831110D-06  0.15545051D-06
 -0.26324074D-03  0.24968135D-03 -0.12106903D-05 -0.33545790D-03  0.31986811D-03
 -0.29855760D-06 -0.68315399D-05  0.64288336D-05 -0.44427339D-08  0.44212394D-04
 -0.45235249D-04  0.10228551D-05 -0.93666897D-04  0.36771914D-03 -0.35177436D-03
  0.13656168D-03 -0.13477731D-03 -0.17843693D-05 -0.28117495D-03 -0.71517702D-04
  0.67043421D-04  0.28501834D-04 -0.29007284D-04  0.50545009D-06 -0.59224986D-04
  0.47813804D-04 -0.45812730D-04 -0.66273520D-04  0.64161490D-04  0.34175729D-06
 -0.69121131D-04  0.64069049D-04  0.15561554D-04  0.26794169D-03 -0.25655352D-03
 -0.16586826D-04 -0.37065502D-04  0.19663063D-04 -0.19324649D-04  0.54703305D-07
  0.18305271D-04 -0.16300081D-04  0.35400876D-04 -0.77294461D-04  0.74274029D-04
 -0.35564986D-04 -0.73711214D-04 -0.27783107D-04 -0.50107977D-04 -0.73884183D-04
  0.24962827D-03  0.77930394D-03 -0.84029187D-05 -0.36054307D-05  0.49562595D-04
  0.16017837D-04 -0.57981074D-04  0.19921307D-03  0.18779540D-03 -0.54093506D-04
  0.11893496D-03  0.15423195D-04 -0.76467141D-04  0.29703389D-04  0.46763752D-04
 -0.20099564D-04  0.34139095D-04  0.20546724D-03 -0.29710022D-04 -0.82329213D-05
  0.37942943D-04 -0.20760834D-04 -0.44289293D-04  0.21721227D-04  0.38859958D-04
  0.70085534D-04  0.10334108D-03 -0.36418007D-03 -0.10965325D-02  0.11654175D-04
 -0.60041770D-04  0.35826530D-04 -0.22928589D-04 -0.23456836D-03  0.15750855D-03
 -0.26536108D-03 -0.13665468D-03  0.10003621D-03 -0.21587417D-04 -0.12013366D-05
  0.67274872D-04 -0.66073535D-04  0.13240742D-03 -0.25648409D-03  0.13518085D-03
  0.22495387D-04  0.31970273D-04 -0.54465660D-04  0.30170742D-04 -0.18962189D-04
  0.28036656D-04 -0.11035612D-04 -0.19903180D-04 -0.29347227D-04  0.98954957D-04
  0.31747882D-03 -0.32808680D-05 -0.19117049D-04 -0.71283069D-05  0.70150047D-05
 -0.11106573D-03  0.32615663D-04  0.77647791D-04 -0.78346617D-04  0.39653114D-04
  0.65230646D-05  0.13510319D-04 -0.32981355D-04  0.19471036D-04  0.21122403D-04
 -0.49852531D-04 -0.81671316D-04  0.68718165D-05 -0.21849538D-04  0.14977721D-04
 -0.66774329D-05 -0.38005804D-04  0.47706978D-04 -0.10873886D-05 -0.20343881D-05
 -0.35149714D-05 -0.56981816D-05 -0.86532356D-05 -0.12027183D-04 -0.14299399D-04
 -0.12738402D-04 -0.63261597D-05 -0.10184582D-05 -0.10745336D-07 -0.57936637D-08
 -0.19326692D-06 -0.67349653D-06 -0.24253701D-05 -0.53464265D-05 -0.75260429D-05
  0.35901678D-06  0.98491342D-05  0.58237314D-05  0.11247609D-08  0.13623601D-07
  0.28410584D-07  0.81476607D-07  0.42309668D-08 -0.35136664D-06 -0.90786393D-06
  0.73968480D-06  0.18419792D-06 -0.24668231D-05 -0.45599190D-06 -0.83996213D+01
 -0.11064266D+02 -0.12205618D+02 -0.10137721D+02 -0.53834112D+01 -0.13889482D+01
  0.80159769D+01  0.10558917D+02  0.11648138D+02  0.96746907D+01  0.51375292D+01
  0.13255094D+01 -0.25465201D-02 -0.33543627D-02 -0.37003872D-02 -0.30734613D-02
 -0.16320932D-02 -0.42108858D-03  0.33244410D-03 -0.32138556D-02 -0.45318719D-02
 -0.64817757D-02  0.32822800D-04  0.59443996D-02 -0.31729184D-03  0.30673733D-02
  0.43253166D-02  0.61863469D-02 -0.31326790D-04 -0.56734636D-02  0.13435745D-06
 -0.12988814D-05 -0.18315584D-05 -0.26196130D-05  0.13265352D-07  0.24024322D-05
 -0.55451661D-01  0.52919761D-01 -0.17345483D-04  0.46585130D-03 -0.44426172D-03
  0.75399277D-06  0.41935577D-04 -0.39993552D-04  0.41228645D-07  0.85235679D-05
 -0.85596894D-05  0.36121503D-07 -0.17839189D-04  0.70995043D-03 -0.67811738D-03
 -0.30636372D-05  0.30949616D-05 -0.31324426D-07  0.62751035D-05 -0.25767880D-03
  0.24632335D-03  0.87681122D-06 -0.87807903D-06  0.12678081D-08 -0.18117913D-05
  0.44062323D-04 -0.42234203D-04 -0.16298362D-05  0.17361895D-05  0.35299942D-07
 -0.15792591D-05  0.12943317D-05  0.24198880D-04  0.64687678D-05 -0.65029002D-05
 -0.24304780D-04 -0.50374805D-04 -0.10649745D-04  0.10113149D-04 -0.61856861D-07
 -0.10659375D-04  0.10261604D-04 -0.47735896D-05  0.42608610D-04 -0.40601050D-04
  0.49591601D-05  0.10231060D-04  0.94939745D-06  0.17696785D-05  0.29999993D-05
  0.45424046D-05  0.56790063D-05  0.48849638D-05  0.18734887D-05 -0.29492096D-08
 -0.39042013D-07 -0.14180769D-06 -0.42066985D-06 -0.48473704D-06  0.58878533D-06
  0.23369734D-08 -0.14854128D-05 -0.85657634D-06  0.20956587D-03  0.20495084D-03
  0.13541969D-03 -0.20148816D-03 -0.19705102D-03 -0.13019994D-03 -0.15686796D-05
 -0.15341344D-05 -0.10136675D-05  0.60712357D-05 -0.61057425D-05 -0.73201294D-06
  0.48085133D-04 -0.46211775D-04 -0.36001962D-06  0.14181604D-04 -0.13520748D-04
 -0.85737518D-07  0.49048515D-04 -0.49402041D-04  0.35352613D-06 -0.10214173D-03
  0.96453332D-04 -0.90625070D-04 -0.24554134D-04  0.24840889D-04 -0.28675505D-06
  0.51246595D-04 -0.73909674D-04  0.69966096D-04  0.12379000D-04 -0.12619055D-04
  0.24005408D-06 -0.25992574D-04  0.53470392D-04 -0.51094740D-04  0.51517061D-04
 -0.49061636D-04 -0.93862144D-06  0.50965663D-04 -0.50184035D-04 -0.12911345D-03
 -0.20551685D-03  0.19736894D-03  0.13192932D-03  0.27236230D-03 -0.18281401D-04
  0.17449777D-04  0.33780728D-06 -0.18112656D-04  0.17779170D-04  0.40936949D-04
  0.72956859D-04 -0.70128502D-04 -0.41950371D-04 -0.86502157D-04
MO    2     MO 0.0        OCC NO =    2.0000300  ORB. ENERGY =    0.000000
 -0.14316350D-04 -0.26688561D-04 -0.45107305D-04 -0.67804692D-04 -0.83285920D-04
 -0.70290378D-04 -0.26431018D-04 -0.14379944D-07 -0.10748117D-06 -0.40168169D-06
 -0.11206294D-05 -0.15013344D-05  0.17727960D-05  0.49641977D-07  0.23830231D-04
  0.55182943D-06  0.78329101D-04  0.73438512D-04  0.52292595D-04  0.81703361D-04
  0.76602094D-04  0.54545254D-04  0.90253752D-07  0.84618629D-07  0.60253505D-07
  0.25962832D-03  0.27032952D-03  0.34816901D-05  0.32411026D-03  0.33932424D-03
 -0.18626209D-05  0.64417789D-05  0.66550620D-05 -0.20790893D-07  0.47256518D-04
 -0.47391469D-04  0.13495119D-06  0.91913049D-04 -0.34989654D-03 -0.36749283D-03
  0.14227147D-03 -0.14108170D-03 -0.11897648D-05  0.27228872D-03  0.69806564D-04
  0.71890041D-04  0.29784557D-04 -0.29918031D-04  0.13347453D-06  0.56975559D-04
 -0.45793037D-04 -0.48171250D-04  0.63605270D-04  0.67524081D-04 -0.58835972D-06
  0.66035362D-04  0.67454002D-04  0.18889224D-04 -0.25685117D-03 -0.27002624D-03
 -0.17124145D-04  0.38228314D-04 -0.18871012D-04 -0.20061362D-04 -0.26028539D-06
 -0.17457207D-04 -0.17952840D-04  0.36998415D-04  0.74070241D-04  0.78136925D-04
 -0.36217559D-04  0.70499413D-04 -0.29049231D-04 -0.52391485D-04 -0.77251214D-04
  0.26518329D-03  0.82016377D-03 -0.89383808D-05  0.30851524D-05  0.52258435D-04
  0.17181488D-04  0.56412610D-04  0.21164124D-03  0.19614107D-03  0.52324223D-04
  0.12601037D-03  0.16075529D-04 -0.80386065D-04  0.32203482D-04  0.48182583D-04
  0.19719080D-04 -0.32177550D-04  0.21542929D-03 -0.31589963D-04 -0.83100507D-05
  0.39900014D-04  0.20156198D-04  0.42456826D-04  0.22769301D-04 -0.95262033D-05
 -0.17180900D-04 -0.25333227D-04  0.82961008D-04  0.26824305D-03 -0.28431404D-05
  0.16313718D-04 -0.47120140D-05  0.55266805D-05  0.10158348D-03  0.37852549D-04
  0.64758681D-04  0.72710488D-04  0.43535491D-04  0.54856093D-05  0.14843313D-04
 -0.30427552D-04  0.15584239D-04 -0.16234527D-04  0.39009618D-04 -0.74881759D-04
  0.79617134D-05 -0.20634041D-04  0.12672328D-04  0.77023309D-05  0.36495606D-04
  0.48237440D-04  0.37811050D-04  0.68193787D-04  0.10055170D-03 -0.37187951D-03
 -0.11039046D-02  0.11672023D-04  0.62098289D-04  0.37071903D-04 -0.25468007D-04
  0.23079613D-03  0.16224698D-03 -0.26673669D-03  0.13395400D-03  0.10373990D-03
 -0.21533805D-04  0.16044309D-05  0.65523772D-04 -0.67128203D-04 -0.13010465D-03
  0.25661437D-03  0.13466769D-03  0.23285955D-04  0.31006816D-04 -0.54292771D-04
 -0.30583466D-04  0.17154367D-04  0.30570302D-04  0.52363842D-04  0.97967161D-04
  0.16926553D-03  0.27439930D-03  0.41670167D-03  0.57917612D-03  0.68859603D-03
  0.61342527D-03  0.30463996D-03  0.49044456D-04  0.51744798D-06  0.24579803D-06
  0.81994109D-05  0.28573305D-04  0.10289710D-03  0.22682385D-03  0.31929477D-03
 -0.15231401D-04 -0.41785266D-03 -0.24707366D-03  0.49959769D-08  0.60513481D-07
  0.12619449D-06  0.36190381D-06  0.18793161D-07 -0.15607048D-05 -0.40325614D-05
  0.32855412D-05 -0.15367637D-04  0.13972930D-05 -0.16065371D-06  0.80159700D+01
  0.10558908D+02  0.11648128D+02  0.96746823D+01  0.51375248D+01  0.13255082D+01
  0.83996099D+01  0.11064251D+02  0.12205601D+02  0.10137707D+02  0.53834039D+01
  0.13889463D+01 -0.10154127D-02 -0.13375361D-02 -0.14755116D-02 -0.12255279D-02
 -0.65078934D-03 -0.16790705D-03 -0.31725523D-03  0.30670194D-02  0.43248176D-02
  0.61856332D-02 -0.31323176D-04 -0.56728090D-02 -0.33247206D-03  0.32141259D-02
  0.45322531D-02  0.64823208D-02 -0.32825560D-04 -0.59448996D-02  0.19162270D-07
 -0.18524849D-06 -0.26121972D-06 -0.37361329D-06  0.18919251D-08  0.34263863D-06
  0.52920787D-01  0.55454384D-01 -0.60288606D-05 -0.44425535D-03 -0.46519533D-03
 -0.71750337D-07 -0.39994566D-04 -0.41880845D-04  0.19606275D-07  0.90596453D-05
 -0.87809016D-05 -0.27874367D-06  0.17262767D-04 -0.67743837D-03 -0.71048488D-03
 -0.32292241D-05  0.30567149D-05  0.17250918D-06 -0.59320860D-05  0.24626097D-03
  0.25847996D-03  0.87470947D-06 -0.88862583D-06  0.13916366D-07  0.16877939D-05
 -0.42120657D-04 -0.44327808D-04  0.16304679D-05  0.17332852D-05 -0.35839541D-07
  0.15876209D-05  0.19296421D-05  0.25087386D-04 -0.64790245D-05 -0.71294979D-05
 -0.24979868D-04  0.48206849D-04  0.10174226D-04  0.10657274D-04 -0.20314803D-07
  0.10166022D-04  0.10600695D-04 -0.50098148D-05 -0.40688700D-04 -0.42572517D-04
  0.50707592D-05 -0.98271070D-05 -0.18610137D-05 -0.34689328D-05 -0.58806140D-05
 -0.89040448D-05 -0.11132017D-04 -0.95755310D-05 -0.36724222D-05 -0.22930035D-08
 -0.30355072D-07 -0.11025515D-06 -0.32706981D-06 -0.37688190D-06  0.45777920D-06
 -0.25975359D-06 -0.83922105D-06 -0.85541069D-07 -0.19798122D-03 -0.19362131D-03
 -0.12793379D-03 -0.20901798D-03 -0.20441502D-03 -0.13506565D-03  0.35943857D-05
  0.35152307D-05  0.23226616D-05 -0.57521515D-05 -0.63462006D-05  0.10044021D-05
 -0.45543461D-04 -0.48065903D-04 -0.54321735D-06 -0.13465969D-04 -0.14097305D-04
  0.50064127D-07  0.51026966D-04 -0.51092728D-04  0.65761936D-07  0.98212883D-04
 -0.91710110D-04 -0.94613337D-04 -0.25629839D-04  0.25644967D-04 -0.15128165D-07
 -0.49314671D-04  0.70293122D-04  0.73066710D-04  0.13078597D-04 -0.12911317D-04
 -0.16728000D-06  0.25054544D-04 -0.50853179D-04 -0.53360466D-04 -0.48728472D-04
 -0.51562681D-04  0.10758343D-06 -0.49647982D-04 -0.51831587D-04 -0.13598265D-03
  0.19583340D-03  0.20651963D-03  0.13565990D-03 -0.26277395D-03  0.17310420D-04
  0.18319893D-04 -0.48479354D-07  0.17590560D-04  0.18421976D-04  0.43209089D-04
 -0.69521821D-04 -0.73381656D-04 -0.43063651D-04  0.83477248D-04
MO    3     MO 0.0        OCC NO =    2.0000210  ORB. ENERGY =    0.000000
 -0.14441948D-01 -0.26922701D-01 -0.45503032D-01 -0.68399544D-01 -0.84016589D-01
 -0.70907037D-01 -0.26662898D-01 -0.38066237D-05 -0.28452154D-04 -0.10633219D-03
 -0.29665027D-03 -0.39742957D-03  0.46929022D-03 -0.87298997D-03 -0.19419364D-02
 -0.82689325D-04  0.36821115D-05  0.34522136D-05  0.24581817D-05  0.23315571D-05
  0.21859830D-05  0.15565501D-05  0.11687895D-02  0.10958144D-02  0.78028514D-03
 -0.10022885D-04 -0.65985650D-05  0.60983766D-03 -0.27047068D-05 -0.40337092D-05
 -0.38024623D-03 -0.31117368D-07  0.26330814D-07  0.46604597D-05 -0.10725142D-03
 -0.10537197D-03  0.21262339D-03 -0.37563216D-05  0.68974357D-06  0.28275360D-06
 -0.24686144D-04 -0.22266043D-04  0.46952188D-04 -0.47514765D-05  0.20322502D-05
  0.19196012D-05  0.11130038D-04  0.11611706D-04 -0.22741745D-04 -0.13498838D-06
 -0.11026166D-06 -0.40393151D-06  0.30339940D-07  0.36118643D-04  0.79135380D-05
 -0.61422900D-06 -0.10895441D-03 -0.11692168D-04  0.52320918D-06  0.59847699D-06
 -0.12048446D-04  0.11267555D-05  0.30236848D-06  0.51747047D-04 -0.85857930D-04
 -0.59732330D-06 -0.15473264D-03  0.12908540D-03 -0.30978214D-06 -0.50849934D-06
  0.12848839D-03  0.82836357D-06 -0.48861760D-05 -0.88124196D-05 -0.12993908D-04
  0.74600882D-03  0.22865517D-03  0.50688607D-05  0.33428308D-06  0.95302183D-04
  0.28111327D-04  0.21001807D-08  0.19543481D-03 -0.40639277D-05 -0.15135358D-06
  0.42709981D-04  0.38287148D-04 -0.73444119D-04  0.53172977D-04  0.20271142D-04
  0.43406989D-06  0.13456494D-06  0.75983642D-04 -0.93257053D-05 -0.12314737D-04
  0.21640442D-04 -0.33842134D-06  0.22386455D-06 -0.34429156D-04 -0.49923294D-05
 -0.90038716D-05 -0.13276203D-04  0.74803247D-03  0.23573820D-03  0.49669584D-05
  0.83271724D-04 -0.46983091D-04  0.28024751D-04  0.16854588D-03 -0.10005231D-03
 -0.41416701D-05  0.37484644D-04 -0.22473027D-04  0.38995704D-04  0.21380883D-04
 -0.41635213D-04  0.20254330D-04 -0.11000242D-03  0.65362708D-04 -0.38512352D-04
 -0.11886730D-04 -0.98453893D-05  0.21732119D-04  0.22090390D-05 -0.29852241D-04
  0.17542180D-04 -0.39063871D-05 -0.70453300D-05 -0.10388335D-04  0.76646003D-03
  0.25011885D-03  0.52933280D-05 -0.85864408D-04 -0.49367767D-04  0.31181141D-04
 -0.17212852D-03 -0.10322383D-03 -0.64589333D-05 -0.39526576D-04 -0.23716663D-04
  0.39716257D-04  0.20615539D-04 -0.41553180D-04  0.20937641D-04  0.11168983D-03
 -0.66019300D-04 -0.39448021D-04 -0.11305912D-04 -0.10174464D-04  0.21480376D-04
 -0.13559465D-05  0.30424557D-04  0.17792053D-04 -0.15455614D+00 -0.28915805D+00
 -0.49960097D+00 -0.80991187D+00 -0.12299289D+01 -0.17094854D+01 -0.20324472D+01
 -0.18105746D+01 -0.89916963D+00 -0.14475870D+00 -0.15272898D-02 -0.72262533D-03
 -0.24105571D-01 -0.84003090D-01 -0.30250873D+00 -0.66684284D+00 -0.93869950D+00
  0.44779026D-01  0.12284513D+01  0.72637557D+00 -0.15529137D-04 -0.18809577D-03
 -0.39225389D-03 -0.11249159D-02 -0.58415315D-04  0.48511828D-02  0.12534525D-01
 -0.10212541D-01  0.46584935D-01 -0.38355289D-03 -0.13182792D-03  0.14414131D-02
  0.18986782D-02  0.20945393D-02  0.17396789D-02  0.92381776D-03  0.23834981D-03
  0.33001939D-02  0.43471274D-02  0.47955620D-02  0.39830897D-02  0.21151312D-02
  0.54571489D-03  0.59464342D+01  0.78328449D+01  0.86408541D+01  0.71769059D+01
  0.38111362D+01  0.98329305D+00 -0.64648786D-07  0.62498287D-06  0.88129108D-06
  0.12604794D-05 -0.63828901D-08 -0.11559785D-05 -0.11760256D-06  0.11369058D-05
  0.16031559D-05  0.22929370D-05 -0.11611110D-07 -0.21028395D-05 -0.21103680D-03
  0.20401679D-02  0.28768498D-02  0.41146562D-02 -0.20836040D-04 -0.37735278D-02
  0.10002285D-04  0.22678841D-04  0.41689743D-01 -0.83675223D-07 -0.77282014D-07
 -0.48455782D-03  0.62363390D-09 -0.28598904D-07 -0.98526732D-05 -0.65883101D-05
 -0.67286236D-05  0.13316934D-04  0.40830107D-06 -0.62345265D-06  0.63140586D-07
 -0.11180059D-03 -0.11177314D-03  0.22357372D-03 -0.10758465D-06  0.29363148D-06
  0.97478397D-07 -0.14356882D-04 -0.14363369D-04  0.28720252D-04 -0.44414169D-07
 -0.55542983D-07 -0.35522577D-07 -0.45763568D-08 -0.71598110D-05  0.54204071D-05
  0.12304239D-06  0.21564236D-04 -0.80916639D-05 -0.10931332D-06 -0.84803597D-07
 -0.81695574D-05 -0.52140878D-06  0.13879836D-07  0.20461387D-05 -0.33879086D-04
 -0.22737677D-07 -0.61346872D-05  0.50822473D-04 -0.18901832D-07 -0.37287623D-08
  0.50814786D-04  0.27456458D-06 -0.88004892D-03 -0.16404127D-02 -0.27808650D-02
 -0.42106057D-02 -0.52641845D-02 -0.45281427D-02 -0.17366402D-02 -0.68713356D-06
 -0.90963617D-05 -0.33039641D-04 -0.98011472D-04 -0.11293842D-03  0.13718054D-03
 -0.96094045D-04 -0.16038762D-03  0.12216346D-04 -0.36044905D-06 -0.35251130D-06
 -0.23291912D-06  0.13992158D-05  0.13684025D-05  0.90416140D-06  0.39043063D-02
  0.38183263D-02  0.25229296D-02 -0.26648221D-06  0.54398016D-06  0.87971664D-03
  0.42771728D-08 -0.10166896D-06  0.21040284D-04 -0.32884788D-07 -0.41907202D-07
  0.93320435D-05 -0.35422206D-04 -0.35869716D-04  0.71291922D-04  0.40838521D-06
  0.46613703D-06 -0.28895009D-06  0.21040610D-04  0.21247299D-04 -0.42287909D-04
 -0.17945101D-06 -0.19195339D-06  0.13381618D-06  0.18163424D-04  0.18070878D-04
 -0.36234302D-04  0.60148658D-07  0.11461054D-06 -0.20507228D-07  0.18702240D-07
 -0.26185153D-05  0.46033503D-04  0.70234389D-07  0.84743908D-05 -0.69401110D-04
 -0.12634111D-06 -0.61884483D-06 -0.68699398D-04  0.49361448D-06 -0.17224078D-07
  0.82204942D-06 -0.25268897D-04 -0.33600740D-07 -0.26983702D-05  0.38014758D-04
  0.85272975D-07  0.23222194D-06  0.37791935D-04 -0.12004184D-06
MO    4     MO 0.0        OCC NO =    2.0000123  ORB. ENERGY =    0.000000
  0.27155624D-01  0.50623554D-01  0.85560704D-01  0.12861370D+00  0.15797889D+00
  0.13332861D+00  0.50135039D-01 -0.13962484D-05 -0.10436092D-04 -0.39002057D-04
 -0.10880967D-03 -0.14577495D-03  0.17213304D-03  0.26722055D-02 -0.36291942D-02
 -0.43788580D-04 -0.44213558D-05 -0.41453021D-05 -0.29517020D-05 -0.16295163D-05
 -0.15277751D-05 -0.10878669D-05  0.36707341D-02  0.34415465D-02  0.24505861D-02
 -0.16890782D-04 -0.93829691D-05  0.13088315D-02 -0.71428202D-05 -0.69764518D-05
 -0.41893582D-03 -0.55081954D-07  0.10286484D-07  0.36579057D-05 -0.31984918D-03
 -0.31798226D-03  0.63783144D-03 -0.29281509D-05  0.52112187D-06  0.31424845D-06
  0.88126544D-05  0.11389022D-04 -0.20201676D-04 -0.95020290D-05  0.42521562D-05
  0.33575815D-05 -0.18024160D-04 -0.17704507D-04  0.35728667D-04 -0.98505867D-06
 -0.25660797D-06 -0.47127937D-06 -0.19030364D-06 -0.42927130D-04  0.23030076D-04
  0.53073782D-06  0.12860317D-03 -0.34264182D-04  0.40173096D-07  0.17822024D-06
 -0.34826047D-04  0.16045226D-05  0.51027214D-06  0.82227710D-04 -0.16399032D-03
 -0.92047302D-06 -0.24563563D-03  0.24621890D-03 -0.61034338D-06 -0.10475000D-05
  0.24575205D-03  0.19583326D-05 -0.90573604D-04 -0.16335322D-03 -0.24086423D-03
  0.10169872D-02  0.67344731D-03  0.42565037D-05  0.17968582D-06 -0.59243387D-04
  0.32737465D-04 -0.86783632D-06  0.29983088D-03 -0.42405264D-04 -0.10159979D-05
  0.10892762D-03  0.75122770D-04 -0.14111430D-03  0.22078764D-04  0.11903554D-03
 -0.40951488D-06 -0.96097776D-07  0.14258945D-03 -0.14428734D-04 -0.21451394D-04
  0.35880128D-04 -0.87142642D-06  0.54253000D-06 -0.62450731D-04 -0.90543743D-04
 -0.16329937D-03 -0.24078482D-03  0.10164554D-02  0.67720016D-03  0.41784166D-05
 -0.50452441D-04  0.30609546D-04  0.32310685D-04  0.25735043D-03 -0.15252101D-03
 -0.41966319D-04  0.94460925D-04 -0.55818996D-04  0.75860203D-04 -0.18674762D-04
 -0.10045231D-03  0.11912708D-03 -0.14152519D-03  0.12255323D-03 -0.72220583D-04
 -0.20246316D-04 -0.15775106D-04  0.36021422D-04  0.56298852D-05 -0.54120248D-04
  0.31689484D-04 -0.91161514D-04 -0.16441355D-03 -0.24242768D-03  0.10485424D-02
  0.71472821D-03  0.45945844D-05  0.44379736D-04  0.27190088D-04  0.38475157D-04
 -0.26458946D-03 -0.15735716D-03 -0.47750940D-04 -0.99039751D-04 -0.57866974D-04
  0.77628496D-04 -0.16153827D-04 -0.10188078D-03  0.11803461D-03  0.15060204D-03
 -0.12520948D-03 -0.74376098D-04 -0.19435936D-04 -0.16516886D-04  0.35952821D-04
 -0.48198283D-05  0.55614030D-04  0.32247140D-04  0.91377782D-01  0.17095808D+00
  0.29537764D+00  0.47884186D+00  0.72716732D+00  0.10106942D+01  0.12016379D+01
  0.10704608D+01  0.53161347D+00  0.85585271D-01  0.90297516D-03  0.42782936D-03
  0.14271671D-01  0.49733917D-01  0.17909989D+00  0.39480341D+00  0.55575579D+00
 -0.26511362D-01 -0.72730296D+00 -0.43004969D+00  0.62822030D-05  0.76092820D-04
  0.15868355D-03  0.45507681D-03  0.23631505D-04 -0.19625119D-02 -0.50707538D-02
  0.41314115D-02 -0.28565053D-01  0.14204853D-02 -0.18063204D-03 -0.21668689D-02
 -0.28542733D-02 -0.31487102D-02 -0.26152504D-02 -0.13887705D-02 -0.35831005D-03
  0.95510376D-03  0.12580951D-02  0.13878758D-02  0.11527395D-02  0.61213667D-03
  0.15793446D-03  0.99110901D+01  0.13055224D+02  0.14401956D+02  0.11961952D+02
  0.63521284D+01  0.16388823D+01  0.51996319D-07 -0.50266695D-06 -0.70881288D-06
 -0.10137899D-05  0.51336895D-08  0.92974097D-06 -0.33240976D-07  0.32135237D-06
  0.45314038D-06  0.64811061D-06 -0.32819409D-08 -0.59437856D-06 -0.33688729D-03
  0.32568096D-02  0.45924414D-02  0.65684061D-02 -0.33261484D-04 -0.60238479D-02
 -0.15111251D-04  0.71082616D-05  0.72532675D-01  0.15853381D-06  0.16766061D-06
 -0.30788198D-03  0.21358772D-07 -0.16307758D-07 -0.39984135D-05  0.45520658D-03
  0.45498498D-03 -0.91019156D-03  0.31865241D-06 -0.14867644D-06 -0.56360814D-07
 -0.31014788D-03 -0.31010629D-03  0.62025417D-03 -0.12636781D-06  0.17965863D-06
  0.14055317D-06  0.42021194D-05  0.42280501D-05 -0.84301695D-05 -0.77930970D-07
 -0.11383797D-06 -0.83907356D-07  0.13370262D-07 -0.14416267D-04 -0.46913962D-04
  0.27186769D-06  0.43521986D-04  0.70285584D-04 -0.31197848D-06 -0.27318543D-06
  0.70456301D-04 -0.11675129D-05  0.14051498D-07  0.41615776D-05 -0.62813623D-04
 -0.60787709D-07 -0.12494944D-04  0.94275608D-04  0.18633215D-07  0.10211332D-07
  0.94165263D-04  0.59281238D-06 -0.63687727D-02 -0.11871403D-01 -0.20124673D-01