 clch3f_ts-wavefunction
GAUSSIAN            211 MOL ORBITALS    339 PRIMITIVES        6 NUCLEI
  C    1    (CENTRE  1)   0.00033070 -0.01884246 -0.94053370  CHARGE =  6.0
  H    2    (CENTRE  2)   0.00003590 -1.98906904 -1.17300214  CHARGE =  1.0
  H    3    (CENTRE  3)  -1.72213010  0.99468570 -1.17398291  CHARGE =  1.0
  H    4    (CENTRE  4)   1.72295780  0.99424539 -1.17459707  CHARGE =  1.0
  Cl   5    (CENTRE  5)   0.00104880  0.00181792  3.10806659  CHARGE = 17.0
  F    6    (CENTRE  6)  -0.00035149 -0.00174044 -4.90094425  CHARGE =  9.0
CENTRE ASSIGNMENTS    1  1  1  1  1  1  1  1  1  1  1  1  1  1  1  1  1  1  1  1
CENTRE ASSIGNMENTS    1  1  1  1  1  1  1  1  1  1  1  1  1  1  1  1  1  1  1  1
CENTRE ASSIGNMENTS    1  1  1  1  1  1  1  1  1  1  1  1  1  1  1  1  1  1  1  1
CENTRE ASSIGNMENTS    1  1  1  1  1  1  1  1  1  1  1  1  2  2  2  2  2  2  2  2
CENTRE ASSIGNMENTS    2  2  2  2  2  2  2  2  2  2  2  2  2  2  2  2  2  2  2  3
CENTRE ASSIGNMENTS    3  3  3  3  3  3  3  3  3  3  3  3  3  3  3  3  3  3  3  3
CENTRE ASSIGNMENTS    3  3  3  3  3  3  4  4  4  4  4  4  4  4  4  4  4  4  4  4
CENTRE ASSIGNMENTS    4  4  4  4  4  4  4  4  4  4  4  4  4  5  5  5  5  5  5  5
CENTRE ASSIGNMENTS    5  5  5  5  5  5  5  5  5  5  5  5  5  5  5  5  5  5  5  5
CENTRE ASSIGNMENTS    5  5  5  5  5  5  5  5  5  5  5  5  5  5  5  5  5  5  5  5
CENTRE ASSIGNMENTS    5  5  5  5  5  5  5  5  5  5  5  5  5  5  5  5  5  5  5  5
CENTRE ASSIGNMENTS    5  5  5  5  5  5  5  5  5  5  5  5  5  5  5  5  5  5  5  5
CENTRE ASSIGNMENTS    5  5  5  5  5  5  5  5  5  5  5  5  5  5  5  5  5  5  5  5
CENTRE ASSIGNMENTS    5  5  5  5  5  5  5  6  6  6  6  6  6  6  6  6  6  6  6  6
CENTRE ASSIGNMENTS    6  6  6  6  6  6  6  6  6  6  6  6  6  6  6  6  6  6  6  6
CENTRE ASSIGNMENTS    6  6  6  6  6  6  6  6  6  6  6  6  6  6  6  6  6  6  6  6
CENTRE ASSIGNMENTS    6  6  6  6  6  6  6  6  6  6  6  6  6  6  6  6  6  6  6
TYPE ASSIGNMENTS      1  1  1  1  1  1  1  1  1  1  1  1  1  1  1  1  2  2  2  3
TYPE ASSIGNMENTS      3  3  4  4  4  2  3  4  2  3  4  2  3  4  5  6  7  8  9 10
TYPE ASSIGNMENTS      5  6  7  8  9 10  5  6  7  8  9 10 11 12 13 17 14 15 18 19
TYPE ASSIGNMENTS     16 20 11 12 13 17 14 15 18 19 16 20  1  1  1  1  1  1  2  3
TYPE ASSIGNMENTS      4  2  3  4  2  3  4  5  6  7  8  9 10  5  6  7  8  9 10  1
TYPE ASSIGNMENTS      1  1  1  1  1  2  3  4  2  3  4  2  3  4  5  6  7  8  9 10
TYPE ASSIGNMENTS      5  6  7  8  9 10  1  1  1  1  1  1  2  3  4  2  3  4  2  3
TYPE ASSIGNMENTS      4  5  6  7  8  9 10  5  6  7  8  9 10  1  1  1  1  1  1  1
TYPE ASSIGNMENTS      1  1  1  1  1  1  1  1  1  1  1  1  1  1  1  1  1  1  1  1
TYPE ASSIGNMENTS      1  1  1  1  2  2  2  2  2  2  3  3  3  3  3  3  4  4  4  4
TYPE ASSIGNMENTS      4  4  2  2  2  2  2  2  3  3  3  3  3  3  4  4  4  4  4  4
TYPE ASSIGNMENTS      2  3  4  2  3  4  2  3  4  5  6  7  8  9 10  5  6  7  8  9
TYPE ASSIGNMENTS     10  5  6  7  8  9 10 11 12 13 17 14 15 18 19 16 20 11 12 13
TYPE ASSIGNMENTS     17 14 15 18 19 16 20  1  1  1  1  1  1  1  1  1  1  1  1  1
TYPE ASSIGNMENTS      1  1  1  2  2  2  3  3  3  4  4  4  2  3  4  2  3  4  2  3
TYPE ASSIGNMENTS      4  5  6  7  8  9 10  5  6  7  8  9 10  5  6  7  8  9 10 11
TYPE ASSIGNMENTS     12 13 17 14 15 18 19 16 20 11 12 13 17 14 15 18 19 16 20
EXPONENTS  0.8236000D+04 0.1235000D+04 0.2808000D+03 0.7927000D+02 0.2559000D+02
EXPONENTS  0.8997000D+01 0.3319000D+01 0.2808000D+03 0.7927000D+02 0.2559000D+02
EXPONENTS  0.8997000D+01 0.3319000D+01 0.3643000D+00 0.9059000D+00 0.1285000D+00
EXPONENTS  0.4402000D-01 0.1871000D+02 0.4133000D+01 0.1200000D+01 0.1871000D+02
EXPONENTS  0.4133000D+01 0.1200000D+01 0.1871000D+02 0.4133000D+01 0.1200000D+01
EXPONENTS  0.3827000D+00 0.3827000D+00 0.3827000D+00 0.1209000D+00 0.1209000D+00
EXPONENTS  0.1209000D+00 0.3569000D-01 0.3569000D-01 0.3569000D-01 0.1097000D+01
EXPONENTS  0.1097000D+01 0.1097000D+01 0.1097000D+01 0.1097000D+01 0.1097000D+01
EXPONENTS  0.3180000D+00 0.3180000D+00 0.3180000D+00 0.3180000D+00 0.3180000D+00
EXPONENTS  0.3180000D+00 0.1000000D+00 0.1000000D+00 0.1000000D+00 0.1000000D+00
EXPONENTS  0.1000000D+00 0.1000000D+00 0.7610000D+00 0.7610000D+00 0.7610000D+00
EXPONENTS  0.7610000D+00 0.7610000D+00 0.7610000D+00 0.7610000D+00 0.7610000D+00
EXPONENTS  0.7610000D+00 0.7610000D+00 0.2680000D+00 0.2680000D+00 0.2680000D+00
EXPONENTS  0.2680000D+00 0.2680000D+00 0.2680000D+00 0.2680000D+00 0.2680000D+00
EXPONENTS  0.2680000D+00 0.2680000D+00 0.3387000D+02 0.5095000D+01 0.1159000D+01
EXPONENTS  0.3258000D+00 0.1027000D+00 0.2526000D-01 0.1407000D+01 0.1407000D+01
EXPONENTS  0.1407000D+01 0.3880000D+00 0.3880000D+00 0.3880000D+00 0.1020000D+00
EXPONENTS  0.1020000D+00 0.1020000D+00 0.1057000D+01 0.1057000D+01 0.1057000D+01
EXPONENTS  0.1057000D+01 0.1057000D+01 0.1057000D+01 0.2470000D+00 0.2470000D+00
EXPONENTS  0.2470000D+00 0.2470000D+00 0.2470000D+00 0.2470000D+00 0.3387000D+02
EXPONENTS  0.5095000D+01 0.1159000D+01 0.3258000D+00 0.1027000D+00 0.2526000D-01
EXPONENTS  0.1407000D+01 0.1407000D+01 0.1407000D+01 0.3880000D+00 0.3880000D+00
EXPONENTS  0.3880000D+00 0.1020000D+00 0.1020000D+00 0.1020000D+00 0.1057000D+01
EXPONENTS  0.1057000D+01 0.1057000D+01 0.1057000D+01 0.1057000D+01 0.1057000D+01
EXPONENTS  0.2470000D+00 0.2470000D+00 0.2470000D+00 0.2470000D+00 0.2470000D+00
EXPONENTS  0.2470000D+00 0.3387000D+02 0.5095000D+01 0.1159000D+01 0.3258000D+00
EXPONENTS  0.1027000D+00 0.2526000D-01 0.1407000D+01 0.1407000D+01 0.1407000D+01
EXPONENTS  0.3880000D+00 0.3880000D+00 0.3880000D+00 0.1020000D+00 0.1020000D+00
EXPONENTS  0.1020000D+00 0.1057000D+01 0.1057000D+01 0.1057000D+01 0.1057000D+01
EXPONENTS  0.1057000D+01 0.1057000D+01 0.2470000D+00 0.2470000D+00 0.2470000D+00
EXPONENTS  0.2470000D+00 0.2470000D+00 0.2470000D+00 0.4561000D+06 0.6833000D+05
EXPONENTS  0.1555000D+05 0.4405000D+04 0.1439000D+04 0.5204000D+03 0.2031000D+03
EXPONENTS  0.8396000D+02 0.3620000D+02 0.1583000D+02 0.6334000D+01 0.4405000D+04
EXPONENTS  0.1439000D+04 0.5204000D+03 0.2031000D+03 0.8396000D+02 0.3620000D+02
EXPONENTS  0.1583000D+02 0.6334000D+01 0.2694000D+01 0.1439000D+04 0.2031000D+03
EXPONENTS  0.8396000D+02 0.3620000D+02 0.1583000D+02 0.6334000D+01 0.2694000D+01
EXPONENTS  0.4313000D+00 0.9768000D+00 0.1625000D+00 0.5910000D-01 0.6633000D+03
EXPONENTS  0.1568000D+03 0.4998000D+02 0.1842000D+02 0.7240000D+01 0.2922000D+01
EXPONENTS  0.6633000D+03 0.1568000D+03 0.4998000D+02 0.1842000D+02 0.7240000D+01
EXPONENTS  0.2922000D+01 0.6633000D+03 0.1568000D+03 0.4998000D+02 0.1842000D+02
EXPONENTS  0.7240000D+01 0.2922000D+01 0.1568000D+03 0.4998000D+02 0.1842000D+02
EXPONENTS  0.7240000D+01 0.2922000D+01 0.3818000D+00 0.1568000D+03 0.4998000D+02
EXPONENTS  0.1842000D+02 0.7240000D+01 0.2922000D+01 0.3818000D+00 0.1568000D+03
EXPONENTS  0.4998000D+02 0.1842000D+02 0.7240000D+01 0.2922000D+01 0.3818000D+00
EXPONENTS  0.1022000D+01 0.1022000D+01 0.1022000D+01 0.1301000D+00 0.1301000D+00
EXPONENTS  0.1301000D+00 0.4190000D-01 0.4190000D-01 0.4190000D-01 0.1046000D+01
EXPONENTS  0.1046000D+01 0.1046000D+01 0.1046000D+01 0.1046000D+01 0.1046000D+01
EXPONENTS  0.3440000D+00 0.3440000D+00 0.3440000D+00 0.3440000D+00 0.3440000D+00
EXPONENTS  0.3440000D+00 0.1350000D+00 0.1350000D+00 0.1350000D+00 0.1350000D+00
EXPONENTS  0.1350000D+00 0.1350000D+00 0.7060000D+00 0.7060000D+00 0.7060000D+00
EXPONENTS  0.7060000D+00 0.7060000D+00 0.7060000D+00 0.7060000D+00 0.7060000D+00
EXPONENTS  0.7060000D+00 0.7060000D+00 0.3120000D+00 0.3120000D+00 0.3120000D+00
EXPONENTS  0.3120000D+00 0.3120000D+00 0.3120000D+00 0.3120000D+00 0.3120000D+00
EXPONENTS  0.3120000D+00 0.3120000D+00 0.1950000D+05 0.2923000D+04 0.6645000D+03
EXPONENTS  0.1875000D+03 0.6062000D+02 0.2142000D+02 0.7950000D+01 0.6645000D+03
EXPONENTS  0.1875000D+03 0.6062000D+02 0.2142000D+02 0.7950000D+01 0.8815000D+00
EXPONENTS  0.2257000D+01 0.3041000D+00 0.9158000D-01 0.4388000D+02 0.9926000D+01
EXPONENTS  0.2930000D+01 0.4388000D+02 0.9926000D+01 0.2930000D+01 0.4388000D+02
EXPONENTS  0.9926000D+01 0.2930000D+01 0.9132000D+00 0.9132000D+00 0.9132000D+00
EXPONENTS  0.2672000D+00 0.2672000D+00 0.2672000D+00 0.7361000D-01 0.7361000D-01
EXPONENTS  0.7361000D-01 0.3107000D+01 0.3107000D+01 0.3107000D+01 0.3107000D+01
EXPONENTS  0.3107000D+01 0.3107000D+01 0.8550000D+00 0.8550000D+00 0.8550000D+00
EXPONENTS  0.8550000D+00 0.8550000D+00 0.8550000D+00 0.2920000D+00 0.2920000D+00
EXPONENTS  0.2920000D+00 0.2920000D+00 0.2920000D+00 0.2920000D+00 0.1917000D+01
EXPONENTS  0.1917000D+01 0.1917000D+01 0.1917000D+01 0.1917000D+01 0.1917000D+01
EXPONENTS  0.1917000D+01 0.1917000D+01 0.1917000D+01 0.1917000D+01 0.7240000D+00
EXPONENTS  0.7240000D+00 0.7240000D+00 0.7240000D+00 0.7240000D+00 0.7240000D+00
EXPONENTS  0.7240000D+00 0.7240000D+00 0.7240000D+00 0.7240000D+00
MO    1     MO 0.0        OCC NO =    2.0000300  ORB. ENERGY =    0.000000
  0.13114364D-07  0.24447816D-07  0.41320139D-07  0.62111876D-07  0.76293315D-07
  0.64388866D-07  0.24211895D-07 -0.15404397D-10 -0.11513832D-09 -0.43029819D-09
 -0.12004650D-08 -0.16082921D-08  0.18990931D-08  0.38677907D-08 -0.45810618D-08
  0.10189847D-08  0.10955248D-03  0.10271241D-03  0.73137356D-04 -0.23548043D-07
 -0.22077787D-07 -0.15720700D-07 -0.19481024D-07 -0.18264699D-07 -0.13005554D-07
  0.34499551D-03 -0.74218996D-07 -0.57109358D-07  0.45381392D-03 -0.97840082D-07
 -0.83746165D-07  0.95097633D-05 -0.20931011D-08 -0.17051931D-08 -0.80115157D-07
 -0.87981861D-08  0.88913343D-07  0.12095034D-03 -0.51169940D-03  0.87768579D-07
  0.48804562D-07 -0.32573526D-07 -0.16231035D-07  0.38367327D-03  0.98618618D-04
 -0.88352270D-07 -0.45663231D-08 -0.67584547D-08  0.11324778D-07  0.81475163D-04
 -0.64784842D-04 -0.22412319D-09  0.90102848D-04 -0.20489368D-07  0.64755535D-07
  0.95408776D-04 -0.98780623D-08 -0.17296807D-06 -0.36571732D-03  0.71346165D-07
 -0.21298535D-07  0.46692288D-04 -0.26932857D-04  0.61600000D-08 -0.19093414D-07
 -0.24054905D-04  0.23440629D-07  0.61065809D-07  0.10485348D-03 -0.41920629D-07
 -0.37855671D-08  0.10522683D-03  0.36301018D-08  0.65470381D-08  0.96536039D-08
 -0.28367363D-07 -0.96316986D-07  0.85849042D-09  0.45969205D-05 -0.72153069D-08
 -0.29650440D-08  0.81012373D-04 -0.34946116D-07 -0.37717165D-07  0.75307956D-04
 -0.23640200D-07 -0.14952258D-07  0.52955898D-08 -0.73109001D-08  0.20153102D-08
  0.27108398D-04 -0.46207213D-04 -0.23796178D-07  0.18274187D-07 -0.24443371D-08
 -0.15829850D-07  0.28486836D-04  0.63143003D-04 -0.16196066D-07 -0.34526800D-04
 -0.62270506D-04 -0.91817824D-04  0.30467874D-03  0.95485756D-03 -0.10367402D-04
  0.52668871D-04 -0.27095841D-04  0.18666168D-04  0.23018382D-03 -0.86583372D-04
  0.23719848D-03  0.14494594D-03 -0.42784540D-04  0.20341985D-04  0.91502688D-05
 -0.68216562D-04  0.59066293D-04 -0.10472396D-03  0.21029229D-03 -0.15060142D-03
 -0.11051859D-04 -0.36321859D-04  0.47373718D-04 -0.16171875D-04  0.38585507D-04
  0.12752869D-04  0.34523341D-04  0.62264267D-04  0.91808626D-04 -0.30464082D-03
 -0.95476329D-03  0.10366399D-04  0.52664442D-04  0.27078767D-04 -0.18682372D-04
  0.23010467D-03  0.86500553D-04 -0.23725897D-03  0.14494149D-03  0.42730249D-04
 -0.20391827D-04 -0.91030493D-05  0.68238341D-04 -0.59135291D-04 -0.10461607D-03
  0.21027126D-03  0.15057821D-03  0.11057763D-04  0.36324405D-04 -0.47382169D-04
 -0.16158483D-04  0.38544040D-04 -0.12766338D-04 -0.83319437D-08 -0.15588177D-07
 -0.26932913D-07 -0.43661417D-07 -0.66304051D-07 -0.92156393D-07 -0.10956689D-06
 -0.97605992D-07 -0.48473200D-07 -0.78037751D-08 -0.82334437D-10 -0.37614152D-10
 -0.12547451D-08 -0.43725356D-08 -0.15746209D-07 -0.34710558D-07 -0.48861262D-07
  0.23308415D-08  0.63943447D-07  0.37809360D-07 -0.26976663D-11 -0.32675327D-10
 -0.68140950D-10 -0.19541638D-09 -0.10147701D-10  0.84273020D-09  0.21774530D-08
 -0.17740862D-08  0.19755250D-08  0.36496273D-08  0.30540003D-10  0.11610769D+02
  0.15294099D+02  0.16871786D+02  0.14013339D+02  0.74414719D+01  0.19199386D+01
 -0.24839142D-02 -0.32718960D-02 -0.36094135D-02 -0.29979005D-02 -0.15919684D-02
 -0.41073616D-03 -0.20409112D-02 -0.26883574D-02 -0.29656791D-02 -0.24632287D-02
 -0.13080428D-02 -0.33748187D-03 -0.45950693D-03  0.44422173D-02  0.62639901D-02
  0.89591629D-02 -0.45367940D-04 -0.82163974D-02  0.98335275D-07 -0.95064217D-06
 -0.13405047D-05 -0.19172763D-05  0.97088174D-08  0.17583232D-05  0.80639654D-07
 -0.77957229D-06 -0.10992783D-05 -0.15722588D-05  0.79616971D-08  0.14419096D-05
  0.76646266D-01 -0.16397822D-04 -0.13469998D-04 -0.64497986D-03  0.13775516D-06
  0.11217557D-06 -0.58060009D-04  0.12415611D-07  0.10237970D-07 -0.17165445D-06
 -0.38213429D-09  0.17203658D-06  0.18128455D-04 -0.98047948D-03  0.20733943D-06
  0.61795898D-07 -0.33760072D-10 -0.61762138D-07 -0.71656755D-05  0.35471608D-03
 -0.75189100D-07 -0.10546344D-07 -0.25186863D-09  0.10798212D-07  0.24503970D-05
 -0.60655505D-04  0.12656953D-07  0.23104949D-05 -0.64022887D-09  0.15367858D-08
  0.21801972D-05  0.12554406D-07  0.17876768D-08 -0.91116819D-05 -0.10633720D-07
 -0.63980341D-08  0.71669778D-04  0.14605140D-04 -0.31204673D-08  0.10247150D-07
  0.14667902D-04 -0.60031539D-08 -0.29691400D-07 -0.58483322D-04  0.15364556D-07
 -0.10500487D-08 -0.15389310D-04  0.11845148D-08  0.22079377D-08  0.37429463D-08
  0.56673269D-08  0.70854069D-08  0.60947205D-08  0.23374565D-08 -0.59399751D-11
 -0.78634148D-10 -0.28561353D-09 -0.84726716D-09 -0.97630427D-09  0.11858670D-08
 -0.23890358D-10 -0.16265983D-08 -0.15087836D-08 -0.29354218D-03 -0.28707784D-03
 -0.18968447D-03  0.62838778D-07  0.61454953D-07  0.40605886D-07  0.54925054D-07
  0.53715503D-07  0.35492104D-07 -0.10210785D-04  0.75889972D-09  0.42787775D-08
 -0.65574196D-04  0.15218260D-07  0.89991888D-08 -0.19717278D-04  0.42505230D-08
  0.32881519D-08 -0.11817784D-07 -0.12464195D-07  0.24281979D-07  0.14112546D-03
 -0.13443436D-03  0.43507452D-08  0.11809833D-07  0.62379657D-08 -0.18047799D-07
 -0.71049284D-04  0.10243489D-03 -0.98930765D-08 -0.90588250D-08 -0.28560229D-08
  0.11914848D-07  0.36390390D-04 -0.72880619D-04  0.10292555D-07 -0.69134391D-04
  0.16012860D-07 -0.46533695D-07 -0.68985357D-04 -0.51023941D-07  0.95393348D-07
  0.27638853D-03  0.29853621D-08  0.44207737D-07 -0.38520506D-03  0.24525528D-04
 -0.57099549D-08  0.16347461D-07  0.24469488D-04  0.15663774D-07 -0.34784312D-07
 -0.98046073D-04  0.14660911D-08 -0.14258073D-07  0.12256505D-03
MO    2     MO 0.0        OCC NO =    2.0000300  ORB. ENERGY =    0.000000
  0.52113163D-04  0.97149435D-04  0.16419578D-03  0.24681688D-03  0.30317033D-03
  0.25586507D-03  0.96211946D-04 -0.71506117D-07 -0.53446392D-06 -0.19974137D-05
 -0.55724733D-05 -0.74655778D-05  0.88154554D-05  0.17033234D-04 -0.39311616D-04
 -0.52230329D-05 -0.22181744D-07 -0.20796795D-07 -0.14808557D-07 -0.11275217D-03
 -0.10571232D-03 -0.75273471D-04  0.10074210D-04  0.94452122D-05  0.67255538D-05
 -0.80290381D-07 -0.38115059D-03  0.66429946D-05 -0.10052554D-06 -0.47338010D-03
  0.28920247D-06 -0.18882741D-08 -0.91504870D-05  0.65653173D-07 -0.66496932D-04
  0.69929867D-04 -0.34329350D-05  0.11370496D-06  0.13125888D-06  0.50762454D-03
 -0.20014803D-03  0.19194696D-03  0.82010706D-05  0.49036002D-07  0.52507006D-07
 -0.96761330D-04 -0.40043023D-04  0.42821396D-04 -0.27783731D-05  0.25903487D-07
  0.27350872D-07  0.67584336D-04 -0.23472430D-07 -0.93563462D-04 -0.35369517D-05
 -0.14339650D-07 -0.95495345D-04 -0.21205735D-04  0.84756941D-07  0.37618573D-03
  0.31816590D-04  0.17501148D-06 -0.40478262D-08  0.30855926D-04  0.43413572D-06
  0.17258899D-07  0.17051890D-04 -0.48776595D-04 -0.51154203D-08 -0.10961967D-03
  0.47474188D-04 -0.28659939D-07  0.40115137D-04  0.72349302D-04  0.10667900D-03
 -0.35660401D-03 -0.11491076D-02  0.12509600D-04 -0.14566332D-07 -0.74371224D-04
 -0.27245499D-04 -0.91296858D-07 -0.29113196D-03 -0.26592916D-03 -0.32896897D-07
 -0.17354379D-03 -0.20369951D-04  0.10995546D-03 -0.43034136D-04 -0.66921327D-04
 -0.94723147D-07 -0.96766303D-07 -0.29897656D-03  0.42640496D-04  0.11498568D-04
 -0.54139064D-04 -0.16101537D-07 -0.43450705D-07 -0.31154647D-04 -0.20357580D-04
 -0.36715734D-04 -0.54137329D-04  0.21777986D-03  0.57202114D-03 -0.59407072D-05
  0.31587627D-04 -0.22236550D-04  0.13062873D-04  0.96149981D-04 -0.14204953D-03
  0.13538249D-03  0.44027134D-04 -0.10259461D-03  0.11101713D-04 -0.91403895D-05
 -0.24931370D-04  0.34071759D-04 -0.85229227D-04  0.14814178D-03 -0.39433945D-04
 -0.22044100D-04 -0.82670182D-05  0.30311118D-04 -0.27736804D-04 -0.12584370D-04
 -0.52910502D-04 -0.20363415D-04 -0.36726258D-04 -0.54152846D-04  0.21783609D-03
  0.57219341D-03 -0.59427651D-05 -0.31598027D-04 -0.22233500D-04  0.13077428D-04
 -0.96179124D-04 -0.14203980D-03  0.13545867D-03 -0.44075161D-04 -0.10259165D-03
  0.11121199D-04 -0.91694059D-05 -0.24964923D-04  0.34134329D-04  0.85223792D-04
 -0.14815859D-03 -0.39454929D-04 -0.22034479D-04 -0.82804604D-05  0.30314939D-04
  0.27728162D-04  0.12601656D-04 -0.52921855D-04  0.13265569D-03  0.24818464D-03
  0.42880802D-03  0.69514818D-03  0.10556492D-02  0.14672531D-02  0.17444515D-02
  0.15540180D-02  0.77175820D-03  0.12424654D-03  0.13108744D-05  0.62774280D-06
  0.20940449D-04  0.72973272D-04  0.26278857D-03  0.57928470D-03  0.81544589D-03
 -0.38899427D-04 -0.10671526D-02 -0.63100063D-03  0.49826444D-08  0.60351991D-07
  0.12585772D-06  0.36093802D-06  0.18743009D-07 -0.15565398D-05 -0.40217998D-05
  0.32767732D-05 -0.38563312D-04  0.16764197D-04  0.18712163D-05 -0.24668606D-02
 -0.32494326D-02 -0.35846328D-02 -0.29773182D-02 -0.15810386D-02 -0.40791621D-03
 -0.11610306D+02 -0.15293489D+02 -0.16871113D+02 -0.14012780D+02 -0.74411750D+01
 -0.19198620D+01  0.96468015D-01  0.12707094D+00  0.14017914D+00  0.11642975D+00
  0.61827429D-01  0.15951800D-01  0.97561889D-07 -0.94316557D-06 -0.13299619D-05
 -0.19021973D-05  0.96324596D-08  0.17444944D-05  0.45953051D-03 -0.44424453D-02
 -0.62643116D-02 -0.89596227D-02  0.45370268D-04  0.82168191D-02 -0.40589695D-05
  0.39239506D-04  0.55331799D-04  0.79139110D-04 -0.40074931D-06 -0.72578028D-04
 -0.16285433D-04 -0.76656726D-01  0.64367239D-03  0.13599271D-06  0.64197196D-03
 -0.88247613D-05  0.12282319D-07  0.57852264D-04 -0.56269058D-06 -0.11123070D-04
  0.20377029D-04 -0.92539591D-05  0.17976710D-06  0.20982789D-06  0.98142284D-03
  0.34333828D-05 -0.68187814D-05  0.33853986D-05 -0.65317573D-07 -0.75998788D-07
 -0.35789901D-03 -0.11395430D-05  0.14578298D-05 -0.31828674D-06  0.11301455D-07
  0.13349656D-07  0.61545820D-04 -0.63753653D-08 -0.29892117D-05  0.27716942D-07
  0.50274801D-08 -0.87874624D-06 -0.34144131D-04  0.14098616D-07  0.98463814D-05
  0.34060980D-04  0.15044392D-07 -0.19381077D-08 -0.14533621D-04 -0.26907703D-06
 -0.40338854D-08 -0.15270221D-04  0.69760560D-05  0.98482085D-08  0.58871084D-04
 -0.61688249D-05  0.24225635D-07 -0.18289659D-04 -0.34091955D-04 -0.57793459D-04
 -0.87507113D-04 -0.10940316D-03 -0.94106340D-04 -0.36091807D-04  0.25437075D-07
  0.33673924D-06  0.12230982D-05  0.36282977D-05  0.41808803D-05 -0.50783018D-05
 -0.81497411D-06  0.10198666D-04  0.11164312D-04  0.67198191D-07  0.65718363D-07
  0.43422901D-07  0.28841515D-03  0.28206371D-03  0.18637142D-03  0.32825888D-04
  0.32103001D-04  0.21211810D-04  0.36022045D-08  0.69870415D-05  0.36602847D-05
  0.14860950D-07  0.67912827D-04  0.89620568D-05  0.43658077D-08  0.19377558D-04
  0.14997013D-05 -0.69440860D-04  0.72752424D-04 -0.33115635D-05  0.46067572D-07
  0.50457431D-07  0.12983766D-03  0.34780938D-04 -0.36271550D-04  0.14906120D-05
 -0.29152309D-07 -0.32763184D-07 -0.10103549D-03 -0.17938057D-04  0.17575954D-04
  0.36210279D-06  0.18657205D-07  0.21403659D-07  0.75220514D-04  0.45616105D-07
  0.73013909D-04  0.17668561D-05 -0.16410510D-07  0.76403920D-04  0.18100268D-03
 -0.12043780D-06 -0.29544565D-03 -0.18630325D-03 -0.18631885D-06 -0.15053184D-07
 -0.26008970D-04 -0.36236855D-06  0.46083798D-08 -0.27018731D-04 -0.57605708D-04
  0.40551174D-07  0.10504564D-03  0.58692814D-04  0.63814733D-07
MO    3     MO 0.0        OCC NO =    2.0000210  ORB. ENERGY =    0.000000
 -0.14456812D-01 -0.26950411D-01 -0.45549866D-01 -0.68469944D-01 -0.84103063D-01
 -0.70980018D-01 -0.26690340D-01 -0.38131731D-05 -0.28501107D-04 -0.10651514D-03
 -0.29716067D-03 -0.39811337D-03  0.47009765D-03 -0.87257708D-03 -0.19331255D-02
 -0.81885835D-04  0.20832303D-06  0.19531608D-06  0.13907669D-06 -0.34367233D-05
 -0.32221466D-05 -0.22943603D-05  0.11669946D-02  0.10941316D-02  0.77908688D-03
  0.10497764D-06  0.21658058D-04  0.60711734D-03 -0.66697191D-07 -0.10002444D-05
 -0.37910830D-03  0.82249328D-09  0.12161079D-06  0.46730088D-05 -0.10106943D-03
 -0.11006284D-03  0.21113226D-03 -0.44250450D-08  0.11158247D-06  0.13037793D-05
 -0.18642230D-04 -0.29242937D-04  0.47885167D-04 -0.59712222D-08  0.23251813D-07
 -0.71361817D-05  0.11093445D-04  0.11723221D-04 -0.22816667D-04  0.21647067D-09
 -0.11973596D-07 -0.10642422D-05 -0.16239407D-07  0.36555687D-04  0.77278776D-05
  0.39846104D-07 -0.10832905D-03 -0.13794986D-04  0.88721163D-08 -0.13380138D-05
 -0.93886473D-05  0.39724198D-07  0.27787165D-08  0.51953065D-04 -0.85652377D-04
  0.82102360D-07 -0.15504305D-03  0.12768989D-03 -0.90438509D-07 -0.81614092D-06
  0.12926724D-03  0.55299332D-07 -0.34121002D-05 -0.61538633D-05 -0.90738678D-05
  0.77138829D-03  0.24324011D-03  0.54703589D-05  0.18226360D-07  0.99157055D-04
  0.30426639D-04  0.25859804D-07  0.20545538D-03 -0.75875221D-05  0.12955363D-07
  0.45842184D-04  0.38100259D-04 -0.74303571D-04  0.55287624D-04  0.19015947D-04
  0.47363715D-07  0.43445271D-07  0.76302442D-04 -0.10382936D-04 -0.11090659D-04
  0.21473595D-04 -0.63739962D-08  0.67345097D-08 -0.35201324D-04 -0.55239606D-05
 -0.99626904D-05 -0.14689981D-04  0.74231845D-03  0.23208517D-03  0.48514898D-05
  0.81194315D-04 -0.47360349D-04  0.27460931D-04  0.16699632D-03 -0.10268507D-03
 -0.26572326D-05  0.36796506D-04 -0.22439926D-04  0.39071423D-04  0.19882240D-04
 -0.39980839D-04  0.20098599D-04 -0.11222734D-03  0.64873572D-04 -0.39123224D-04
 -0.11663806D-04 -0.10050189D-04  0.21713995D-04  0.28034749D-05 -0.29605158D-04
  0.17212462D-04 -0.55234919D-05 -0.99618451D-05 -0.14688735D-04  0.74232620D-03
  0.23208555D-03  0.48515798D-05 -0.81197468D-04 -0.47340408D-04  0.27490664D-04
 -0.16702464D-03 -0.10264453D-03 -0.25972805D-05 -0.36788376D-04 -0.22430985D-04
  0.39084465D-04  0.19887775D-04 -0.40008775D-04  0.20121000D-04  0.11218351D-03
 -0.64884301D-04 -0.39147801D-04 -0.11653864D-04 -0.10049567D-04  0.21703431D-04
 -0.27960466D-05  0.29633108D-04  0.17205942D-04 -0.15460728D+00 -0.28925373D+00
 -0.49976628D+00 -0.81017986D+00 -0.12303359D+01 -0.17100511D+01 -0.20331197D+01
 -0.18111737D+01 -0.89946715D+00 -0.14480660D+00 -0.15277952D-02 -0.72286403D-03
 -0.24113534D-01 -0.84030838D-01 -0.30260865D+00 -0.66706311D+00 -0.93900957D+00
  0.44793817D-01  0.12288571D+01  0.72661551D+00 -0.15531837D-04 -0.18812847D-03
 -0.39232209D-03 -0.11251115D-02 -0.58425471D-04  0.48520262D-02  0.12536704D-01
 -0.10214316D-01  0.46601464D-01 -0.38465308D-03 -0.13208441D-03  0.10527887D-02
  0.13867690D-02  0.15298233D-02  0.12706380D-02  0.67474406D-03  0.17408749D-03
  0.41953846D-01  0.55263030D-01  0.60963772D-01  0.50635186D-01  0.26888689D-01
  0.69374223D-02  0.59407322D+01  0.78253341D+01  0.86325684D+01  0.71700240D+01
  0.38074817D+01  0.98235018D+00 -0.37354756D-07  0.36112175D-06  0.50921936D-06
  0.72831839D-06 -0.36881018D-08 -0.66793666D-06 -0.13761309D-05  0.13303548D-04
  0.18759392D-04  0.26830893D-04 -0.13586786D-06 -0.24606459D-04 -0.21076813D-03
  0.20375707D-02  0.28731874D-02  0.41094180D-02 -0.20809514D-04 -0.37687239D-02
  0.73814996D-05  0.29295043D-03  0.41649340D-01 -0.85872402D-07 -0.31145468D-05
 -0.48378910D-03 -0.17299754D-08 -0.14860855D-06 -0.98333931D-05 -0.80697858D-05
 -0.62263214D-05  0.14296107D-04  0.14450385D-08  0.76455895D-08  0.38842384D-05
 -0.11110850D-03 -0.11168894D-03  0.22279744D-03  0.26904032D-09  0.11875781D-06
  0.29143254D-05 -0.14296642D-04 -0.14342802D-04  0.28639444D-04  0.15958203D-09
  0.15305030D-07  0.93118545D-06  0.13752401D-08 -0.75920589D-05  0.54458464D-05
 -0.98732349D-08  0.21239282D-04 -0.74953329D-05  0.57475145D-08  0.15368947D-05
 -0.88422063D-05 -0.73421886D-08  0.81711406D-08  0.24537814D-05 -0.33740632D-04
  0.11448457D-07 -0.57523332D-05  0.50205971D-04 -0.35961879D-07 -0.16090111D-05
  0.51015926D-04  0.17230675D-08 -0.87903003D-03 -0.16385135D-02 -0.27776454D-02
 -0.42057308D-02 -0.52580898D-02 -0.45229001D-02 -0.17346295D-02 -0.68400898D-06
 -0.90549981D-05 -0.32889401D-04 -0.97565787D-04 -0.11242486D-03  0.13655674D-03
 -0.95924860D-04 -0.15942640D-03  0.12336759D-04  0.66796283D-06  0.65325306D-06
  0.43163192D-06 -0.20237348D-04 -0.19791684D-04 -0.13077203D-04  0.39016893D-02
  0.38157670D-02  0.25212386D-02  0.14970402D-06 -0.53935625D-05  0.87911452D-03
  0.41438887D-08  0.71587038D-06  0.21422941D-04  0.15459247D-08 -0.20098777D-06
  0.93272763D-05 -0.34771476D-04 -0.36485194D-04  0.71256669D-04 -0.38065007D-09
  0.36347548D-07 -0.29696642D-05  0.20662599D-04  0.21521356D-04 -0.42183955D-04
  0.15605555D-09 -0.21770130D-07  0.91495286D-06  0.18271947D-04  0.17924642D-04
 -0.36196589D-04  0.16203551D-09 -0.18089252D-07  0.14688234D-05 -0.10089547D-07
 -0.36113692D-06  0.46285409D-04 -0.14019745D-07  0.11405500D-04 -0.71094732D-04
  0.44288386D-07 -0.10322089D-04 -0.67761494D-04 -0.40704438D-08  0.58808075D-08
 -0.37976721D-07 -0.25340026D-04  0.71438661D-08 -0.37478764D-05  0.38461982D-04
 -0.24786289D-07  0.38618065D-05  0.37558097D-04  0.15937761D-08
MO    4     MO 0.0        OCC NO =    2.0000123  ORB. ENERGY =    0.000000
  0.26838563D-01  0.50032488D-01  0.84561721D-01  0.12711204D+00  0.15613437D+00
  0.13177190D+00  0.49549676D-01 -0.14521642D-05 -0.10854027D-04 -0.40563979D-04
 -0.11316719D-03 -0.15161283D-03  0.17902648D-03  0.26465703D-02 -0.36094332D-02
 -0.42148913D-04  0.64792044D-06  0.60746660D-06  0.43255241D-06  0.12105753D-04
  0.11349913D-04  0.80818142D-05  0.36696492D-02  0.34405294D-02  0.24498619D-02
  0.22878807D-06  0.46822051D-04  0.13054601D-02 -0.74076534D-07  0.61094446D-05
 -0.41700462D-03  0.68329114D-09  0.15892037D-06  0.37070280D-05 -0.31469689D-03
 -0.32378378D-03  0.63848067D-03 -0.33812977D-08  0.33777624D-06  0.79107682D-05
  0.23456372D-04 -0.38269296D-05 -0.19629442D-04 -0.14236053D-07 -0.14402041D-07
 -0.17267790D-04 -0.16929955D-04 -0.18837112D-04  0.35767067D-04 -0.93453799D-09
  0.18277500D-07 -0.10888015D-05  0.95960348D-08 -0.41725095D-04  0.22579762D-04
 -0.53540218D-07  0.12752967D-03 -0.38063560D-04  0.24752113D-07 -0.23543882D-05
 -0.29675725D-04 -0.42000824D-07  0.11637423D-07  0.82535044D-04 -0.16374688D-03
  0.13788147D-06 -0.24492184D-03  0.24222207D-03 -0.17279374D-06 -0.26832921D-05
  0.24901858D-03  0.88882544D-07 -0.90785966D-04 -0.16373623D-03 -0.24142897D-03
  0.10688652D-02  0.71794718D-03  0.47742026D-05  0.34400712D-09 -0.49606038D-04
  0.38003260D-04  0.32230202D-07  0.32172735D-03 -0.54414235D-04  0.28101954D-07
  0.11559469D-03  0.76076844D-04 -0.14647904D-03  0.33999947D-04  0.11247909D-03
  0.71672193D-07  0.11024867D-06  0.14260312D-03 -0.15768772D-04 -0.19442449D-04
  0.35211221D-04 -0.12530980D-07  0.10139747D-07 -0.64218604D-04 -0.90093229D-04
 -0.16248685D-03 -0.23958676D-03  0.99886104D-03  0.66728366D-03  0.40081177D-05
 -0.52916427D-04  0.32279096D-04  0.31307189D-04  0.25373096D-03 -0.15198609D-03
 -0.37902708D-04  0.94415475D-04 -0.53777991D-04  0.75750666D-04 -0.21289971D-04
 -0.99791655D-04  0.12108163D-03 -0.13868942D-03  0.12250021D-03 -0.72573274D-04
 -0.19360240D-04 -0.16647907D-04  0.36008147D-04  0.71453627D-05 -0.54094157D-04
  0.30539320D-04 -0.90093597D-04 -0.16248751D-03 -0.23958774D-03  0.99887425D-03
  0.66729540D-03  0.40080020D-05  0.52933943D-04  0.32264661D-04  0.31289229D-04
 -0.25378639D-03 -0.15192448D-03 -0.37815384D-04 -0.94403704D-04 -0.53754650D-04
  0.75784396D-04 -0.21295281D-04 -0.99825935D-04  0.12112122D-03  0.13862778D-03
 -0.12241780D-03 -0.72591645D-04 -0.19342605D-04 -0.16646477D-04  0.35989083D-04
 -0.71324758D-05  0.54142296D-04  0.30528443D-04  0.91305030D-01  0.17082197D+00
  0.29514247D+00  0.47846062D+00  0.72658837D+00  0.10098895D+01  0.12006812D+01
  0.10696085D+01  0.53119022D+00  0.85517131D-01  0.90225624D-03  0.42748859D-03
  0.14260304D-01  0.49694304D-01  0.17895723D+00  0.39448895D+00  0.55531312D+00
 -0.26490246D-01 -0.72672366D+00 -0.42970715D+00  0.62772795D-05  0.76033184D-04
  0.15855919D-03  0.45472015D-03  0.23612984D-04 -0.19609738D-02 -0.50667797D-02
  0.41281736D-02 -0.28542488D-01  0.14179444D-02 -0.18184724D-03  0.17615663D-02
  0.23203949D-02  0.25597588D-02  0.21260801D-02  0.11290075D-02  0.29128984D-03
  0.86909526D-01  0.11448018D+00  0.12628956D+00  0.10489336D+00  0.55701287D-01
  0.14371223D-01  0.99145580D+01  0.13059792D+02  0.14406995D+02  0.11966137D+02
  0.63543511D+01  0.16394558D+01 -0.59865298D-07  0.57873918D-06  0.81608266D-06
  0.11672141D-05 -0.59106078D-08 -0.10704454D-05 -0.26869676D-05  0.25975874D-04
  0.36628693D-04  0.52388721D-04 -0.26528911D-06 -0.48045398D-04 -0.33685950D-03
  0.32565409D-02  0.45920626D-02  0.65678643D-02 -0.33258740D-04 -0.60233510D-02
  0.12891800D-04  0.62869221D-03  0.72556993D-01 -0.54008043D-07 -0.22814436D-05
 -0.30630388D-03 -0.66944273D-09 -0.18110220D-06 -0.39505125D-05  0.45355599D-03
  0.45534046D-03 -0.90889645D-03 -0.21413279D-08 -0.48473301D-06 -0.16584666D-04
 -0.30920894D-03 -0.31013352D-03  0.61934246D-03  0.14029897D-08  0.33018073D-06
  0.10403315D-04  0.43203375D-05  0.43465882D-05 -0.86669257D-05  0.58239043D-10
 -0.48053957D-08  0.24428765D-06  0.18220112D-07 -0.14756357D-04 -0.46953827D-04
 -0.42859339D-08  0.43333475D-04  0.71347529D-04 -0.50374403D-07  0.93559616D-06
  0.69513951D-04 -0.15883464D-07  0.14967286D-07  0.48489202D-05 -0.62594511D-04
  0.21596643D-07 -0.11846171D-04  0.93174930D-04 -0.66498500D-07 -0.27005899D-05
  0.94608601D-04  0.39030539D-08 -0.63573633D-02 -0.11850136D-01 -0.20088621D-01