 clch3f_ts-wavefunction
GAUSSIAN            211 MOL ORBITALS    339 PRIMITIVES        6 NUCLEI
  C    1    (CENTRE  1)   0.00033070  0.00005480 -0.94053370  CHARGE =  6.0
  H    2    (CENTRE  2)  -0.01886136 -1.98906904 -1.17300214  CHARGE =  1.0
  H    3    (CENTRE  3)  -1.72213010  0.99468570 -1.17398291  CHARGE =  1.0
  H    4    (CENTRE  4)   1.72295780  0.99424539 -1.17459707  CHARGE =  1.0
  Cl   5    (CENTRE  5)   0.00104880  0.00181792  3.10806659  CHARGE = 17.0
  F    6    (CENTRE  6)  -0.00035149 -0.00174044 -4.90094425  CHARGE =  9.0
CENTRE ASSIGNMENTS    1  1  1  1  1  1  1  1  1  1  1  1  1  1  1  1  1  1  1  1
CENTRE ASSIGNMENTS    1  1  1  1  1  1  1  1  1  1  1  1  1  1  1  1  1  1  1  1
CENTRE ASSIGNMENTS    1  1  1  1  1  1  1  1  1  1  1  1  1  1  1  1  1  1  1  1
CENTRE ASSIGNMENTS    1  1  1  1  1  1  1  1  1  1  1  1  2  2  2  2  2  2  2  2
CENTRE ASSIGNMENTS    2  2  2  2  2  2  2  2  2  2  2  2  2  2  2  2  2  2  2  3
CENTRE ASSIGNMENTS    3  3  3  3  3  3  3  3  3  3  3  3  3  3  3  3  3  3  3  3
CENTRE ASSIGNMENTS    3  3  3  3  3  3  4  4  4  4  4  4  4  4  4  4  4  4  4  4
CENTRE ASSIGNMENTS    4  4  4  4  4  4  4  4  4  4  4  4  4  5  5  5  5  5  5  5
CENTRE ASSIGNMENTS    5  5  5  5  5  5  5  5  5  5  5  5  5  5  5  5  5  5  5  5
CENTRE ASSIGNMENTS    5  5  5  5  5  5  5  5  5  5  5  5  5  5  5  5  5  5  5  5
CENTRE ASSIGNMENTS    5  5  5  5  5  5  5  5  5  5  5  5  5  5  5  5  5  5  5  5
CENTRE ASSIGNMENTS    5  5  5  5  5  5  5  5  5  5  5  5  5  5  5  5  5  5  5  5
CENTRE ASSIGNMENTS    5  5  5  5  5  5  5  5  5  5  5  5  5  5  5  5  5  5  5  5
CENTRE ASSIGNMENTS    5  5  5  5  5  5  5  6  6  6  6  6  6  6  6  6  6  6  6  6
CENTRE ASSIGNMENTS    6  6  6  6  6  6  6  6  6  6  6  6  6  6  6  6  6  6  6  6
CENTRE ASSIGNMENTS    6  6  6  6  6  6  6  6  6  6  6  6  6  6  6  6  6  6  6  6
CENTRE ASSIGNMENTS    6  6  6  6  6  6  6  6  6  6  6  6  6  6  6  6  6  6  6
TYPE ASSIGNMENTS      1  1  1  1  1  1  1  1  1  1  1  1  1  1  1  1  2  2  2  3
TYPE ASSIGNMENTS      3  3  4  4  4  2  3  4  2  3  4  2  3  4  5  6  7  8  9 10
TYPE ASSIGNMENTS      5  6  7  8  9 10  5  6  7  8  9 10 11 12 13 17 14 15 18 19
TYPE ASSIGNMENTS     16 20 11 12 13 17 14 15 18 19 16 20  1  1  1  1  1  1  2  3
TYPE ASSIGNMENTS      4  2  3  4  2  3  4  5  6  7  8  9 10  5  6  7  8  9 10  1
TYPE ASSIGNMENTS      1  1  1  1  1  2  3  4  2  3  4  2  3  4  5  6  7  8  9 10
TYPE ASSIGNMENTS      5  6  7  8  9 10  1  1  1  1  1  1  2  3  4  2  3  4  2  3
TYPE ASSIGNMENTS      4  5  6  7  8  9 10  5  6  7  8  9 10  1  1  1  1  1  1  1
TYPE ASSIGNMENTS      1  1  1  1  1  1  1  1  1  1  1  1  1  1  1  1  1  1  1  1
TYPE ASSIGNMENTS      1  1  1  1  2  2  2  2  2  2  3  3  3  3  3  3  4  4  4  4
TYPE ASSIGNMENTS      4  4  2  2  2  2  2  2  3  3  3  3  3  3  4  4  4  4  4  4
TYPE ASSIGNMENTS      2  3  4  2  3  4  2  3  4  5  6  7  8  9 10  5  6  7  8  9
TYPE ASSIGNMENTS     10  5  6  7  8  9 10 11 12 13 17 14 15 18 19 16 20 11 12 13
TYPE ASSIGNMENTS     17 14 15 18 19 16 20  1  1  1  1  1  1  1  1  1  1  1  1  1
TYPE ASSIGNMENTS      1  1  1  2  2  2  3  3  3  4  4  4  2  3  4  2  3  4  2  3
TYPE ASSIGNMENTS      4  5  6  7  8  9 10  5  6  7  8  9 10  5  6  7  8  9 10 11
TYPE ASSIGNMENTS     12 13 17 14 15 18 19 16 20 11 12 13 17 14 15 18 19 16 20
EXPONENTS  0.8236000D+04 0.1235000D+04 0.2808000D+03 0.7927000D+02 0.2559000D+02
EXPONENTS  0.8997000D+01 0.3319000D+01 0.2808000D+03 0.7927000D+02 0.2559000D+02
EXPONENTS  0.8997000D+01 0.3319000D+01 0.3643000D+00 0.9059000D+00 0.1285000D+00
EXPONENTS  0.4402000D-01 0.1871000D+02 0.4133000D+01 0.1200000D+01 0.1871000D+02
EXPONENTS  0.4133000D+01 0.1200000D+01 0.1871000D+02 0.4133000D+01 0.1200000D+01
EXPONENTS  0.3827000D+00 0.3827000D+00 0.3827000D+00 0.1209000D+00 0.1209000D+00
EXPONENTS  0.1209000D+00 0.3569000D-01 0.3569000D-01 0.3569000D-01 0.1097000D+01
EXPONENTS  0.1097000D+01 0.1097000D+01 0.1097000D+01 0.1097000D+01 0.1097000D+01
EXPONENTS  0.3180000D+00 0.3180000D+00 0.3180000D+00 0.3180000D+00 0.3180000D+00
EXPONENTS  0.3180000D+00 0.1000000D+00 0.1000000D+00 0.1000000D+00 0.1000000D+00
EXPONENTS  0.1000000D+00 0.1000000D+00 0.7610000D+00 0.7610000D+00 0.7610000D+00
EXPONENTS  0.7610000D+00 0.7610000D+00 0.7610000D+00 0.7610000D+00 0.7610000D+00
EXPONENTS  0.7610000D+00 0.7610000D+00 0.2680000D+00 0.2680000D+00 0.2680000D+00
EXPONENTS  0.2680000D+00 0.2680000D+00 0.2680000D+00 0.2680000D+00 0.2680000D+00
EXPONENTS  0.2680000D+00 0.2680000D+00 0.3387000D+02 0.5095000D+01 0.1159000D+01
EXPONENTS  0.3258000D+00 0.1027000D+00 0.2526000D-01 0.1407000D+01 0.1407000D+01
EXPONENTS  0.1407000D+01 0.3880000D+00 0.3880000D+00 0.3880000D+00 0.1020000D+00
EXPONENTS  0.1020000D+00 0.1020000D+00 0.1057000D+01 0.1057000D+01 0.1057000D+01
EXPONENTS  0.1057000D+01 0.1057000D+01 0.1057000D+01 0.2470000D+00 0.2470000D+00
EXPONENTS  0.2470000D+00 0.2470000D+00 0.2470000D+00 0.2470000D+00 0.3387000D+02
EXPONENTS  0.5095000D+01 0.1159000D+01 0.3258000D+00 0.1027000D+00 0.2526000D-01
EXPONENTS  0.1407000D+01 0.1407000D+01 0.1407000D+01 0.3880000D+00 0.3880000D+00
EXPONENTS  0.3880000D+00 0.1020000D+00 0.1020000D+00 0.1020000D+00 0.1057000D+01
EXPONENTS  0.1057000D+01 0.1057000D+01 0.1057000D+01 0.1057000D+01 0.1057000D+01
EXPONENTS  0.2470000D+00 0.2470000D+00 0.2470000D+00 0.2470000D+00 0.2470000D+00
EXPONENTS  0.2470000D+00 0.3387000D+02 0.5095000D+01 0.1159000D+01 0.3258000D+00
EXPONENTS  0.1027000D+00 0.2526000D-01 0.1407000D+01 0.1407000D+01 0.1407000D+01
EXPONENTS  0.3880000D+00 0.3880000D+00 0.3880000D+00 0.1020000D+00 0.1020000D+00
EXPONENTS  0.1020000D+00 0.1057000D+01 0.1057000D+01 0.1057000D+01 0.1057000D+01
EXPONENTS  0.1057000D+01 0.1057000D+01 0.2470000D+00 0.2470000D+00 0.2470000D+00
EXPONENTS  0.2470000D+00 0.2470000D+00 0.2470000D+00 0.4561000D+06 0.6833000D+05
EXPONENTS  0.1555000D+05 0.4405000D+04 0.1439000D+04 0.5204000D+03 0.2031000D+03
EXPONENTS  0.8396000D+02 0.3620000D+02 0.1583000D+02 0.6334000D+01 0.4405000D+04
EXPONENTS  0.1439000D+04 0.5204000D+03 0.2031000D+03 0.8396000D+02 0.3620000D+02
EXPONENTS  0.1583000D+02 0.6334000D+01 0.2694000D+01 0.1439000D+04 0.2031000D+03
EXPONENTS  0.8396000D+02 0.3620000D+02 0.1583000D+02 0.6334000D+01 0.2694000D+01
EXPONENTS  0.4313000D+00 0.9768000D+00 0.1625000D+00 0.5910000D-01 0.6633000D+03
EXPONENTS  0.1568000D+03 0.4998000D+02 0.1842000D+02 0.7240000D+01 0.2922000D+01
EXPONENTS  0.6633000D+03 0.1568000D+03 0.4998000D+02 0.1842000D+02 0.7240000D+01
EXPONENTS  0.2922000D+01 0.6633000D+03 0.1568000D+03 0.4998000D+02 0.1842000D+02
EXPONENTS  0.7240000D+01 0.2922000D+01 0.1568000D+03 0.4998000D+02 0.1842000D+02
EXPONENTS  0.7240000D+01 0.2922000D+01 0.3818000D+00 0.1568000D+03 0.4998000D+02
EXPONENTS  0.1842000D+02 0.7240000D+01 0.2922000D+01 0.3818000D+00 0.1568000D+03
EXPONENTS  0.4998000D+02 0.1842000D+02 0.7240000D+01 0.2922000D+01 0.3818000D+00
EXPONENTS  0.1022000D+01 0.1022000D+01 0.1022000D+01 0.1301000D+00 0.1301000D+00
EXPONENTS  0.1301000D+00 0.4190000D-01 0.4190000D-01 0.4190000D-01 0.1046000D+01
EXPONENTS  0.1046000D+01 0.1046000D+01 0.1046000D+01 0.1046000D+01 0.1046000D+01
EXPONENTS  0.3440000D+00 0.3440000D+00 0.3440000D+00 0.3440000D+00 0.3440000D+00
EXPONENTS  0.3440000D+00 0.1350000D+00 0.1350000D+00 0.1350000D+00 0.1350000D+00
EXPONENTS  0.1350000D+00 0.1350000D+00 0.7060000D+00 0.7060000D+00 0.7060000D+00
EXPONENTS  0.7060000D+00 0.7060000D+00 0.7060000D+00 0.7060000D+00 0.7060000D+00
EXPONENTS  0.7060000D+00 0.7060000D+00 0.3120000D+00 0.3120000D+00 0.3120000D+00
EXPONENTS  0.3120000D+00 0.3120000D+00 0.3120000D+00 0.3120000D+00 0.3120000D+00
EXPONENTS  0.3120000D+00 0.3120000D+00 0.1950000D+05 0.2923000D+04 0.6645000D+03
EXPONENTS  0.1875000D+03 0.6062000D+02 0.2142000D+02 0.7950000D+01 0.6645000D+03
EXPONENTS  0.1875000D+03 0.6062000D+02 0.2142000D+02 0.7950000D+01 0.8815000D+00
EXPONENTS  0.2257000D+01 0.3041000D+00 0.9158000D-01 0.4388000D+02 0.9926000D+01
EXPONENTS  0.2930000D+01 0.4388000D+02 0.9926000D+01 0.2930000D+01 0.4388000D+02
EXPONENTS  0.9926000D+01 0.2930000D+01 0.9132000D+00 0.9132000D+00 0.9132000D+00
EXPONENTS  0.2672000D+00 0.2672000D+00 0.2672000D+00 0.7361000D-01 0.7361000D-01
EXPONENTS  0.7361000D-01 0.3107000D+01 0.3107000D+01 0.3107000D+01 0.3107000D+01
EXPONENTS  0.3107000D+01 0.3107000D+01 0.8550000D+00 0.8550000D+00 0.8550000D+00
EXPONENTS  0.8550000D+00 0.8550000D+00 0.8550000D+00 0.2920000D+00 0.2920000D+00
EXPONENTS  0.2920000D+00 0.2920000D+00 0.2920000D+00 0.2920000D+00 0.1917000D+01
EXPONENTS  0.1917000D+01 0.1917000D+01 0.1917000D+01 0.1917000D+01 0.1917000D+01
EXPONENTS  0.1917000D+01 0.1917000D+01 0.1917000D+01 0.1917000D+01 0.7240000D+00
EXPONENTS  0.7240000D+00 0.7240000D+00 0.7240000D+00 0.7240000D+00 0.7240000D+00
EXPONENTS  0.7240000D+00 0.7240000D+00 0.7240000D+00 0.7240000D+00
MO    1     MO 0.0        OCC NO =    2.0000300  ORB. ENERGY =    0.000000
  0.11997717D-04  0.22366161D-04  0.37801859D-04  0.56823244D-04  0.69797178D-04
  0.58906356D-04  0.22150328D-04 -0.76085516D-08 -0.56869209D-07 -0.21253322D-06
 -0.59293459D-06 -0.79436888D-06  0.93800153D-06  0.32295038D-05 -0.20042686D-04
 -0.59682664D-06  0.77405509D-04  0.72572584D-04  0.51676003D-04 -0.78674160D-04
 -0.73762026D-04 -0.52522957D-04 -0.35699970D-06 -0.33470991D-06 -0.23833340D-06
  0.25157592D-03 -0.25573542D-03  0.17902006D-06  0.32327243D-03 -0.32866294D-03
  0.99584834D-06  0.66680023D-05 -0.67781779D-05  0.11971613D-07 -0.44844727D-04
  0.46157670D-04 -0.13129427D-05  0.91050663D-04 -0.35728251D-03  0.36315286D-03
 -0.13773632D-03  0.13490448D-03  0.28318427D-05  0.27362761D-03  0.68902617D-04
 -0.70278315D-04 -0.28490942D-04  0.29200937D-04 -0.70999530D-06  0.57823476D-04
 -0.46138561D-04  0.46851053D-04  0.65762972D-04 -0.65801068D-04 -0.14653075D-06
  0.61502249D-04 -0.65663790D-04 -0.18590770D-04 -0.25879116D-03  0.26306699D-03
  0.19030362D-04  0.37222167D-04 -0.18089788D-04  0.20189345D-04  0.51270364D-08
 -0.20359723D-04  0.15354191D-04 -0.35608064D-04  0.74629088D-04 -0.75922227D-04
  0.35592683D-04  0.71586537D-04  0.28498422D-04  0.51398077D-04  0.75786435D-04
 -0.24858546D-03 -0.79390806D-03  0.84475104D-05  0.30505349D-05 -0.49751476D-04
 -0.16582176D-04  0.57708930D-04 -0.20224487D-03 -0.19229926D-03  0.51178001D-04
 -0.12141740D-03 -0.16143479D-04  0.77885378D-04 -0.29945314D-04 -0.47940064D-04
  0.19844694D-04 -0.35483301D-04 -0.21097751D-03  0.30215313D-04  0.81353221D-05
 -0.38350635D-04  0.19876544D-04  0.42569512D-04 -0.22570953D-04 -0.38501415D-04
 -0.69438887D-04 -0.10238760D-03  0.36099314D-03  0.10820884D-02 -0.11401826D-04
  0.58941521D-04 -0.35556346D-04  0.23249163D-04  0.22837151D-03 -0.15916736D-03
  0.26272109D-03  0.13409166D-03 -0.10012166D-03  0.21495448D-04 -0.42729623D-06
 -0.65525174D-04  0.65952470D-04 -0.13104016D-03  0.25555197D-03 -0.13284152D-03
 -0.22810978D-04 -0.31349001D-04  0.54159979D-04 -0.30164395D-04  0.17985215D-04
 -0.28841295D-04  0.10241986D-04  0.18471844D-04  0.27236723D-04 -0.82454107D-04
 -0.28260180D-03  0.30362663D-05  0.17531865D-04  0.43974407D-05 -0.57597553D-05
  0.99730276D-04 -0.30622178D-04 -0.68350052D-04  0.72902437D-04 -0.40969649D-04
 -0.59135768D-05 -0.12407061D-04  0.29423170D-04 -0.17016109D-04 -0.20023975D-04
  0.42415245D-04  0.77081222D-04 -0.72055414D-05  0.20328352D-04 -0.13122811D-04
  0.72928431D-05  0.36233645D-04 -0.46987152D-04 -0.19285507D-04 -0.36081125D-04
 -0.62340181D-04 -0.10106076D-03 -0.15347046D-03 -0.21330950D-03 -0.25360865D-03
 -0.22592340D-03 -0.11219834D-03 -0.18062983D-04 -0.19057514D-06 -0.89590010D-07
 -0.29885727D-05 -0.10414578D-04 -0.37504581D-04 -0.82674180D-04 -0.11637856D-03
  0.55516368D-05  0.15230156D-03  0.90054959D-04 -0.35079943D-08 -0.42490378D-07
 -0.88609204D-07 -0.25411577D-06 -0.13195878D-07  0.10958704D-05  0.28315188D-05
 -0.23069882D-05  0.58442390D-05  0.27545564D-05  0.67362635D-06  0.81420602D+01
  0.10724998D+02  0.11831352D+02  0.98268638D+01  0.52183374D+01  0.13463583D+01
 -0.82774602D+01 -0.10903351D+02 -0.12028103D+02 -0.99902816D+01 -0.53051168D+01
 -0.13687479D+01  0.13423705D-02  0.17682160D-02  0.19506191D-02  0.16201419D-02
  0.86034029D-03  0.22197229D-03 -0.32221800D-03  0.31149963D-02  0.43924700D-02
  0.62823941D-02 -0.31813159D-04 -0.57615479D-02  0.32757612D-03 -0.31667951D-02
 -0.44655117D-02 -0.63868630D-02  0.32342175D-04  0.58573558D-02 -0.89508758D-07
  0.86531308D-06  0.12201818D-05  0.17451827D-05 -0.88373596D-08 -0.16004972D-05
  0.53751307D-01 -0.54645172D-01  0.93137197D-05 -0.45172793D-03  0.45924202D-03
 -0.84983903D-06 -0.40680722D-04  0.41357110D-04 -0.50465501D-07 -0.93094650D-05
  0.90417073D-05  0.26775774D-06  0.17820788D-04 -0.68747307D-03  0.69889012D-03
  0.32468181D-05 -0.31451664D-05 -0.10165168D-06 -0.61960140D-05  0.24933160D-03
 -0.25346966D-03 -0.92936564D-06  0.92232720D-06  0.70384340D-08  0.18208001D-05
 -0.42632229D-04  0.43338522D-04  0.15029303D-05 -0.16829943D-05 -0.30023064D-07
  0.16378125D-05 -0.11518302D-05 -0.24735330D-04 -0.61466033D-05  0.62008132D-05
  0.24825399D-04  0.49702097D-04  0.10303721D-04 -0.10431424D-04  0.10300907D-06
  0.10299702D-04 -0.10610943D-04  0.48817934D-05 -0.41210864D-04  0.41905215D-04
 -0.51908206D-05 -0.10194031D-04 -0.56628908D-06 -0.10555638D-05 -0.17894158D-05
 -0.27094176D-05 -0.33873687D-05 -0.29137445D-05 -0.11174837D-05  0.48104034D-08
  0.63680734D-07  0.23130001D-06  0.68614713D-06  0.79064598D-06 -0.96035731D-06
  0.95760614D-07  0.23042013D-05  0.11795611D-05 -0.20389353D-03 -0.19940342D-03
 -0.13175427D-03  0.20730769D-03  0.20274239D-03  0.13396047D-03  0.81864375D-06
  0.80061571D-06  0.52900065D-06 -0.57797534D-05  0.58883543D-05  0.59964117D-06
 -0.46725764D-04  0.47498288D-04  0.70746360D-06 -0.13760356D-04  0.13989304D-04
  0.10006029D-06 -0.49832025D-04  0.50298646D-04 -0.46662172D-06  0.10036066D-03
 -0.94093498D-04  0.95567849D-04  0.24936579D-04 -0.25301669D-04  0.36508992D-06
 -0.50329326D-04  0.71969677D-04 -0.73119992D-04 -0.12618678D-04  0.12858253D-04
 -0.23957478D-06  0.25508246D-04 -0.51967378D-04  0.52802522D-04 -0.50036196D-04
  0.50241541D-04  0.11511995D-05 -0.49365132D-04  0.51793505D-04  0.13194351D-03
  0.19947372D-03 -0.20251813D-03 -0.13539711D-03 -0.26769014D-03  0.17748543D-04
 -0.17855074D-04 -0.41081991D-06  0.17548798D-04 -0.18317750D-04 -0.41831601D-04
 -0.70794427D-04  0.71882973D-04  0.43064060D-04  0.84989413D-04
MO    2     MO 0.0        OCC NO =    2.0000300  ORB. ENERGY =    0.000000
  0.11955060D-04  0.22286639D-04  0.37667457D-04  0.56621213D-04  0.69549019D-04
  0.58696919D-04  0.22071574D-04 -0.77435137D-08 -0.57877968D-07 -0.21630318D-06
 -0.60345219D-06 -0.80845956D-06  0.95464000D-06  0.32323410D-05 -0.19922756D-04
 -0.57458445D-06  0.79678537D-04  0.74703693D-04  0.53193480D-04  0.78357090D-04
  0.73464753D-04  0.52311281D-04 -0.41837579D-06 -0.39225390D-06 -0.27930814D-06
  0.26192376D-03  0.25761480D-03 -0.38542480D-07  0.33244087D-03  0.32701767D-03
  0.73414981D-06  0.65324677D-05  0.64249309D-05  0.69909871D-08  0.46136166D-04
 -0.45142178D-04 -0.99398764D-06  0.90731050D-04 -0.36367597D-03 -0.35765998D-03
  0.13672507D-03 -0.13949125D-03  0.27661731D-05  0.27540875D-03  0.69210968D-04
  0.68314631D-04  0.29656570D-04 -0.28972235D-04 -0.68433405D-06  0.58379647D-04
 -0.47488478D-04 -0.46659009D-04  0.65383249D-04  0.65317506D-04  0.75932654D-07
  0.69747416D-04  0.65571858D-04  0.16574387D-04 -0.26589716D-03 -0.26152438D-03
 -0.16802185D-04  0.32735174D-04 -0.19866643D-04 -0.17756251D-04 -0.60142433D-07
 -0.17378571D-04 -0.22501325D-04  0.35693454D-04  0.76978502D-04  0.75770078D-04
 -0.35513027D-04  0.71118848D-04 -0.28204070D-04 -0.50867202D-04 -0.75003659D-04
  0.27096876D-03  0.79728539D-03 -0.86930128D-05  0.33429401D-05  0.51762830D-04
  0.17507781D-04  0.60472659D-04  0.20573981D-03  0.19060731D-03  0.55606362D-04
  0.12256076D-03  0.15262417D-04 -0.78156033D-04  0.30387626D-04  0.47768407D-04
  0.23363719D-04 -0.30833811D-04  0.20999545D-03 -0.31314995D-04 -0.88390925D-05
  0.40154088D-04  0.21152442D-04  0.44049690D-04  0.21570048D-04 -0.10521370D-04
 -0.18975723D-04 -0.27979693D-04  0.10773783D-03  0.29980476D-03 -0.32391033D-05
  0.18971717D-04 -0.66032525D-05  0.67611077D-05  0.11031616D-03  0.34514426D-04
  0.71806085D-04  0.77404582D-04  0.40719095D-04  0.55732916D-05  0.15399526D-04
 -0.33545012D-04  0.18145486D-04 -0.18987427D-04  0.45773986D-04 -0.78253161D-04
  0.67408735D-05 -0.22316385D-04  0.15575511D-04  0.66076690D-05  0.36929499D-04
  0.47532803D-04  0.38955730D-04  0.70258263D-04  0.10359577D-03 -0.34888245D-03
 -0.10917093D-02  0.12011279D-04  0.59956578D-04  0.35829663D-04 -0.23432327D-04
  0.23266694D-03  0.15641368D-03 -0.26074588D-03  0.13498083D-03  0.10036959D-03
 -0.21639616D-04 -0.19684107D-05  0.67129742D-04 -0.65161331D-04 -0.13234234D-03
  0.25472073D-03  0.13340312D-03  0.22097862D-04  0.31020656D-04 -0.53118518D-04
 -0.29994434D-04  0.18313604D-04  0.28574555D-04 -0.18746358D-04 -0.35072435D-04
 -0.60597388D-04 -0.98235486D-04 -0.14918001D-03 -0.20734618D-03 -0.24651872D-03
 -0.21960744D-03 -0.10906170D-03 -0.17558011D-04 -0.18524739D-06 -0.87061031D-07
 -0.29042102D-05 -0.10120591D-04 -0.36445888D-04 -0.80340424D-04 -0.11309339D-03
  0.53949232D-05  0.14800234D-03  0.87512855D-04 -0.34570236D-08 -0.41872997D-07
 -0.87321722D-07 -0.25042350D-06 -0.13004143D-07  0.10799476D-05  0.27903771D-05
 -0.22734679D-05  0.56880898D-05  0.27972799D-05  0.67107976D-06  0.82774467D+01
  0.10903334D+02  0.12028084D+02  0.99902654D+01  0.53051081D+01  0.13687456D+01
  0.81420462D+01  0.10724980D+02  0.11831331D+02  0.98268470D+01  0.52183284D+01
  0.13463560D+01 -0.58159861D-02 -0.76610143D-02 -0.84512980D-02 -0.70194647D-02
 -0.37275305D-02 -0.96172236D-03 -0.32762718D-03  0.31672887D-02  0.44662077D-02
  0.63878585D-02 -0.32347216D-04 -0.58582688D-02 -0.32226769D-03  0.31154766D-02
  0.43931473D-02  0.62833627D-02 -0.31818064D-04 -0.57624362D-02  0.19343324D-06
 -0.18699881D-05 -0.26368785D-05 -0.37714337D-05  0.19098010D-07  0.34587605D-05
  0.54648555D-01  0.53754624D-01 -0.37941688D-04 -0.45834571D-03 -0.45085090D-03
 -0.45198051D-06 -0.41282142D-04 -0.40606785D-04 -0.14972452D-07  0.82184302D-05
 -0.90957351D-05  0.87730492D-06  0.16668025D-04 -0.69990005D-03 -0.68843578D-03
 -0.29001890D-05  0.32249047D-05 -0.32471569D-06 -0.58878673D-05  0.25460591D-03
  0.25043277D-03  0.85255706D-06 -0.89546339D-06  0.42906330D-07  0.17051302D-05
 -0.43745714D-04 -0.43027510D-04  0.18340881D-05  0.16231660D-05 -0.26734759D-07
  0.17321122D-05  0.21996736D-05  0.24724276D-04 -0.72343766D-05 -0.70691716D-05
 -0.24644071D-04  0.49185130D-04  0.10450822D-04  0.10329055D-04  0.14083312D-06
  0.10449254D-04  0.10138999D-04 -0.52219226D-05 -0.41801721D-04 -0.41126164D-04
  0.47994233D-05 -0.10076883D-04 -0.60757287D-06 -0.11325169D-05 -0.19198684D-05
 -0.29069404D-05 -0.36343158D-05 -0.31261633D-05 -0.11989509D-05  0.49529493D-08
  0.65567774D-07  0.23815409D-06  0.70647961D-06  0.81407505D-06 -0.98881541D-06
  0.96526858D-07  0.23534961D-05  0.12139419D-05 -0.20775672D-03 -0.20318154D-03
 -0.13425063D-03 -0.20438026D-03 -0.19987943D-03 -0.13206879D-03  0.10331599D-05
  0.10104078D-05  0.66761913D-06 -0.63580421D-05 -0.62657615D-05  0.60259555D-06
 -0.47719567D-04 -0.46933850D-04  0.77840949D-06 -0.13892933D-04 -0.13665682D-04
  0.11663944D-06  0.50378546D-04 -0.49972682D-04 -0.40586418D-06  0.99927994D-04
 -0.92933450D-04 -0.91325473D-04 -0.25330730D-04  0.25019199D-04  0.31153078D-06
 -0.50113182D-04  0.71986946D-04  0.70764527D-04  0.12822227D-04 -0.12630094D-04
 -0.19213249D-06  0.25317179D-04 -0.52813808D-04 -0.51921960D-04 -0.51053911D-04
 -0.50703876D-04  0.97024798D-06 -0.51978995D-04 -0.49412957D-04 -0.13437768D-03
  0.20514073D-03  0.20152458D-03  0.13146693D-03 -0.26444342D-03  0.18156460D-04
  0.18002134D-04 -0.34518548D-06  0.18436138D-04  0.17621999D-04  0.42705723D-04
 -0.72905516D-04 -0.71628402D-04 -0.41670167D-04  0.83913523D-04
MO    3     MO 0.0        OCC NO =    2.0000210  ORB. ENERGY =    0.000000
 -0.14454488D-01 -0.26946078D-01 -0.45542542D-01 -0.68458935D-01 -0.84089540D-01
 -0.70968605D-01 -0.26686049D-01 -0.38141758D-05 -0.28508601D-04 -0.10654315D-03
 -0.29723880D-03 -0.39821805D-03  0.47022126D-03 -0.87197503D-03 -0.19343128D-02
 -0.82063899D-04  0.51695124D-06  0.48467465D-06  0.34511722D-06  0.53460639D-06
  0.50122747D-06  0.35690382D-06  0.11672627D-02  0.10943830D-02  0.77926587D-03
  0.18389428D-05  0.18864493D-06  0.60720002D-03  0.39149810D-05 -0.21447017D-06
 -0.37924875D-03 -0.72528183D-07  0.98534780D-09  0.46679092D-05 -0.10557177D-03
 -0.10556276D-03  0.21113453D-03 -0.44496813D-06  0.66365541D-06  0.27691723D-06
 -0.24094567D-04 -0.24038188D-04  0.48132755D-04 -0.55151894D-06 -0.11492697D-05
  0.76019816D-07  0.11425962D-04  0.11431359D-04 -0.22857321D-04  0.68046050D-06
  0.52200287D-06 -0.28980884D-07 -0.23720906D-06  0.36267092D-04  0.77242699D-05
  0.11974099D-05 -0.10883385D-03 -0.11530797D-04 -0.48578268D-06  0.32572567D-07
 -0.11642013D-04  0.64093692D-06 -0.55507629D-06  0.51872666D-04 -0.85674394D-04
  0.14934564D-05 -0.15539073D-03  0.12857989D-03  0.17177247D-06 -0.22726338D-06
  0.12844329D-03  0.34172869D-07 -0.48381379D-05 -0.87257809D-05 -0.12866159D-04
  0.75257733D-03  0.23578744D-03  0.50608184D-05 -0.32896494D-06  0.95842033D-04
  0.28409635D-04  0.65748647D-05  0.19927401D-03 -0.42631205D-05  0.15389250D-05
  0.44013208D-04  0.38736217D-04 -0.73885364D-04  0.54223854D-04  0.19661509D-04
  0.41059514D-05  0.24271237D-05  0.75975094D-04 -0.96428985D-05 -0.12049319D-04
  0.21692218D-04  0.56708598D-06 -0.34336398D-06 -0.34557797D-04 -0.49338249D-05
 -0.88983564D-05 -0.13120621D-04  0.75473546D-03  0.24292555D-03  0.49651593D-05
  0.82969405D-04 -0.48628971D-04  0.28344523D-04  0.17428055D-03 -0.97971588D-04
 -0.43263604D-05  0.39266169D-04 -0.22024131D-04  0.39429408D-04  0.22614212D-04
 -0.42261655D-04  0.19647443D-04 -0.11073459D-03  0.66181645D-04 -0.37164478D-04
 -0.11349654D-04 -0.10433653D-04  0.21783307D-04  0.21654112D-05 -0.30083009D-04
  0.17393811D-04 -0.47227531D-05 -0.85176797D-05 -0.12559314D-04  0.75072441D-03
  0.22901950D-03  0.51658157D-05 -0.83051479D-04 -0.47202996D-04  0.28642854D-04
 -0.17100480D-03 -0.10139989D-03 -0.39494237D-05 -0.36983481D-04 -0.21981859D-04
  0.38098553D-04  0.21749113D-04 -0.41552436D-04  0.19803323D-04  0.11115493D-03
 -0.65609369D-04 -0.38772285D-04 -0.11519432D-04 -0.10041884D-04  0.21561316D-04
 -0.19096756D-05  0.29834777D-04  0.17251461D-04 -0.15460198D+00 -0.28924381D+00
 -0.49974914D+00 -0.81015208D+00 -0.12302937D+01 -0.17099925D+01 -0.20330500D+01
 -0.18111116D+01 -0.89943631D+00 -0.14480164D+00 -0.15277428D-02 -0.72283918D-03
 -0.24112705D-01 -0.84027950D-01 -0.30259825D+00 -0.66704019D+00 -0.93897730D+00
  0.44792277D-01  0.12288149D+01  0.72659053D+00 -0.15531683D-04 -0.18812661D-03
 -0.39231821D-03 -0.11251003D-02 -0.58424894D-04  0.48519783D-02  0.12536580D-01
 -0.10214215D-01  0.46599857D-01 -0.38426336D-03 -0.13194751D-03  0.18726289D-03
  0.24666904D-03  0.27211456D-03  0.22601245D-03  0.12001888D-03  0.30965499D-04
  0.26096837D-02  0.34375639D-02  0.37921711D-02  0.31496950D-02  0.16725755D-02
  0.43153321D-03  0.59414572D+01  0.78262891D+01  0.86336219D+01  0.71708990D+01
  0.38079464D+01  0.98247006D+00 -0.19429024D-07  0.18782731D-06  0.26485611D-06
  0.37881430D-06 -0.19182623D-08 -0.34740844D-06 -0.92532189D-07  0.89454167D-06
  0.12613971D-05  0.18041316D-05 -0.91358684D-08 -0.16545588D-05 -0.21079978D-03
  0.20378766D-02  0.28736188D-02  0.41100350D-02 -0.20812639D-04 -0.37692898D-02
  0.19984149D-05  0.18286844D-04  0.41654446D-01 -0.30515555D-06 -0.21136683D-06
 -0.48396920D-03  0.42377202D-07 -0.43762461D-08 -0.98426089D-05 -0.71257514D-05
 -0.71296003D-05  0.14255352D-04  0.15575003D-06 -0.69656711D-06  0.19598724D-07
 -0.11142638D-03 -0.11142581D-03  0.22285219D-03 -0.57088562D-07  0.62215383D-06
  0.28870994D-06 -0.14325496D-04 -0.14324987D-04  0.28650483D-04 -0.55050619D-07
  0.67326453D-07  0.36747795D-07  0.57263226D-07 -0.72119007D-05  0.54414960D-05
 -0.22793341D-06  0.21622156D-04 -0.81771610D-05  0.56143729D-07  0.13546439D-07
 -0.81473269D-05 -0.68172707D-06  0.19998043D-07  0.20724479D-05 -0.33741280D-04
  0.10115649D-06 -0.61305744D-05  0.50616573D-04 -0.16115062D-06 -0.86769495D-07
  0.50607267D-04  0.26680123D-06 -0.87947604D-03 -0.16393449D-02 -0.27790548D-02
 -0.42078647D-02 -0.52607577D-02 -0.45251950D-02 -0.17355097D-02 -0.68426497D-06
 -0.90583869D-05 -0.32901709D-04 -0.97602301D-04 -0.11246694D-03  0.13660785D-03
 -0.95966739D-04 -0.15941524D-03  0.12430628D-04  0.28699099D-06  0.28067092D-06
  0.18545114D-06  0.17849450D-05  0.17456372D-05  0.11534163D-05  0.39019014D-02
  0.38159744D-02  0.25213756D-02 -0.50361861D-06  0.40317491D-06  0.87919822D-03
  0.18901669D-06  0.95817477D-08  0.21376361D-04  0.46516159D-07  0.41986980D-08
  0.93392625D-05 -0.35645597D-04 -0.35641799D-04  0.71287396D-04 -0.37633706D-06
  0.11273897D-05  0.97671414D-07  0.21096999D-04  0.21094834D-04 -0.42191833D-04
  0.18234245D-06 -0.51877220D-06 -0.56768416D-07  0.18118324D-04  0.18119516D-04
 -0.36237840D-04 -0.10039974D-06  0.60817832D-07 -0.50675074D-07 -0.26186259D-06
 -0.30030163D-05  0.46414302D-04 -0.37820284D-06  0.88695955D-05 -0.69613563D-04
  0.11637906D-05  0.13945355D-06 -0.69629343D-04  0.16679316D-05  0.10006468D-06
  0.95388837D-06 -0.25392563D-04  0.13675272D-06 -0.27880582D-05  0.38086585D-04
 -0.43694676D-06 -0.73606870D-07  0.38091105D-04 -0.49298736D-06
MO    4     MO 0.0        OCC NO =    2.0000123  ORB. ENERGY =    0.000000
  0.26822057D-01  0.50001717D-01  0.84509714D-01  0.12703386D+00  0.15603835D+00
  0.13169086D+00  0.49519202D-01 -0.14576589D-05 -0.10895097D-04 -0.40717466D-04
 -0.11359539D-03 -0.15218650D-03  0.17970389D-03  0.26459433D-02 -0.36106650D-02
 -0.42274877D-04  0.11538267D-05  0.10817859D-05  0.77029600D-06  0.15601784D-05
  0.14627664D-05  0.10415768D-05  0.36696843D-02  0.34405623D-02  0.24498853D-02
  0.25704504D-06  0.46947482D-06  0.13052661D-02  0.44908166D-05 -0.26969557D-06
 -0.41708279D-03 -0.70654114D-07  0.89116616D-09  0.37027238D-05 -0.31920003D-03
 -0.31921799D-03  0.63841802D-03  0.35354583D-06  0.13977953D-05  0.83470083D-06
  0.95627067D-05  0.96744097D-05 -0.19237116D-04 -0.49093886D-05 -0.15317148D-05
 -0.76150229D-08 -0.17872367D-04 -0.17848838D-04  0.35721205D-04 -0.42987912D-06
  0.62767220D-06  0.46035252D-07  0.45927357D-06 -0.42193304D-04  0.22570699D-04
 -0.12078041D-05  0.12651834D-03 -0.33906720D-04 -0.17001661D-06  0.61568714D-07
 -0.33805376D-04  0.39063950D-06 -0.91969218D-06  0.82066929D-04 -0.16374487D-03
  0.23209635D-05 -0.24576737D-03  0.24573276D-03  0.43811309D-06 -0.43341443D-06
  0.24550186D-03  0.14972172D-05 -0.90316520D-04 -0.16288956D-03 -0.24018057D-03
  0.10227851D-02  0.68404667D-03  0.42651354D-05 -0.27002590D-05 -0.57756885D-04
  0.33525646D-04  0.78645476D-05  0.30459206D-03 -0.43260315D-04  0.12396301D-05
  0.11101989D-03  0.75807568D-04 -0.14236550D-03  0.24253774D-04  0.11811173D-03
  0.22236541D-05  0.39911268D-05  0.14259660D-03 -0.14779269D-04 -0.21042687D-04
  0.35821956D-04  0.20107543D-06 -0.17725244D-06 -0.62800338D-04 -0.90285840D-04
 -0.16283423D-03 -0.24009898D-03  0.10224727D-02  0.68805378D-03  0.41909359D-05
 -0.50327909D-04  0.27840402D-04  0.33134375D-04  0.26446560D-03 -0.14993430D-03
 -0.42805041D-04  0.96895935D-04 -0.55849678D-04  0.76540456D-04 -0.17579278D-04
 -0.10061806D-03  0.11819734D-03 -0.14481646D-03  0.12401129D-03 -0.69880859D-04
 -0.19509911D-04 -0.16452712D-04  0.35962623D-04  0.55562038D-05 -0.54479329D-04
  0.31755736D-04 -0.90346370D-04 -0.16294340D-03 -0.24025995D-03  0.10235083D-02
  0.68069511D-03  0.43484481D-05  0.49707696D-04  0.29941679D-04  0.33917021D-04
 -0.26325504D-03 -0.15484245D-03 -0.43326760D-04 -0.95394465D-04 -0.55148426D-04
  0.75236465D-04 -0.17310378D-04 -0.10092644D-03  0.11823682D-03  0.14367578D-03
 -0.12307581D-03 -0.72324453D-04 -0.19406386D-04 -0.16202383D-04  0.35608769D-04
 -0.51626463D-05  0.54389993D-04  0.31191010D-04  0.91314838D-01  0.17084032D+00
  0.29517418D+00  0.47851202D+00  0.72666642D+00  0.10099980D+01  0.12008102D+01
  0.10697234D+01  0.53124728D+00  0.85526317D-01  0.90235316D-03  0.42753479D-03
  0.14261845D-01  0.49699674D-01  0.17897657D+00  0.39453158D+00  0.55537313D+00
 -0.26493109D-01 -0.72680219D+00 -0.42975359D+00  0.62780493D-05  0.76042508D-04
  0.15857863D-03  0.45477592D-03  0.23615880D-04 -0.19612143D-02 -0.50674011D-02
  0.41286799D-02 -0.28545437D-01  0.14182893D-02 -0.18171967D-03  0.35595463D-02
  0.46887551D-02  0.51724309D-02  0.42961088D-02  0.22813530D-02  0.58860100D-03
  0.42807287D-02  0.56387211D-02  0.62203921D-02  0.51665227D-02  0.27435669D-02
  0.70785460D-03  0.99146192D+01  0.13059873D+02  0.14407084D+02  0.11966211D+02
  0.63543903D+01  0.16394659D+01 -0.14113446D-06  0.13643972D-05  0.19239424D-05
  0.27517466D-05 -0.13934458D-07 -0.25236112D-05 -0.14527820D-06  0.14044562D-05
  0.19804298D-05  0.28325385D-05 -0.14343576D-07 -0.25977050D-05 -0.33686861D-03
  0.32566290D-02  0.45921868D-02  0.65680419D-02 -0.33259640D-04 -0.60235139D-02
  0.26588677D-04  0.31324579D-04  0.72557217D-01 -0.35669751D-06 -0.13294944D-06
 -0.30643098D-03  0.46157897D-07 -0.18808515D-08 -0.39579640D-05  0.45444377D-03
  0.45444312D-03 -0.90888689D-03 -0.75441384D-07 -0.20731159D-05 -0.11705217D-05
 -0.30967299D-03 -0.30967297D-03  0.61934595D-03 -0.49085809D-07  0.13153056D-05
  0.79921579D-06  0.43303031D-05  0.43306812D-05 -0.86609844D-05 -0.32220168D-07
  0.11488869D-07 -0.11044323D-07  0.15705600D-06 -0.14491225D-04 -0.46953818D-04
 -0.41731224D-06  0.43596367D-04  0.70404283D-04 -0.53855746D-07 -0.12269223D-06
  0.70457170D-04 -0.91890263D-06  0.28051073D-07  0.42120232D-05 -0.62584287D-04
  0.19310172D-06 -0.12474767D-04  0.93884803D-04 -0.27725493D-06 -0.16130217D-06
  0.93868056D-04  0.41047314D-06 -0.63569114D-02 -0.11849294D-01 -0.20087193D-01