 clch3f_ts-wavefunction
GAUSSIAN            211 MOL ORBITALS    339 PRIMITIVES        6 NUCLEI
  C    1    (CENTRE  1)   0.00033070  0.00005480 -0.94053370  CHARGE =  6.0
  H    2    (CENTRE  2)   0.00003590 -1.98906904 -1.19189940  CHARGE =  1.0
  H    3    (CENTRE  3)  -1.72213010  0.99468570 -1.17398291  CHARGE =  1.0
  H    4    (CENTRE  4)   1.72295780  0.99424539 -1.17459707  CHARGE =  1.0
  Cl   5    (CENTRE  5)   0.00104880  0.00181792  3.10806659  CHARGE = 17.0
  F    6    (CENTRE  6)  -0.00035149 -0.00174044 -4.90094425  CHARGE =  9.0
CENTRE ASSIGNMENTS    1  1  1  1  1  1  1  1  1  1  1  1  1  1  1  1  1  1  1  1
CENTRE ASSIGNMENTS    1  1  1  1  1  1  1  1  1  1  1  1  1  1  1  1  1  1  1  1
CENTRE ASSIGNMENTS    1  1  1  1  1  1  1  1  1  1  1  1  1  1  1  1  1  1  1  1
CENTRE ASSIGNMENTS    1  1  1  1  1  1  1  1  1  1  1  1  2  2  2  2  2  2  2  2
CENTRE ASSIGNMENTS    2  2  2  2  2  2  2  2  2  2  2  2  2  2  2  2  2  2  2  3
CENTRE ASSIGNMENTS    3  3  3  3  3  3  3  3  3  3  3  3  3  3  3  3  3  3  3  3
CENTRE ASSIGNMENTS    3  3  3  3  3  3  4  4  4  4  4  4  4  4  4  4  4  4  4  4
CENTRE ASSIGNMENTS    4  4  4  4  4  4  4  4  4  4  4  4  4  5  5  5  5  5  5  5
CENTRE ASSIGNMENTS    5  5  5  5  5  5  5  5  5  5  5  5  5  5  5  5  5  5  5  5
CENTRE ASSIGNMENTS    5  5  5  5  5  5  5  5  5  5  5  5  5  5  5  5  5  5  5  5
CENTRE ASSIGNMENTS    5  5  5  5  5  5  5  5  5  5  5  5  5  5  5  5  5  5  5  5
CENTRE ASSIGNMENTS    5  5  5  5  5  5  5  5  5  5  5  5  5  5  5  5  5  5  5  5
CENTRE ASSIGNMENTS    5  5  5  5  5  5  5  5  5  5  5  5  5  5  5  5  5  5  5  5
CENTRE ASSIGNMENTS    5  5  5  5  5  5  5  6  6  6  6  6  6  6  6  6  6  6  6  6
CENTRE ASSIGNMENTS    6  6  6  6  6  6  6  6  6  6  6  6  6  6  6  6  6  6  6  6
CENTRE ASSIGNMENTS    6  6  6  6  6  6  6  6  6  6  6  6  6  6  6  6  6  6  6  6
CENTRE ASSIGNMENTS    6  6  6  6  6  6  6  6  6  6  6  6  6  6  6  6  6  6  6
TYPE ASSIGNMENTS      1  1  1  1  1  1  1  1  1  1  1  1  1  1  1  1  2  2  2  3
TYPE ASSIGNMENTS      3  3  4  4  4  2  3  4  2  3  4  2  3  4  5  6  7  8  9 10
TYPE ASSIGNMENTS      5  6  7  8  9 10  5  6  7  8  9 10 11 12 13 17 14 15 18 19
TYPE ASSIGNMENTS     16 20 11 12 13 17 14 15 18 19 16 20  1  1  1  1  1  1  2  3
TYPE ASSIGNMENTS      4  2  3  4  2  3  4  5  6  7  8  9 10  5  6  7  8  9 10  1
TYPE ASSIGNMENTS      1  1  1  1  1  2  3  4  2  3  4  2  3  4  5  6  7  8  9 10
TYPE ASSIGNMENTS      5  6  7  8  9 10  1  1  1  1  1  1  2  3  4  2  3  4  2  3
TYPE ASSIGNMENTS      4  5  6  7  8  9 10  5  6  7  8  9 10  1  1  1  1  1  1  1
TYPE ASSIGNMENTS      1  1  1  1  1  1  1  1  1  1  1  1  1  1  1  1  1  1  1  1
TYPE ASSIGNMENTS      1  1  1  1  2  2  2  2  2  2  3  3  3  3  3  3  4  4  4  4
TYPE ASSIGNMENTS      4  4  2  2  2  2  2  2  3  3  3  3  3  3  4  4  4  4  4  4
TYPE ASSIGNMENTS      2  3  4  2  3  4  2  3  4  5  6  7  8  9 10  5  6  7  8  9
TYPE ASSIGNMENTS     10  5  6  7  8  9 10 11 12 13 17 14 15 18 19 16 20 11 12 13
TYPE ASSIGNMENTS     17 14 15 18 19 16 20  1  1  1  1  1  1  1  1  1  1  1  1  1
TYPE ASSIGNMENTS      1  1  1  2  2  2  3  3  3  4  4  4  2  3  4  2  3  4  2  3
TYPE ASSIGNMENTS      4  5  6  7  8  9 10  5  6  7  8  9 10  5  6  7  8  9 10 11
TYPE ASSIGNMENTS     12 13 17 14 15 18 19 16 20 11 12 13 17 14 15 18 19 16 20
EXPONENTS  0.8236000D+04 0.1235000D+04 0.2808000D+03 0.7927000D+02 0.2559000D+02
EXPONENTS  0.8997000D+01 0.3319000D+01 0.2808000D+03 0.7927000D+02 0.2559000D+02
EXPONENTS  0.8997000D+01 0.3319000D+01 0.3643000D+00 0.9059000D+00 0.1285000D+00
EXPONENTS  0.4402000D-01 0.1871000D+02 0.4133000D+01 0.1200000D+01 0.1871000D+02
EXPONENTS  0.4133000D+01 0.1200000D+01 0.1871000D+02 0.4133000D+01 0.1200000D+01
EXPONENTS  0.3827000D+00 0.3827000D+00 0.3827000D+00 0.1209000D+00 0.1209000D+00
EXPONENTS  0.1209000D+00 0.3569000D-01 0.3569000D-01 0.3569000D-01 0.1097000D+01
EXPONENTS  0.1097000D+01 0.1097000D+01 0.1097000D+01 0.1097000D+01 0.1097000D+01
EXPONENTS  0.3180000D+00 0.3180000D+00 0.3180000D+00 0.3180000D+00 0.3180000D+00
EXPONENTS  0.3180000D+00 0.1000000D+00 0.1000000D+00 0.1000000D+00 0.1000000D+00
EXPONENTS  0.1000000D+00 0.1000000D+00 0.7610000D+00 0.7610000D+00 0.7610000D+00
EXPONENTS  0.7610000D+00 0.7610000D+00 0.7610000D+00 0.7610000D+00 0.7610000D+00
EXPONENTS  0.7610000D+00 0.7610000D+00 0.2680000D+00 0.2680000D+00 0.2680000D+00
EXPONENTS  0.2680000D+00 0.2680000D+00 0.2680000D+00 0.2680000D+00 0.2680000D+00
EXPONENTS  0.2680000D+00 0.2680000D+00 0.3387000D+02 0.5095000D+01 0.1159000D+01
EXPONENTS  0.3258000D+00 0.1027000D+00 0.2526000D-01 0.1407000D+01 0.1407000D+01
EXPONENTS  0.1407000D+01 0.3880000D+00 0.3880000D+00 0.3880000D+00 0.1020000D+00
EXPONENTS  0.1020000D+00 0.1020000D+00 0.1057000D+01 0.1057000D+01 0.1057000D+01
EXPONENTS  0.1057000D+01 0.1057000D+01 0.1057000D+01 0.2470000D+00 0.2470000D+00
EXPONENTS  0.2470000D+00 0.2470000D+00 0.2470000D+00 0.2470000D+00 0.3387000D+02
EXPONENTS  0.5095000D+01 0.1159000D+01 0.3258000D+00 0.1027000D+00 0.2526000D-01
EXPONENTS  0.1407000D+01 0.1407000D+01 0.1407000D+01 0.3880000D+00 0.3880000D+00
EXPONENTS  0.3880000D+00 0.1020000D+00 0.1020000D+00 0.1020000D+00 0.1057000D+01
EXPONENTS  0.1057000D+01 0.1057000D+01 0.1057000D+01 0.1057000D+01 0.1057000D+01
EXPONENTS  0.2470000D+00 0.2470000D+00 0.2470000D+00 0.2470000D+00 0.2470000D+00
EXPONENTS  0.2470000D+00 0.3387000D+02 0.5095000D+01 0.1159000D+01 0.3258000D+00
EXPONENTS  0.1027000D+00 0.2526000D-01 0.1407000D+01 0.1407000D+01 0.1407000D+01
EXPONENTS  0.3880000D+00 0.3880000D+00 0.3880000D+00 0.1020000D+00 0.1020000D+00
EXPONENTS  0.1020000D+00 0.1057000D+01 0.1057000D+01 0.1057000D+01 0.1057000D+01
EXPONENTS  0.1057000D+01 0.1057000D+01 0.2470000D+00 0.2470000D+00 0.2470000D+00
EXPONENTS  0.2470000D+00 0.2470000D+00 0.2470000D+00 0.4561000D+06 0.6833000D+05
EXPONENTS  0.1555000D+05 0.4405000D+04 0.1439000D+04 0.5204000D+03 0.2031000D+03
EXPONENTS  0.8396000D+02 0.3620000D+02 0.1583000D+02 0.6334000D+01 0.4405000D+04
EXPONENTS  0.1439000D+04 0.5204000D+03 0.2031000D+03 0.8396000D+02 0.3620000D+02
EXPONENTS  0.1583000D+02 0.6334000D+01 0.2694000D+01 0.1439000D+04 0.2031000D+03
EXPONENTS  0.8396000D+02 0.3620000D+02 0.1583000D+02 0.6334000D+01 0.2694000D+01
EXPONENTS  0.4313000D+00 0.9768000D+00 0.1625000D+00 0.5910000D-01 0.6633000D+03
EXPONENTS  0.1568000D+03 0.4998000D+02 0.1842000D+02 0.7240000D+01 0.2922000D+01
EXPONENTS  0.6633000D+03 0.1568000D+03 0.4998000D+02 0.1842000D+02 0.7240000D+01
EXPONENTS  0.2922000D+01 0.6633000D+03 0.1568000D+03 0.4998000D+02 0.1842000D+02
EXPONENTS  0.7240000D+01 0.2922000D+01 0.1568000D+03 0.4998000D+02 0.1842000D+02
EXPONENTS  0.7240000D+01 0.2922000D+01 0.3818000D+00 0.1568000D+03 0.4998000D+02
EXPONENTS  0.1842000D+02 0.7240000D+01 0.2922000D+01 0.3818000D+00 0.1568000D+03
EXPONENTS  0.4998000D+02 0.1842000D+02 0.7240000D+01 0.2922000D+01 0.3818000D+00
EXPONENTS  0.1022000D+01 0.1022000D+01 0.1022000D+01 0.1301000D+00 0.1301000D+00
EXPONENTS  0.1301000D+00 0.4190000D-01 0.4190000D-01 0.4190000D-01 0.1046000D+01
EXPONENTS  0.1046000D+01 0.1046000D+01 0.1046000D+01 0.1046000D+01 0.1046000D+01
EXPONENTS  0.3440000D+00 0.3440000D+00 0.3440000D+00 0.3440000D+00 0.3440000D+00
EXPONENTS  0.3440000D+00 0.1350000D+00 0.1350000D+00 0.1350000D+00 0.1350000D+00
EXPONENTS  0.1350000D+00 0.1350000D+00 0.7060000D+00 0.7060000D+00 0.7060000D+00
EXPONENTS  0.7060000D+00 0.7060000D+00 0.7060000D+00 0.7060000D+00 0.7060000D+00
EXPONENTS  0.7060000D+00 0.7060000D+00 0.3120000D+00 0.3120000D+00 0.3120000D+00
EXPONENTS  0.3120000D+00 0.3120000D+00 0.3120000D+00 0.3120000D+00 0.3120000D+00
EXPONENTS  0.3120000D+00 0.3120000D+00 0.1950000D+05 0.2923000D+04 0.6645000D+03
EXPONENTS  0.1875000D+03 0.6062000D+02 0.2142000D+02 0.7950000D+01 0.6645000D+03
EXPONENTS  0.1875000D+03 0.6062000D+02 0.2142000D+02 0.7950000D+01 0.8815000D+00
EXPONENTS  0.2257000D+01 0.3041000D+00 0.9158000D-01 0.4388000D+02 0.9926000D+01
EXPONENTS  0.2930000D+01 0.4388000D+02 0.9926000D+01 0.2930000D+01 0.4388000D+02
EXPONENTS  0.9926000D+01 0.2930000D+01 0.9132000D+00 0.9132000D+00 0.9132000D+00
EXPONENTS  0.2672000D+00 0.2672000D+00 0.2672000D+00 0.7361000D-01 0.7361000D-01
EXPONENTS  0.7361000D-01 0.3107000D+01 0.3107000D+01 0.3107000D+01 0.3107000D+01
EXPONENTS  0.3107000D+01 0.3107000D+01 0.8550000D+00 0.8550000D+00 0.8550000D+00
EXPONENTS  0.8550000D+00 0.8550000D+00 0.8550000D+00 0.2920000D+00 0.2920000D+00
EXPONENTS  0.2920000D+00 0.2920000D+00 0.2920000D+00 0.2920000D+00 0.1917000D+01
EXPONENTS  0.1917000D+01 0.1917000D+01 0.1917000D+01 0.1917000D+01 0.1917000D+01
EXPONENTS  0.1917000D+01 0.1917000D+01 0.1917000D+01 0.1917000D+01 0.7240000D+00
EXPONENTS  0.7240000D+00 0.7240000D+00 0.7240000D+00 0.7240000D+00 0.7240000D+00
EXPONENTS  0.7240000D+00 0.7240000D+00 0.7240000D+00 0.7240000D+00
MO    1     MO 0.0        OCC NO =    2.0000300  ORB. ENERGY =    0.000000
 -0.33307315D-09 -0.62091545D-09 -0.10494317D-08 -0.15774916D-08 -0.19376659D-08
 -0.16353216D-08 -0.61492364D-09  0.14316582D-11  0.10700758D-10  0.39991176D-10
  0.11156915D-09  0.14947191D-09 -0.17649845D-09 -0.42605164D-09  0.90183576D-08
  0.23047936D-08  0.11174482D-03  0.10476787D-03  0.74600963D-04 -0.14782103D-07
 -0.13859161D-07 -0.98685481D-08 -0.21812266D-07 -0.20450386D-07 -0.14561893D-07
  0.36058132D-03 -0.47673280D-07 -0.61327363D-07  0.46147954D-03 -0.61396735D-07
 -0.85474931D-07  0.94199293D-05 -0.12762549D-08 -0.17063232D-08 -0.74073726D-07
 -0.15501354D-07  0.89575081D-07  0.12968782D-03 -0.50978066D-03  0.43820832D-07
  0.65482767D-07 -0.46819478D-07 -0.18663289D-07  0.38347271D-03  0.98663135D-04
 -0.80036971D-07 -0.20286294D-08 -0.10332479D-07  0.12361109D-07  0.80930203D-04
 -0.66349905D-04 -0.52632364D-08  0.93133754D-04 -0.12693782D-07  0.66637014D-07
  0.92638158D-04 -0.38026507D-08 -0.17556582D-06 -0.37203942D-03  0.41883997D-07
 -0.24345222D-07  0.47656414D-04 -0.26934537D-04  0.33717880D-08 -0.19728937D-07
 -0.27208409D-04  0.23181422D-07  0.66200132D-07  0.10801202D-03 -0.33296786D-07
 -0.70133200D-08  0.10304881D-03  0.39615434D-09  0.71448067D-09  0.10535013D-08
 -0.75964431D-08 -0.60880628D-08 -0.14048227D-09  0.61873325D-05 -0.21556127D-08
 -0.14028188D-08  0.80514267D-04 -0.13404991D-07 -0.15581708D-07  0.73747493D-04
 -0.10086298D-07 -0.12839571D-07 -0.21343015D-08 -0.47470310D-08  0.68813325D-08
  0.30616162D-04 -0.42934616D-04 -0.33930432D-09  0.15188463D-07 -0.31174084D-08
 -0.12071055D-07  0.27720183D-04  0.63361857D-04 -0.13420374D-07 -0.34770687D-04
 -0.62710367D-04 -0.92466399D-04  0.31320298D-03  0.96765287D-03 -0.10332685D-04
  0.55055709D-04 -0.28566623D-04  0.20542468D-04  0.23488662D-03 -0.89297745D-04
  0.23559805D-03  0.14710846D-03 -0.42307326D-04  0.18986320D-04  0.98943701D-05
 -0.68664460D-04  0.58770090D-04 -0.10764140D-03  0.21172081D-03 -0.14914826D-03
 -0.11277149D-04 -0.36971819D-04  0.48248967D-04 -0.16454928D-04  0.39034120D-04
  0.13383218D-04  0.34770539D-04  0.62710099D-04  0.92466004D-04 -0.31321036D-03
 -0.96764939D-03  0.10332527D-04  0.55055987D-04  0.28552767D-04 -0.20561377D-04
  0.23482587D-03  0.89236599D-04 -0.23568360D-03  0.14711225D-03  0.42268884D-04
 -0.19038953D-04 -0.98462106D-05  0.68691768D-04 -0.58845557D-04 -0.10754714D-03
  0.21172460D-03  0.14913190D-03  0.11286990D-04  0.36976404D-04 -0.48263394D-04
 -0.16446222D-04  0.38989620D-04 -0.13387960D-04 -0.32342079D-07 -0.60508578D-07
 -0.10454540D-06 -0.16948038D-06 -0.25737222D-06 -0.35772317D-06 -0.42530544D-06
 -0.37887687D-06 -0.18815826D-06 -0.30291889D-07 -0.31959732D-09 -0.15177914D-09
 -0.50630980D-08 -0.17643883D-07 -0.63538480D-07 -0.14006267D-06 -0.19716304D-06
  0.94053194D-08  0.25802207D-06  0.15256684D-06 -0.29509041D-11 -0.35742655D-10
 -0.74537539D-10 -0.21376069D-09 -0.11100295D-10  0.92183975D-09  0.23818569D-08
 -0.19406249D-08  0.89031520D-08 -0.58450951D-09 -0.54893989D-09  0.11610774D+02
  0.15294105D+02  0.16871792D+02  0.14013344D+02  0.74414746D+01  0.19199393D+01
 -0.15246116D-02 -0.20082701D-02 -0.22154363D-02 -0.18400933D-02 -0.97714062D-03
 -0.25210739D-03 -0.20603767D-02 -0.27139981D-02 -0.29939647D-02 -0.24867221D-02
 -0.13205184D-02 -0.34070066D-03 -0.45965053D-03  0.44436056D-02  0.62659477D-02
  0.89619628D-02 -0.45382118D-04 -0.82189652D-02  0.60393980D-07 -0.58385014D-06
 -0.82328964D-06 -0.11775220D-05  0.59628055D-08  0.10798987D-05  0.81495580D-07
 -0.78784683D-06 -0.11109463D-05 -0.15889470D-05  0.80462042D-08  0.14572143D-05
  0.76646697D-01 -0.10065360D-04 -0.13600104D-04 -0.64341528D-03  0.84234803D-07
  0.11391700D-06 -0.57914081D-04  0.75949653D-08  0.10338886D-07 -0.17163235D-06
 -0.28349067D-08  0.17446725D-06  0.22875693D-04 -0.98405976D-03  0.12608396D-06
  0.61985098D-07  0.82458541D-09 -0.62809684D-07 -0.86117983D-05  0.35690324D-03
 -0.45994890D-07 -0.10605426D-07 -0.37687643D-09  0.10982303D-07  0.23513802D-05
 -0.61374451D-04  0.77786018D-08  0.25633748D-05 -0.31457665D-09  0.16483406D-08
  0.20625711D-05  0.11753248D-07  0.40311189D-08 -0.97526956D-05 -0.10809518D-07
 -0.89761408D-08  0.69350311D-04  0.14630118D-04 -0.19841437D-08  0.10322316D-07
  0.14857778D-04 -0.43323979D-08 -0.30250282D-07 -0.58748132D-04  0.10284829D-07
 -0.71666562D-09 -0.13843862D-04  0.51555918D-08  0.96100320D-08  0.16291145D-07
  0.24666997D-07  0.30839179D-07  0.26527224D-07  0.10173762D-07 -0.12688672D-10
 -0.16797426D-09 -0.61011308D-09 -0.18098890D-08 -0.20855315D-08  0.25331886D-08
  0.12385797D-09 -0.44291392D-08 -0.41650739D-08 -0.29091681D-03 -0.28451029D-03
 -0.18798797D-03  0.38428057D-07  0.37581801D-07  0.24831885D-07  0.47444261D-07
  0.46399451D-07  0.30658079D-07 -0.88489194D-05 -0.98600600D-10  0.31244533D-08
 -0.66778983D-04  0.98985618D-08  0.70900078D-08 -0.19614037D-04  0.26031072D-08
  0.29281820D-08 -0.59287438D-08 -0.18627150D-07  0.24555893D-07  0.14128023D-03
 -0.13115171D-03 -0.74369828D-08  0.89540524D-08  0.93003794D-08 -0.18254432D-07
 -0.70887628D-04  0.10123479D-03 -0.11843519D-08 -0.78078837D-08 -0.42499612D-08
  0.12057845D-07  0.35948694D-04 -0.73929530D-04  0.43992913D-08 -0.70927087D-04
  0.11101050D-07 -0.48810872D-07 -0.73370470D-04 -0.56474431D-07  0.86216427D-07
  0.28615173D-03  0.23171280D-07  0.60216189D-07 -0.37589424D-03  0.25232418D-04
 -0.39431548D-08  0.17122350D-07  0.25964357D-04  0.17526101D-07 -0.32085948D-07
 -0.10166161D-03 -0.56966363D-08 -0.19281103D-07  0.11938274D-03
MO    2     MO 0.0        OCC NO =    2.0000300  ORB. ENERGY =    0.000000
 -0.55453901D-04 -0.10337724D-03 -0.17472162D-03 -0.26263919D-03 -0.32260520D-03
 -0.27226741D-03 -0.10237966D-03  0.16261517D-07  0.12154476D-06  0.45424053D-06
  0.12672604D-05  0.16977795D-05 -0.20047610D-05 -0.84689133D-05  0.32169456D-04
  0.10859279D-05  0.12922453D-07  0.12115621D-07  0.86270440D-08  0.10780169D-03
  0.10107093D-03  0.71968527D-04 -0.62311838D-05 -0.58421309D-05 -0.41599452D-05
  0.46633193D-07  0.35885260D-03 -0.11230452D-05  0.60761205D-07  0.45978065D-03
  0.66111871D-05  0.12057726D-08  0.94407089D-05  0.32977991D-07  0.65858293D-04
 -0.65421470D-04 -0.43682341D-06 -0.12371530D-06 -0.90689962D-07 -0.51091864D-03
  0.19211318D-03 -0.19019305D-03 -0.19201241D-05 -0.79582948D-07 -0.56021054D-07
  0.91056032D-04  0.40424644D-04 -0.40423977D-04 -0.66726426D-09 -0.32151775D-07
 -0.22822585D-07 -0.67475151D-04  0.16592779D-07  0.92387336D-04 -0.13138903D-05
  0.68737156D-08  0.93211283D-04  0.24875898D-04 -0.56652053D-07 -0.37037329D-03
 -0.20934227D-04 -0.17387870D-06  0.57061641D-08 -0.27633129D-04  0.58576979D-06
 -0.13477922D-07 -0.23518816D-04  0.48181129D-04 -0.36405699D-08  0.10641820D-03
 -0.49938439D-04  0.21384771D-07 -0.41168301D-04 -0.74248727D-04 -0.10947970D-03
  0.34723035D-03  0.11107101D-02 -0.11822409D-04  0.12465449D-07  0.68079168D-04
  0.21724003D-04  0.82800083D-07  0.28353480D-03  0.26376867D-03  0.25609359D-07
  0.17072537D-03  0.21207417D-04 -0.10937034D-03  0.43130369D-04  0.66239966D-04
  0.91331206D-07  0.98886818D-07  0.29619402D-03 -0.43090858D-04 -0.11892264D-04
  0.54983122D-04  0.13424253D-07  0.38564921D-07  0.30702221D-04  0.20054175D-04
  0.36168531D-04  0.53330478D-04 -0.19291280D-03 -0.56228227D-03  0.58298286D-05
 -0.29239766D-04  0.21922938D-04 -0.12357616D-04 -0.90694673D-04  0.13316355D-03
 -0.13403570D-03 -0.42913039D-04  0.98472785D-04 -0.10932797D-04  0.90057534D-05
  0.25449096D-04 -0.34454850D-04  0.79050056D-04 -0.14934341D-03  0.37542491D-04
  0.20616790D-04  0.73882934D-05 -0.28005083D-04  0.25629954D-04  0.13285450D-04
  0.53326460D-04  0.20054277D-04  0.36168715D-04  0.53330749D-04 -0.19291414D-03
 -0.56229106D-03  0.58300861D-05  0.29240720D-04  0.21915381D-04 -0.12367641D-04
  0.90681082D-04  0.13314124D-03 -0.13407186D-03  0.42935401D-04  0.98462598D-04
 -0.10948905D-04  0.90393791D-05  0.25468889D-04 -0.34508268D-04 -0.79027496D-04
  0.14932519D-03  0.37536002D-04  0.20605666D-04  0.73949493D-05 -0.28000615D-04
 -0.25618050D-04 -0.13306213D-04  0.53339148D-04  0.60640582D-05  0.11345206D-04
  0.19601999D-04  0.31777144D-04  0.48256642D-04  0.67072192D-04  0.79743697D-04
  0.71038456D-04  0.35279200D-04  0.56796527D-05  0.59923691D-07  0.25196274D-07
  0.84050552D-06  0.29289935D-05  0.10547780D-04  0.23251268D-04  0.32730281D-04
 -0.15613411D-05 -0.42833256D-04 -0.25327036D-04  0.42849363D-08  0.51901043D-07
  0.10823415D-06  0.31039671D-06  0.16118469D-07 -0.13385811D-05 -0.34586366D-05
  0.28179343D-05 -0.71841632D-06 -0.60121858D-05  0.18052070D-06  0.15191397D-02
  0.20010623D-02  0.22074850D-02  0.18334891D-02  0.97363359D-03  0.25120255D-03
  0.11610724D+02  0.15294040D+02  0.16871720D+02  0.14013285D+02  0.74414431D+01
  0.19199312D+01 -0.30818585D-01 -0.40595286D-01 -0.44782955D-01 -0.37195751D-01
 -0.19751976D-01 -0.50961130D-02 -0.60044426D-07  0.58047087D-06  0.81852452D-06
  0.11707066D-05 -0.59282934D-08 -0.10736484D-05 -0.45951526D-03  0.44422979D-02
  0.62641038D-02  0.89593255D-02 -0.45368763D-04 -0.82165464D-02  0.14492418D-05
 -0.14010337D-04 -0.19756038D-04 -0.28256360D-04  0.14308623D-06  0.25913747D-04
  0.10026402D-04  0.76646315D-01 -0.20948145D-03 -0.84102817D-07 -0.64345450D-03
  0.36339991D-05 -0.76028672D-08 -0.57913631D-04  0.63691403D-07  0.11306396D-04
 -0.15306096D-04  0.39996993D-05 -0.18060758D-06 -0.13051369D-06 -0.98121828D-03
 -0.32118520D-05  0.53542729D-05 -0.21424210D-05  0.65156190D-07  0.46378094D-07
  0.35532691D-03  0.12867030D-05 -0.11402777D-05 -0.14642522D-06 -0.11371263D-07
 -0.83942769D-08 -0.61109865D-04  0.62067784D-08  0.22430759D-05 -0.95002094D-07
 -0.56196599D-08  0.15528241D-05  0.34070130D-04 -0.13000675D-07 -0.82820518D-05
 -0.33785124D-04 -0.20175432D-07  0.60752124D-09  0.14588444D-04  0.31199203D-06
  0.29910663D-08  0.14800439D-04 -0.73230295D-05 -0.48136300D-08 -0.58565772D-04
  0.63870534D-05 -0.22711081D-07  0.29791121D-05  0.55530701D-05  0.94136910D-05
  0.14253601D-04  0.17820141D-04  0.15328517D-04  0.58788161D-05  0.37999534D-08
  0.50304268D-07  0.18271426D-06  0.54201840D-06  0.62456673D-06 -0.75862932D-06
  0.19941654D-06  0.12916605D-05 -0.98712881D-06 -0.40844347D-07 -0.39944879D-07
 -0.26393270D-07 -0.29230274D-03 -0.28586570D-03 -0.18888355D-03 -0.15809758D-04
 -0.15461598D-04 -0.10216131D-04 -0.30774759D-08 -0.10060525D-04 -0.27754871D-05
 -0.75620217D-08 -0.66029147D-04 -0.15256410D-06 -0.25747382D-08 -0.19522183D-04
 -0.23919259D-06  0.72701096D-04 -0.71995291D-04 -0.70580562D-06 -0.58334912D-07
 -0.42652789D-07 -0.13046730D-03 -0.36459603D-04  0.36058607D-04  0.40099595D-06
  0.35274535D-07  0.25804919D-07  0.10089845D-03  0.18174608D-04 -0.18430560D-04
  0.25595275D-06 -0.21511561D-07 -0.14918084D-07 -0.73357623D-04 -0.39840173D-07
 -0.71818669D-04 -0.97064016D-06  0.22058634D-07 -0.70548416D-04 -0.18673378D-03
  0.97461885D-07  0.28600442D-03  0.18964570D-03  0.21340906D-06  0.12916544D-07
  0.25477395D-04  0.45399470D-06 -0.67856588D-08  0.25066358D-04  0.59090180D-04
 -0.31963972D-07 -0.10149854D-03 -0.60452164D-04 -0.72266397D-07
MO    3     MO 0.0        OCC NO =    2.0000210  ORB. ENERGY =    0.000000
 -0.14485202D-01 -0.27003334D-01 -0.45639314D-01 -0.68604401D-01 -0.84268219D-01
 -0.71119404D-01 -0.26742753D-01 -0.38082688D-05 -0.28464450D-04 -0.10637815D-03
 -0.29677847D-03 -0.39760132D-03  0.46949303D-03 -0.87544339D-03 -0.19261117D-02
 -0.81513063D-04  0.20712461D-06  0.19419249D-06  0.13827662D-06 -0.19688451D-05
 -0.18459174D-05 -0.13144032D-05  0.11621784D-02  0.10896161D-02  0.77587160D-03
  0.10420764D-06 -0.89856418D-06  0.60602571D-03 -0.67217441D-07 -0.33330823D-05
 -0.37571745D-03  0.83404299D-09 -0.48138250D-07  0.46975161D-05 -0.10481288D-03
 -0.10591435D-03  0.21072723D-03 -0.16259916D-08  0.11252409D-06 -0.12621284D-05
 -0.24327179D-04 -0.22948717D-04  0.47275896D-04 -0.71979425D-09  0.24887306D-07
 -0.29533244D-05  0.11045429D-04  0.11713153D-04 -0.22758583D-04  0.96970797D-10
 -0.12092866D-07 -0.56112711D-06 -0.15703106D-07  0.36093430D-04  0.69016565D-05
  0.39464408D-07 -0.10799988D-03 -0.11414575D-04  0.76449099D-08 -0.28040598D-06
 -0.92903940D-05  0.38716820D-07  0.29061624D-08  0.51417896D-04 -0.85294260D-04
  0.81429469D-07 -0.15468497D-03  0.12747654D-03 -0.90147956D-07  0.43127617D-06
  0.12840623D-03  0.55214174D-07 -0.51789385D-05 -0.93404289D-05 -0.13772457D-04
  0.74668949D-03  0.22721049D-03  0.48432959D-05  0.16649011D-07  0.93611319D-04
  0.25620487D-04  0.24540144D-07  0.19970972D-03  0.35943411D-06  0.12109169D-07
  0.42866761D-04  0.38007206D-04 -0.71800146D-04  0.55191113D-04  0.16609033D-04
  0.45401984D-07  0.41090049D-07  0.76681764D-04 -0.98581383D-05 -0.11860152D-04
  0.21718290D-04 -0.66553607D-08  0.68104744D-08 -0.34337504D-04 -0.49521840D-05
 -0.89314677D-05 -0.13169444D-04  0.75037228D-03  0.23860634D-03  0.51368850D-05
  0.82579437D-04 -0.47981016D-04  0.28311607D-04  0.17214713D-03 -0.99596687D-04
 -0.34864956D-05  0.38116736D-04 -0.22688951D-04  0.38858586D-04  0.22042477D-04
 -0.41495312D-04  0.19452835D-04 -0.11083418D-03  0.65584316D-04 -0.38482671D-04
 -0.11479123D-04 -0.10053130D-04  0.21532253D-04  0.20209908D-05 -0.29737751D-04
  0.17315784D-04 -0.49520416D-05 -0.89312109D-05 -0.13169065D-04  0.75037667D-03
  0.23860777D-03  0.51368478D-05 -0.82581800D-04 -0.47960512D-04  0.28341364D-04
 -0.17217481D-03 -0.99552837D-04 -0.34240231D-05 -0.38108913D-04 -0.22679343D-04
  0.38872468D-04  0.22047634D-04 -0.41523277D-04  0.19475644D-04  0.11078797D-03
 -0.65597054D-04 -0.38506035D-04 -0.11469013D-04 -0.10052709D-04  0.21521723D-04
 -0.20139638D-05  0.29765381D-04  0.17308900D-04 -0.15469660D+00 -0.28942084D+00
 -0.50005501D+00 -0.81064793D+00 -0.12310467D+01 -0.17110390D+01 -0.20342943D+01
 -0.18122201D+01 -0.89998681D+00 -0.14489026D+00 -0.15286778D-02 -0.72327977D-03
 -0.24127402D-01 -0.84079167D-01 -0.30278269D+00 -0.66744677D+00 -0.93954963D+00
  0.44819580D-01  0.12295639D+01  0.72703341D+00 -0.15539066D-04 -0.18821604D-03
 -0.39250471D-03 -0.11256352D-02 -0.58452667D-04  0.48542848D-02  0.12542540D-01
 -0.10219071D-01  0.46627288D-01 -0.38865627D-03 -0.13196128D-03  0.10528387D-02
  0.13868349D-02  0.15298960D-02  0.12706984D-02  0.67477611D-03  0.17409576D-03
  0.15977763D-01  0.21046451D-01  0.23217530D-01  0.19283977D-01  0.10240327D-01
  0.26420578D-02  0.59312563D+01  0.78128520D+01  0.86187987D+01  0.71585872D+01
  0.38014084D+01  0.98078325D+00 -0.37323010D-07  0.36081485D-06  0.50878660D-06
  0.72769943D-06 -0.36849675D-08 -0.66736902D-06 -0.49669882D-06  0.48017646D-05
  0.67709893D-05  0.96843059D-05 -0.49039962D-07 -0.88814219D-05 -0.21030656D-03
  0.20331085D-02  0.28668952D-02  0.41004185D-02 -0.20763942D-04 -0.37604705D-02
  0.73811619D-05  0.11012909D-03  0.41581046D-01 -0.85683559D-07 -0.90895631D-06
 -0.48246360D-03 -0.17430688D-08 -0.78006439D-07 -0.98117314D-05 -0.84023405D-05
 -0.76933417D-05  0.16095682D-04  0.55209119D-09  0.87767264D-08  0.19244123D-05
 -0.11072677D-03 -0.11101801D-03  0.22174478D-03 -0.62572486D-10  0.11812781D-06
  0.14133571D-06 -0.14346422D-04 -0.14209576D-04  0.28555998D-04  0.10068408D-09
  0.15310169D-07  0.24137903D-06  0.10816557D-08 -0.72544495D-05  0.55405716D-05
 -0.95415566D-08  0.21025891D-04 -0.86736050D-05  0.62965894D-08  0.73745704D-06
 -0.79481099D-05 -0.67256025D-08  0.82553726D-08  0.20861849D-05 -0.33631902D-04
  0.11262618D-07 -0.59120613D-05  0.50542712D-04 -0.36028736D-07 -0.34649326D-06
  0.50352995D-04  0.18180305D-08 -0.88200396D-03 -0.16440569D-02 -0.27870427D-02
 -0.42199596D-02 -0.52758789D-02 -0.45382020D-02 -0.17404981D-02 -0.68494073D-06
 -0.90673327D-05 -0.32934202D-04 -0.97698690D-04 -0.11257801D-03  0.13674276D-03
 -0.96101922D-04 -0.15848770D-03  0.12583079D-04  0.66668204D-06  0.65200048D-06
  0.43080428D-06  0.29106780D-05  0.28465795D-05  0.18808554D-05  0.38933082D-02
  0.38075704D-02  0.25158228D-02  0.14956635D-06  0.22578192D-06  0.87779410D-03
  0.41687525D-08  0.19722001D-06  0.21660117D-04  0.15262353D-08 -0.87079725D-07
  0.93314070D-05 -0.34804889D-04 -0.35707642D-04  0.70512531D-04  0.71547697D-09
  0.35971251D-07  0.51979540D-06  0.20615082D-04  0.21120731D-04 -0.41735813D-04
 -0.30419305D-09 -0.21553129D-07 -0.39236275D-06  0.18214165D-04  0.17909287D-04
 -0.36123452D-04  0.13164170D-10 -0.18036916D-07  0.15744032D-06 -0.98680206D-08
 -0.30415931D-05  0.45958948D-04 -0.14175622D-07  0.10078868D-04 -0.70965596D-04
  0.43779684D-07 -0.95408889D-06 -0.66911248D-04 -0.98914296D-09  0.58046062D-08
  0.97534618D-06 -0.25165339D-04  0.71590581D-08 -0.31495192D-05  0.38383193D-04
 -0.24572877D-07  0.22348067D-06  0.37112824D-04  0.26507280D-09
MO    4     MO 0.0        OCC NO =    2.0000123  ORB. ENERGY =    0.000000
  0.26516300D-01  0.49431726D-01  0.83546351D-01  0.12558575D+00  0.15425960D+00
  0.13018966D+00  0.48954711D-01 -0.14857548D-05 -0.11105097D-04 -0.41502282D-04
 -0.11578490D-03 -0.15511985D-03  0.18316762D-03  0.26195244D-02 -0.35981583D-02
 -0.40457979D-04  0.64599673D-06  0.60566300D-06  0.43126813D-06 -0.11749177D-04
 -0.11015600D-04 -0.78437636D-05  0.36691540D-02  0.34400651D-02  0.24495313D-02
  0.22875830D-06  0.13252358D-05  0.13074315D-02 -0.74936756D-07 -0.57849596D-05
 -0.41254064D-03  0.68912056D-09 -0.12609335D-06  0.37546017D-05 -0.31889346D-03
 -0.32336115D-03  0.64225462D-03 -0.24667026D-08  0.34054437D-06  0.79522550D-06
  0.10919749D-04  0.12176901D-04 -0.23096650D-04 -0.10729874D-08 -0.11910157D-07
 -0.88386356D-05 -0.18744785D-04 -0.17600724D-04  0.36345509D-04  0.17145186D-09
  0.18896659D-07 -0.92461030D-06  0.10146456D-07 -0.41711176D-04  0.21401517D-04
 -0.53073585D-07  0.12661748D-03 -0.34200426D-04  0.22634217D-07 -0.14839557D-05
 -0.30004124D-04 -0.43536689D-07  0.12508552D-07  0.80631092D-04 -0.16392710D-03
  0.13605664D-06 -0.24278942D-03  0.24424300D-03 -0.17358229D-06  0.89614622D-06
  0.24753829D-03  0.87287354D-07 -0.90311556D-04 -0.16288061D-03 -0.24016736D-03
  0.10158063D-02  0.67005351D-03  0.37483415D-05 -0.26397320D-08 -0.60577097D-04
  0.25193856D-04  0.30519583D-07  0.30940624D-03 -0.43289075D-04  0.26966767D-07
  0.10921558D-03  0.75125401D-04 -0.13801858D-03  0.29614026D-04  0.10840456D-03
  0.66377645D-07  0.10381517D-06  0.13462502D-03 -0.14600904D-04 -0.20024330D-04
  0.34625234D-04 -0.12696055D-07  0.95261510D-08 -0.63484588D-04 -0.90664226D-04
 -0.16351667D-03 -0.24110523D-03  0.10144708D-02  0.69037379D-03  0.44203534D-05
 -0.50756048D-04  0.28389264D-04  0.33324820D-04  0.26251342D-03 -0.15174760D-03
 -0.42286149D-04  0.96312073D-04 -0.56690169D-04  0.76403757D-04 -0.17675768D-04
 -0.10002132D-03  0.11769709D-03 -0.14536291D-03  0.12371248D-03 -0.72209942D-04
 -0.19357166D-04 -0.15710795D-04  0.35067960D-04  0.57428233D-05 -0.54224090D-04
  0.31065426D-04 -0.90664467D-04 -0.16351710D-03 -0.24110587D-03  0.10144741D-02
  0.69037999D-03  0.44200964D-05  0.50774917D-04  0.28375657D-04  0.33306549D-04
 -0.26256781D-03 -0.15168052D-03 -0.42193181D-04 -0.96300219D-04 -0.56666051D-04
  0.76438356D-04 -0.17681110D-04 -0.10005719D-03  0.11773830D-03  0.14529696D-03
 -0.12363532D-03 -0.72229718D-04 -0.19339426D-04 -0.15709609D-04  0.35049035D-04
 -0.57296916D-05  0.54271386D-04  0.31054053D-04  0.91169511D-01  0.17056843D+00
  0.29470441D+00  0.47775047D+00  0.72550994D+00  0.10083906D+01  0.11988991D+01
  0.10680210D+01  0.53040180D+00  0.85390203D-01  0.90091708D-03  0.42684910D-03
  0.14238971D-01  0.49619965D-01  0.17868953D+00  0.39389882D+00  0.55448241D+00
 -0.26450618D-01 -0.72563653D+00 -0.42906434D+00  0.62620691D-05  0.75848949D-04
  0.15817499D-03  0.45361832D-03  0.23555768D-04 -0.19562222D-02 -0.50545025D-02
  0.41181707D-02 -0.28502635D-01  0.14121783D-02 -0.18273309D-03  0.17650458D-02
  0.23249782D-02  0.25648149D-02  0.21302796D-02  0.11312376D-02  0.29186521D-03
  0.26334525D-01  0.34688729D-01  0.38267099D-01  0.31783822D-01  0.16878091D-01
  0.43546358D-02  0.99210909D+01  0.13068398D+02  0.14416488D+02  0.11974022D+02
  0.63585381D+01  0.16405361D+01 -0.59896755D-07  0.57904329D-06  0.81651148D-06
  0.11678274D-05 -0.59137136D-08 -0.10710079D-05 -0.68294948D-06  0.66023162D-05
  0.93099550D-05  0.13315698D-04 -0.67428823D-07 -0.12211751D-04 -0.33676462D-03
  0.32556236D-02  0.45907692D-02  0.65660143D-02 -0.33249372D-04 -0.60216544D-02
  0.12917784D-04  0.18749700D-03  0.72612022D-01 -0.53753368D-07 -0.11116972D-05
 -0.30451107D-03 -0.68054795D-09 -0.11398721D-06 -0.38862452D-05  0.45448869D-03
  0.45576340D-03 -0.91025209D-03  0.97031288D-10 -0.48529612D-06 -0.18737619D-05
 -0.30951077D-03 -0.31023164D-03  0.61974241D-03 -0.10104857D-09  0.33022065D-06
  0.83317644D-06  0.42522890D-05  0.45108923D-05 -0.87631813D-05  0.15420059D-09
 -0.47643907D-08  0.42888799D-06  0.17740203D-07 -0.14681776D-04 -0.46839065D-04
 -0.37387248D-08  0.42427305D-04  0.69598999D-04 -0.49481886D-07  0.16180235D-05
  0.70918196D-04 -0.14110453D-07  0.15184280D-07  0.42481209D-05 -0.62730794D-04
  0.21377353D-07 -0.12107920D-04  0.94168420D-04 -0.66930192D-07 -0.63644244D-06
  0.94023963D-04  0.40570463D-08 -0.63828661D-02 -0.11897673D-01 -0.20169207D-01