 clch3f_ts-wavefunction
GAUSSIAN            211 MOL ORBITALS    339 PRIMITIVES        6 NUCLEI
  C    1    (CENTRE  1)   0.00033070  0.00005480 -0.94053370  CHARGE =  6.0
  H    2    (CENTRE  2)   0.00003590 -1.98906904 -1.17300214  CHARGE =  1.0
  H    3    (CENTRE  3)  -1.72213010  0.99468570 -1.17398291  CHARGE =  1.0
  H    4    (CENTRE  4)   1.72295780  1.01314265 -1.17459707  CHARGE =  1.0
  Cl   5    (CENTRE  5)   0.00104880  0.00181792  3.10806659  CHARGE = 17.0
  F    6    (CENTRE  6)  -0.00035149 -0.00174044 -4.90094425  CHARGE =  9.0
CENTRE ASSIGNMENTS    1  1  1  1  1  1  1  1  1  1  1  1  1  1  1  1  1  1  1  1
CENTRE ASSIGNMENTS    1  1  1  1  1  1  1  1  1  1  1  1  1  1  1  1  1  1  1  1
CENTRE ASSIGNMENTS    1  1  1  1  1  1  1  1  1  1  1  1  1  1  1  1  1  1  1  1
CENTRE ASSIGNMENTS    1  1  1  1  1  1  1  1  1  1  1  1  2  2  2  2  2  2  2  2
CENTRE ASSIGNMENTS    2  2  2  2  2  2  2  2  2  2  2  2  2  2  2  2  2  2  2  3
CENTRE ASSIGNMENTS    3  3  3  3  3  3  3  3  3  3  3  3  3  3  3  3  3  3  3  3
CENTRE ASSIGNMENTS    3  3  3  3  3  3  4  4  4  4  4  4  4  4  4  4  4  4  4  4
CENTRE ASSIGNMENTS    4  4  4  4  4  4  4  4  4  4  4  4  4  5  5  5  5  5  5  5
CENTRE ASSIGNMENTS    5  5  5  5  5  5  5  5  5  5  5  5  5  5  5  5  5  5  5  5
CENTRE ASSIGNMENTS    5  5  5  5  5  5  5  5  5  5  5  5  5  5  5  5  5  5  5  5
CENTRE ASSIGNMENTS    5  5  5  5  5  5  5  5  5  5  5  5  5  5  5  5  5  5  5  5
CENTRE ASSIGNMENTS    5  5  5  5  5  5  5  5  5  5  5  5  5  5  5  5  5  5  5  5
CENTRE ASSIGNMENTS    5  5  5  5  5  5  5  5  5  5  5  5  5  5  5  5  5  5  5  5
CENTRE ASSIGNMENTS    5  5  5  5  5  5  5  6  6  6  6  6  6  6  6  6  6  6  6  6
CENTRE ASSIGNMENTS    6  6  6  6  6  6  6  6  6  6  6  6  6  6  6  6  6  6  6  6
CENTRE ASSIGNMENTS    6  6  6  6  6  6  6  6  6  6  6  6  6  6  6  6  6  6  6  6
CENTRE ASSIGNMENTS    6  6  6  6  6  6  6  6  6  6  6  6  6  6  6  6  6  6  6
TYPE ASSIGNMENTS      1  1  1  1  1  1  1  1  1  1  1  1  1  1  1  1  2  2  2  3
TYPE ASSIGNMENTS      3  3  4  4  4  2  3  4  2  3  4  2  3  4  5  6  7  8  9 10
TYPE ASSIGNMENTS      5  6  7  8  9 10  5  6  7  8  9 10 11 12 13 17 14 15 18 19
TYPE ASSIGNMENTS     16 20 11 12 13 17 14 15 18 19 16 20  1  1  1  1  1  1  2  3
TYPE ASSIGNMENTS      4  2  3  4  2  3  4  5  6  7  8  9 10  5  6  7  8  9 10  1
TYPE ASSIGNMENTS      1  1  1  1  1  2  3  4  2  3  4  2  3  4  5  6  7  8  9 10
TYPE ASSIGNMENTS      5  6  7  8  9 10  1  1  1  1  1  1  2  3  4  2  3  4  2  3
TYPE ASSIGNMENTS      4  5  6  7  8  9 10  5  6  7  8  9 10  1  1  1  1  1  1  1
TYPE ASSIGNMENTS      1  1  1  1  1  1  1  1  1  1  1  1  1  1  1  1  1  1  1  1
TYPE ASSIGNMENTS      1  1  1  1  2  2  2  2  2  2  3  3  3  3  3  3  4  4  4  4
TYPE ASSIGNMENTS      4  4  2  2  2  2  2  2  3  3  3  3  3  3  4  4  4  4  4  4
TYPE ASSIGNMENTS      2  3  4  2  3  4  2  3  4  5  6  7  8  9 10  5  6  7  8  9
TYPE ASSIGNMENTS     10  5  6  7  8  9 10 11 12 13 17 14 15 18 19 16 20 11 12 13
TYPE ASSIGNMENTS     17 14 15 18 19 16 20  1  1  1  1  1  1  1  1  1  1  1  1  1
TYPE ASSIGNMENTS      1  1  1  2  2  2  3  3  3  4  4  4  2  3  4  2  3  4  2  3
TYPE ASSIGNMENTS      4  5  6  7  8  9 10  5  6  7  8  9 10  5  6  7  8  9 10 11
TYPE ASSIGNMENTS     12 13 17 14 15 18 19 16 20 11 12 13 17 14 15 18 19 16 20
EXPONENTS  0.8236000D+04 0.1235000D+04 0.2808000D+03 0.7927000D+02 0.2559000D+02
EXPONENTS  0.8997000D+01 0.3319000D+01 0.2808000D+03 0.7927000D+02 0.2559000D+02
EXPONENTS  0.8997000D+01 0.3319000D+01 0.3643000D+00 0.9059000D+00 0.1285000D+00
EXPONENTS  0.4402000D-01 0.1871000D+02 0.4133000D+01 0.1200000D+01 0.1871000D+02
EXPONENTS  0.4133000D+01 0.1200000D+01 0.1871000D+02 0.4133000D+01 0.1200000D+01
EXPONENTS  0.3827000D+00 0.3827000D+00 0.3827000D+00 0.1209000D+00 0.1209000D+00
EXPONENTS  0.1209000D+00 0.3569000D-01 0.3569000D-01 0.3569000D-01 0.1097000D+01
EXPONENTS  0.1097000D+01 0.1097000D+01 0.1097000D+01 0.1097000D+01 0.1097000D+01
EXPONENTS  0.3180000D+00 0.3180000D+00 0.3180000D+00 0.3180000D+00 0.3180000D+00
EXPONENTS  0.3180000D+00 0.1000000D+00 0.1000000D+00 0.1000000D+00 0.1000000D+00
EXPONENTS  0.1000000D+00 0.1000000D+00 0.7610000D+00 0.7610000D+00 0.7610000D+00
EXPONENTS  0.7610000D+00 0.7610000D+00 0.7610000D+00 0.7610000D+00 0.7610000D+00
EXPONENTS  0.7610000D+00 0.7610000D+00 0.2680000D+00 0.2680000D+00 0.2680000D+00
EXPONENTS  0.2680000D+00 0.2680000D+00 0.2680000D+00 0.2680000D+00 0.2680000D+00
EXPONENTS  0.2680000D+00 0.2680000D+00 0.3387000D+02 0.5095000D+01 0.1159000D+01
EXPONENTS  0.3258000D+00 0.1027000D+00 0.2526000D-01 0.1407000D+01 0.1407000D+01
EXPONENTS  0.1407000D+01 0.3880000D+00 0.3880000D+00 0.3880000D+00 0.1020000D+00
EXPONENTS  0.1020000D+00 0.1020000D+00 0.1057000D+01 0.1057000D+01 0.1057000D+01
EXPONENTS  0.1057000D+01 0.1057000D+01 0.1057000D+01 0.2470000D+00 0.2470000D+00
EXPONENTS  0.2470000D+00 0.2470000D+00 0.2470000D+00 0.2470000D+00 0.3387000D+02
EXPONENTS  0.5095000D+01 0.1159000D+01 0.3258000D+00 0.1027000D+00 0.2526000D-01
EXPONENTS  0.1407000D+01 0.1407000D+01 0.1407000D+01 0.3880000D+00 0.3880000D+00
EXPONENTS  0.3880000D+00 0.1020000D+00 0.1020000D+00 0.1020000D+00 0.1057000D+01
EXPONENTS  0.1057000D+01 0.1057000D+01 0.1057000D+01 0.1057000D+01 0.1057000D+01
EXPONENTS  0.2470000D+00 0.2470000D+00 0.2470000D+00 0.2470000D+00 0.2470000D+00
EXPONENTS  0.2470000D+00 0.3387000D+02 0.5095000D+01 0.1159000D+01 0.3258000D+00
EXPONENTS  0.1027000D+00 0.2526000D-01 0.1407000D+01 0.1407000D+01 0.1407000D+01
EXPONENTS  0.3880000D+00 0.3880000D+00 0.3880000D+00 0.1020000D+00 0.1020000D+00
EXPONENTS  0.1020000D+00 0.1057000D+01 0.1057000D+01 0.1057000D+01 0.1057000D+01
EXPONENTS  0.1057000D+01 0.1057000D+01 0.2470000D+00 0.2470000D+00 0.2470000D+00
EXPONENTS  0.2470000D+00 0.2470000D+00 0.2470000D+00 0.4561000D+06 0.6833000D+05
EXPONENTS  0.1555000D+05 0.4405000D+04 0.1439000D+04 0.5204000D+03 0.2031000D+03
EXPONENTS  0.8396000D+02 0.3620000D+02 0.1583000D+02 0.6334000D+01 0.4405000D+04
EXPONENTS  0.1439000D+04 0.5204000D+03 0.2031000D+03 0.8396000D+02 0.3620000D+02
EXPONENTS  0.1583000D+02 0.6334000D+01 0.2694000D+01 0.1439000D+04 0.2031000D+03
EXPONENTS  0.8396000D+02 0.3620000D+02 0.1583000D+02 0.6334000D+01 0.2694000D+01
EXPONENTS  0.4313000D+00 0.9768000D+00 0.1625000D+00 0.5910000D-01 0.6633000D+03
EXPONENTS  0.1568000D+03 0.4998000D+02 0.1842000D+02 0.7240000D+01 0.2922000D+01
EXPONENTS  0.6633000D+03 0.1568000D+03 0.4998000D+02 0.1842000D+02 0.7240000D+01
EXPONENTS  0.2922000D+01 0.6633000D+03 0.1568000D+03 0.4998000D+02 0.1842000D+02
EXPONENTS  0.7240000D+01 0.2922000D+01 0.1568000D+03 0.4998000D+02 0.1842000D+02
EXPONENTS  0.7240000D+01 0.2922000D+01 0.3818000D+00 0.1568000D+03 0.4998000D+02
EXPONENTS  0.1842000D+02 0.7240000D+01 0.2922000D+01 0.3818000D+00 0.1568000D+03
EXPONENTS  0.4998000D+02 0.1842000D+02 0.7240000D+01 0.2922000D+01 0.3818000D+00
EXPONENTS  0.1022000D+01 0.1022000D+01 0.1022000D+01 0.1301000D+00 0.1301000D+00
EXPONENTS  0.1301000D+00 0.4190000D-01 0.4190000D-01 0.4190000D-01 0.1046000D+01
EXPONENTS  0.1046000D+01 0.1046000D+01 0.1046000D+01 0.1046000D+01 0.1046000D+01
EXPONENTS  0.3440000D+00 0.3440000D+00 0.3440000D+00 0.3440000D+00 0.3440000D+00
EXPONENTS  0.3440000D+00 0.1350000D+00 0.1350000D+00 0.1350000D+00 0.1350000D+00
EXPONENTS  0.1350000D+00 0.1350000D+00 0.7060000D+00 0.7060000D+00 0.7060000D+00
EXPONENTS  0.7060000D+00 0.7060000D+00 0.7060000D+00 0.7060000D+00 0.7060000D+00
EXPONENTS  0.7060000D+00 0.7060000D+00 0.3120000D+00 0.3120000D+00 0.3120000D+00
EXPONENTS  0.3120000D+00 0.3120000D+00 0.3120000D+00 0.3120000D+00 0.3120000D+00
EXPONENTS  0.3120000D+00 0.3120000D+00 0.1950000D+05 0.2923000D+04 0.6645000D+03
EXPONENTS  0.1875000D+03 0.6062000D+02 0.2142000D+02 0.7950000D+01 0.6645000D+03
EXPONENTS  0.1875000D+03 0.6062000D+02 0.2142000D+02 0.7950000D+01 0.8815000D+00
EXPONENTS  0.2257000D+01 0.3041000D+00 0.9158000D-01 0.4388000D+02 0.9926000D+01
EXPONENTS  0.2930000D+01 0.4388000D+02 0.9926000D+01 0.2930000D+01 0.4388000D+02
EXPONENTS  0.9926000D+01 0.2930000D+01 0.9132000D+00 0.9132000D+00 0.9132000D+00
EXPONENTS  0.2672000D+00 0.2672000D+00 0.2672000D+00 0.7361000D-01 0.7361000D-01
EXPONENTS  0.7361000D-01 0.3107000D+01 0.3107000D+01 0.3107000D+01 0.3107000D+01
EXPONENTS  0.3107000D+01 0.3107000D+01 0.8550000D+00 0.8550000D+00 0.8550000D+00
EXPONENTS  0.8550000D+00 0.8550000D+00 0.8550000D+00 0.2920000D+00 0.2920000D+00
EXPONENTS  0.2920000D+00 0.2920000D+00 0.2920000D+00 0.2920000D+00 0.1917000D+01
EXPONENTS  0.1917000D+01 0.1917000D+01 0.1917000D+01 0.1917000D+01 0.1917000D+01
EXPONENTS  0.1917000D+01 0.1917000D+01 0.1917000D+01 0.1917000D+01 0.7240000D+00
EXPONENTS  0.7240000D+00 0.7240000D+00 0.7240000D+00 0.7240000D+00 0.7240000D+00
EXPONENTS  0.7240000D+00 0.7240000D+00 0.7240000D+00 0.7240000D+00
MO    1     MO 0.0        OCC NO =    2.0000300  ORB. ENERGY =    0.000000
  0.13961527D-04  0.26027099D-04  0.43989343D-04  0.66124187D-04  0.81221720D-04
  0.68548267D-04  0.25775938D-04  0.33918881D-08  0.25352262D-07  0.94747193D-07
  0.26432991D-06  0.35412921D-06 -0.41816057D-06  0.17502789D-05 -0.22680428D-04
 -0.59725533D-06  0.10960734D-03  0.10276385D-03  0.73173982D-04 -0.14939060D-05
 -0.14006318D-05 -0.99733331D-06 -0.26445651D-06 -0.24794479D-06 -0.17655146D-06
  0.35488405D-03 -0.51020461D-05 -0.18126234D-05  0.45933407D-03 -0.53316252D-05
  0.12326989D-05  0.94797875D-05 -0.16805827D-06  0.12544579D-07 -0.13885663D-05
  0.18830719D-05 -0.49450561D-06  0.12680006D-03 -0.51068901D-03  0.50535977D-05
 -0.44827036D-05  0.24108764D-05  0.20718272D-05  0.38440168D-03  0.96954618D-04
 -0.21043837D-05 -0.42567638D-06  0.82834418D-06 -0.40266780D-06  0.81611951D-04
 -0.65794753D-04  0.55770307D-06  0.91254074D-04 -0.89455676D-06  0.39981264D-06
  0.95148616D-04 -0.81613355D-06 -0.25404266D-05 -0.36891084D-03  0.34998038D-05
  0.13409887D-05  0.50220069D-04 -0.27174675D-04  0.11210753D-05  0.81814530D-07
 -0.24935872D-04 -0.24572119D-05 -0.98529868D-06  0.10645990D-03 -0.90601394D-06
  0.73985509D-06  0.10052599D-03  0.57215952D-06  0.10319133D-05  0.15215555D-05
  0.35348559D-05 -0.13219054D-04  0.99257344D-07  0.50334516D-05 -0.10680806D-06
 -0.74670391D-07  0.79467783D-04 -0.26804854D-05 -0.35616633D-05  0.74474612D-04
 -0.17043900D-05 -0.59672010D-06  0.11209589D-05 -0.59974687D-06 -0.52121208D-06
  0.27723862D-04 -0.47085174D-04 -0.41713279D-05  0.92422206D-07 -0.12173310D-06
  0.29310889D-07  0.28441685D-04  0.60695149D-04 -0.45579465D-06 -0.34848612D-04
 -0.62850907D-04 -0.92673626D-04  0.32366212D-03  0.97563285D-03 -0.10304123D-04
  0.54928229D-04 -0.29071756D-04  0.21209132D-04  0.23724242D-03 -0.87558550D-04
  0.23680333D-03  0.14790930D-03 -0.42984540D-04  0.19439335D-04  0.10106938D-04
 -0.69972167D-04  0.59865230D-04 -0.10546616D-03  0.21362193D-03 -0.14986962D-03
 -0.11481639D-04 -0.37330550D-04  0.48812189D-04 -0.16437457D-04  0.38389892D-04
  0.12459245D-04  0.34786300D-04  0.62738525D-04  0.92507918D-04 -0.29925503D-03
 -0.95157931D-03  0.10304964D-04  0.52501221D-04  0.27434854D-04 -0.19325128D-04
  0.23155456D-03  0.86722720D-04 -0.22946137D-03  0.14491831D-03  0.41812479D-04
 -0.19329281D-04 -0.10285470D-04  0.67600539D-04 -0.57315069D-04 -0.10707453D-03
  0.20637818D-03  0.14947409D-03  0.10498963D-04  0.36137723D-04 -0.46636686D-04
 -0.16138473D-04  0.38409615D-04 -0.12961836D-04 -0.37469640D-04 -0.70101698D-04
 -0.12112018D-03 -0.19635005D-03 -0.29817639D-03 -0.41443713D-03 -0.49273399D-03
 -0.43894456D-03 -0.21798915D-03 -0.35094409D-04 -0.37026675D-06 -0.17537472D-06
 -0.58502069D-05 -0.20386800D-04 -0.73416167D-04 -0.16183680D-03 -0.22781399D-03
  0.10867470D-04  0.29813417D-03  0.17628487D-03 -0.44792382D-08 -0.54254513D-07
 -0.11314207D-06 -0.32447175D-06 -0.16849366D-07  0.13992796D-05  0.36154697D-05
 -0.29457145D-05  0.11096690D-04  0.72768352D-06  0.43671785D-06  0.11610027D+02
  0.15293121D+02  0.16870707D+02  0.14012443D+02  0.74409961D+01  0.19198159D+01
 -0.12910303D+00 -0.17005889D+00 -0.18760158D+00 -0.15581780D+00 -0.82743575D-01
 -0.21348275D-01 -0.44691025D-02 -0.58868535D-02 -0.64941209D-02 -0.53938759D-02
 -0.28642978D-02 -0.73900379D-03 -0.45945630D-03  0.44417279D-02  0.62633000D-02
  0.89581758D-02 -0.45362941D-04 -0.82154921D-02  0.50875270D-05 -0.49182938D-04
 -0.69353076D-04 -0.99193245D-04  0.50230063D-06  0.90969561D-04  0.16875901D-06
 -0.16314535D-05 -0.23005198D-05 -0.32903519D-05  0.16661879D-07  0.30175630D-05
  0.76646331D-01 -0.85175804D-03 -0.29609337D-04 -0.64404127D-03  0.73749962D-05
 -0.10186525D-06 -0.58013789D-04  0.66322945D-06 -0.81587731D-08 -0.94618813D-06
  0.18443994D-06  0.76174820D-06  0.24719070D-04 -0.98013900D-03  0.10480667D-04
  0.30880556D-06  0.79286494D-08 -0.31673420D-06 -0.86306715D-05  0.35546914D-03
 -0.36681658D-05 -0.53650844D-07  0.25102862D-07  0.28547982D-07  0.25702726D-05
 -0.60856162D-04  0.54882034D-06  0.22500475D-05 -0.11104885D-07  0.99289212D-08
  0.21852087D-05  0.20093065D-06 -0.68619289D-06 -0.89353511D-05 -0.16761599D-06
  0.65640612D-06  0.70294489D-04  0.14663300D-04 -0.15826538D-06  0.92876602D-07
  0.14651203D-04 -0.22987595D-06 -0.65590941D-08 -0.58641104D-04  0.70467209D-06
 -0.27207071D-06 -0.14508077D-04  0.62271157D-06  0.11607354D-05  0.19677052D-05
  0.29793717D-05  0.37248709D-05  0.32040569D-05  0.12288248D-05  0.36903441D-08
  0.48853246D-07  0.17744388D-06  0.52638392D-06  0.60655115D-06 -0.73674672D-06
  0.17978362D-06  0.16381726D-05  0.65568269D-06 -0.29235243D-03 -0.28591429D-03
 -0.18891566D-03  0.22029824D-05  0.21544687D-05  0.14235486D-05 -0.12074578D-05
 -0.11808673D-05 -0.78024898D-06 -0.83726895D-05 -0.11901892D-06 -0.18077745D-06
 -0.66933648D-04  0.52066999D-06  0.68530508D-06 -0.19622318D-04  0.22687772D-06
  0.35885958D-07 -0.12393731D-05  0.14488347D-05 -0.20946154D-06  0.14163810D-03
 -0.13376812D-03  0.23606726D-05  0.61102951D-06 -0.75720837D-06  0.14617886D-06
 -0.70991630D-04  0.10254055D-03 -0.14781269D-05 -0.37037612D-06  0.37275024D-06
 -0.23741290D-08  0.35913426D-04 -0.74271639D-04  0.75689958D-06 -0.71088494D-04
  0.32686342D-06  0.40864594D-06 -0.72418683D-04  0.11161379D-05  0.35590687D-05
  0.28568417D-03 -0.20967282D-05 -0.47850065D-05 -0.37666501D-03  0.25251293D-04
 -0.11689171D-06 -0.14100224D-06  0.25656285D-04 -0.35994790D-06 -0.11273283D-05
 -0.10141016D-03  0.71062303D-06  0.15503350D-05  0.11953483D-03
MO    2     MO 0.0        OCC NO =    2.0000300  ORB. ENERGY =    0.000000
 -0.87748660D-05 -0.16358118D-04 -0.27647448D-04 -0.41559271D-04 -0.51048120D-04
 -0.43082813D-04 -0.16200263D-04  0.12895727D-07  0.96387570D-07  0.36022236D-06
  0.10049643D-05  0.13463751D-05 -0.15898179D-05 -0.35389411D-05  0.14512096D-04
  0.44826983D-06  0.99253998D-06  0.93056932D-06  0.66262079D-06  0.11126773D-03
  0.10432057D-03  0.74282463D-04  0.33158279D-06  0.31087994D-06  0.22136504D-06
  0.28189683D-05  0.36450235D-03 -0.13798438D-05  0.49310987D-05  0.46472180D-03
 -0.69227361D-06  0.39727394D-07  0.92097122D-05 -0.10514137D-07  0.63331758D-04
 -0.64933927D-04  0.16021692D-05  0.15173300D-05 -0.62722834D-05 -0.51050156D-03
  0.19516369D-03 -0.19239565D-03 -0.27680445D-05  0.76378007D-05  0.53978582D-07
  0.97322503D-04  0.40797306D-04 -0.41577390D-04  0.78008422D-06  0.18608880D-05
 -0.90706045D-06 -0.66316574D-04  0.25393421D-06  0.93064881D-04  0.47519724D-06
  0.39686423D-05  0.92835151D-04  0.23519555D-04 -0.47304449D-05 -0.37202979D-03
 -0.24945147D-04 -0.20341516D-05 -0.86558437D-06 -0.28108479D-04  0.35300774D-07
  0.11285969D-05 -0.23438015D-04  0.49815183D-04  0.14681563D-05  0.10776345D-03
 -0.49921085D-04  0.20561157D-05 -0.40244702D-04 -0.72582977D-04 -0.10702356D-03
  0.35899558D-03  0.11243984D-02 -0.12341176D-04 -0.20065741D-07  0.71879821D-04
  0.24405833D-04 -0.50953549D-07  0.28760736D-03  0.26868708D-03  0.14639693D-05
  0.17199807D-03  0.22264092D-04 -0.11035598D-03  0.43030443D-04  0.67325539D-04
 -0.12926006D-06 -0.38143574D-06  0.29692198D-03 -0.43030195D-04 -0.11793411D-04
  0.54823606D-04  0.36328021D-06  0.10961063D-05  0.31136618D-04  0.19499008D-04
  0.35167264D-04  0.51854110D-04 -0.18862861D-03 -0.55079975D-03  0.59140868D-05
 -0.29038170D-04  0.20704912D-04 -0.12331750D-04 -0.85194440D-04  0.13754087D-03
 -0.13246677D-03 -0.40411930D-04  0.10046120D-03 -0.10733561D-04  0.10697550D-04
  0.22498989D-04 -0.33196539D-04  0.79571400D-04 -0.14663773D-03  0.37695313D-04
  0.21096228D-04  0.68580358D-05 -0.27954264D-04  0.26629675D-04  0.13703955D-04
  0.54078947D-04  0.20721211D-04  0.37371558D-04  0.55104341D-04 -0.19576154D-03
 -0.57471794D-03  0.63759080D-05  0.29827955D-04  0.22350387D-04 -0.12291153D-04
  0.94047874D-04  0.13560307D-03 -0.13688937D-03  0.44305349D-04  0.10102785D-03
 -0.11049360D-04  0.88837842D-05  0.25446459D-04 -0.34330243D-04 -0.82491441D-04
  0.15077974D-03  0.42439275D-04  0.21362205D-04  0.79934679D-05 -0.29355673D-04
 -0.26708545D-04 -0.12700999D-04  0.52862543D-04  0.49072792D-05  0.91809957D-05
  0.15862724D-04  0.25715340D-04  0.39051211D-04  0.54277509D-04  0.64531799D-04
  0.57487169D-04  0.28549344D-04  0.45962028D-05  0.48492655D-07  0.22000926D-07
  0.73391406D-06  0.25575436D-05  0.92101285D-05  0.20302582D-04  0.28579483D-04
 -0.13633345D-05 -0.37401217D-04 -0.22115105D-04  0.23096208D-08  0.27975148D-07
  0.58339223D-07  0.16730673D-06  0.86880057D-08 -0.72150778D-06 -0.18642375D-05
  0.15188930D-05 -0.16428109D-05 -0.35064063D-05 -0.68769025D-06  0.12909831D+00
  0.17005268D+00  0.18759472D+00  0.15581211D+00  0.82740552D-01  0.21347495D-01
  0.11610011D+02  0.15293100D+02  0.16870683D+02  0.14012423D+02  0.74409856D+01
  0.19198132D+01 -0.54260644D-02 -0.71473961D-02 -0.78846968D-02 -0.65488580D-02
 -0.34776253D-02 -0.89724551D-03 -0.51309372D-05  0.49602600D-04  0.69944844D-04
  0.10003963D-03 -0.50658660D-06 -0.91745775D-04 -0.45950200D-03  0.44421697D-02
  0.62639230D-02  0.89590669D-02 -0.45367454D-04 -0.82163093D-02  0.26204604D-06
 -0.25332925D-05 -0.35722069D-05 -0.51092009D-05  0.25872274D-07  0.46856191D-05
  0.85286338D-03  0.76650370D-01 -0.36538140D-04 -0.69401390D-05 -0.64305094D-03
  0.11939074D-05 -0.62608027D-06 -0.57930911D-04  0.70628205D-07  0.12394503D-04
 -0.12539320D-04  0.14481743D-06 -0.18715379D-06 -0.11329171D-04 -0.98101363D-03
 -0.43372878D-05  0.44086152D-05 -0.71327433D-07 -0.29302425D-07  0.42505815D-05
  0.35668823D-03  0.12509073D-05 -0.12632759D-05  0.12368605D-07  0.16804236D-07
 -0.80785440D-06 -0.61267306D-04  0.12295639D-06  0.26365341D-05  0.52283573D-07
  0.46725229D-08  0.20135631D-05  0.34841894D-04 -0.37354169D-06 -0.99231654D-05
 -0.34998744D-04  0.13042386D-05  0.14689809D-06  0.14592362D-04 -0.87208033D-07
  0.15925380D-06  0.14804330D-04 -0.69858368D-05 -0.59994808D-06 -0.58581415D-04
  0.72474609D-05 -0.27564092D-06  0.12006299D-05  0.22379763D-05  0.37938684D-05
  0.57444298D-05  0.71818025D-05  0.61776380D-05  0.23692571D-05 -0.46630220D-08
 -0.61729681D-07 -0.22421343D-06 -0.66512492D-06 -0.76642213D-06  0.93093383D-06
 -0.28396750D-07 -0.23031679D-05 -0.12906069D-05 -0.42919490D-05 -0.41974324D-05
 -0.27734210D-05 -0.29187933D-03 -0.28545161D-03 -0.18860995D-03 -0.19144900D-05
 -0.18723294D-05 -0.12371272D-05 -0.30522235D-06 -0.88096933D-05 -0.96985245D-06
 -0.97189589D-06 -0.66983703D-04 -0.59065863D-06 -0.20863848D-06 -0.19499777D-04
 -0.12092537D-06  0.70539824D-04 -0.71094142D-04  0.55431803D-06  0.26726631D-05
 -0.58425413D-06 -0.13084831D-03 -0.35305211D-04  0.35747114D-04 -0.44190248D-06
 -0.13185034D-05  0.78990368D-06  0.10122214D-03  0.17783275D-04 -0.18130457D-04
  0.34718218D-06  0.61314099D-06 -0.89517522D-06 -0.74131027D-04 -0.10661617D-05
 -0.71392283D-04 -0.14142644D-05 -0.10803180D-05 -0.73138063D-04 -0.18563732D-03
  0.42788030D-05  0.28731491D-03  0.18988011D-03 -0.58457654D-05  0.38823146D-06
  0.25396634D-04  0.50752745D-06  0.38842978D-06  0.25912631D-04  0.58823995D-04
 -0.15531242D-05 -0.10210253D-03 -0.60346578D-04  0.18242973D-05
MO    3     MO 0.0        OCC NO =    2.0000210  ORB. ENERGY =    0.000000
 -0.14462344D-01 -0.26960722D-01 -0.45567293D-01 -0.68496140D-01 -0.84135240D-01
 -0.71007174D-01 -0.26700552D-01 -0.38184843D-05 -0.28540804D-04 -0.10666350D-03
 -0.29757456D-03 -0.39866787D-03  0.47075242D-03 -0.87152514D-03 -0.19298598D-02
 -0.81709910D-04 -0.16221916D-05 -0.15209077D-05 -0.10829769D-05 -0.85672195D-06
 -0.80323129D-06 -0.57194853D-06  0.11663524D-02  0.10935295D-02  0.77865816D-03
  0.69594969D-05  0.25049464D-05  0.60569195D-03  0.37883444D-05 -0.18854540D-05
 -0.37868578D-03 -0.21271683D-07  0.62258275D-07  0.46718581D-05 -0.10437342D-03
 -0.10588730D-03  0.21026072D-03  0.19042352D-05  0.10353060D-06 -0.27726475D-06
 -0.23395139D-04 -0.25371617D-04  0.48766756D-04  0.24904506D-05 -0.18030451D-05
  0.16759511D-06  0.11263823D-04  0.11658618D-04 -0.22922441D-04  0.47880773D-06
  0.34851708D-06 -0.34869947D-06  0.43364476D-06  0.36222255D-04  0.76201643D-05
 -0.69353038D-06 -0.10883072D-03 -0.11760738D-04 -0.60740390D-06  0.16395053D-06
 -0.11099755D-04 -0.25299488D-06  0.36126264D-06  0.52004569D-04 -0.85566513D-04
 -0.12703662D-05 -0.15569065D-03  0.12829479D-03  0.18657823D-06 -0.32305981D-06
  0.12840475D-03 -0.39933535D-06 -0.46735607D-05 -0.84289591D-05 -0.12428495D-04
  0.75415543D-03  0.23208665D-03  0.51782642D-05 -0.88610989D-06  0.95807707D-04
  0.28763143D-04  0.27363100D-05  0.20088736D-03 -0.42013863D-05  0.75090379D-06
  0.43645825D-04  0.38221206D-04 -0.74110132D-04  0.54690303D-04  0.19419829D-04
  0.75929387D-06  0.95191512D-06  0.76178366D-04 -0.97606040D-05 -0.11844373D-04
  0.21604977D-04  0.54594392D-06 -0.12799242D-06 -0.34461619D-04 -0.48551423D-05
 -0.87564491D-05 -0.12911379D-04  0.75762098D-03  0.24403835D-03  0.50064723D-05
  0.83528204D-04 -0.48011552D-04  0.28578754D-04  0.17414940D-03 -0.10211104D-03
 -0.43659160D-05  0.39164947D-04 -0.22839121D-04  0.39394254D-04  0.22313442D-04
 -0.41650939D-04  0.19337497D-04 -0.11216458D-03  0.65568070D-04 -0.38373573D-04
 -0.11383223D-04 -0.10384250D-04  0.21767472D-04  0.17426232D-05 -0.30141887D-04
  0.17302997D-04 -0.53555132D-05 -0.96588887D-05 -0.14242026D-04  0.74464089D-03
  0.22772116D-03  0.49286001D-05 -0.81496396D-04 -0.46664137D-04  0.26962612D-04
 -0.16910038D-03 -0.10406710D-03 -0.27871653D-05 -0.36419493D-04 -0.22503113D-04
  0.38243878D-04  0.21008805D-04 -0.40082157D-04  0.19073352D-04  0.11267106D-03
 -0.64402302D-04 -0.39472737D-04 -0.11781081D-04 -0.99836565D-05  0.21764737D-04
 -0.21035915D-05  0.29499277D-04  0.17389132D-04 -0.15462880D+00 -0.28929398D+00
 -0.49983583D+00 -0.81029261D+00 -0.12305071D+01 -0.17102891D+01 -0.20334027D+01
 -0.18114257D+01 -0.89959233D+00 -0.14482675D+00 -0.15280078D-02 -0.72296429D-03
 -0.24116878D-01 -0.84042493D-01 -0.30265063D+00 -0.66715564D+00 -0.93913982D+00
  0.44800030D-01  0.12290275D+01  0.72671629D+00 -0.15533175D-04 -0.18814468D-03
 -0.39235589D-03 -0.11252084D-02 -0.58430505D-04  0.48524442D-02  0.12537784D-01
 -0.10215196D-01  0.46608572D-01 -0.38469520D-03 -0.13201521D-03  0.27700566D-03
  0.36488126D-03  0.40252114D-03  0.33432533D-03  0.17753603D-03  0.45805223D-04
  0.30271145D-02  0.39874180D-02  0.43987462D-02  0.36535031D-02  0.19401115D-02
  0.50055892D-03  0.59385413D+01  0.78224481D+01  0.86293847D+01  0.71673797D+01
  0.38060775D+01  0.98198789D+00 -0.96000905D-08  0.92807498D-07  0.13086826D-06
  0.18717623D-06 -0.94783409D-09 -0.17165826D-06 -0.94384530D-07  0.91244890D-06
  0.12866482D-05  0.18402473D-05 -0.93187532D-08 -0.16876803D-05 -0.21066126D-03
  0.20365375D-02  0.28717305D-02  0.41073342D-02 -0.20798962D-04 -0.37668129D-02
  0.24097573D-05  0.20805289D-04  0.41633772D-01 -0.21336164D-06 -0.70249996D-07
 -0.48362352D-03  0.22383951D-07 -0.34393628D-07 -0.98365986D-05 -0.75189387D-05
 -0.72818296D-05  0.14800768D-04 -0.14930490D-06 -0.42497085D-07  0.69241671D-06
 -0.11118157D-03 -0.11125466D-03  0.22243622D-03  0.29686708D-07  0.31149445D-06
 -0.98590365D-07 -0.14279562D-04 -0.14330650D-04  0.28610213D-04 -0.61501062D-08
  0.87217612D-07  0.28369335D-07 -0.81350597D-07 -0.72300513D-05  0.54539579D-05
  0.14281812D-06  0.21668325D-04 -0.78799751D-05  0.10123367D-06  0.21829038D-07
 -0.84818987D-05 -0.91050650D-07  0.45798248D-07  0.20572672D-05 -0.33662767D-04
 -0.17611656D-07 -0.61590617D-05  0.50363638D-04 -0.11978309D-06 -0.12739908D-07
  0.50624662D-04 -0.50473191D-08 -0.87906920D-03 -0.16385865D-02 -0.27777692D-02
 -0.42059182D-02 -0.52583241D-02 -0.45231017D-02 -0.17347068D-02 -0.68260592D-06
 -0.90364242D-05 -0.32821937D-04 -0.97365658D-04 -0.11219425D-03  0.13627663D-03
 -0.95886826D-04 -0.15886583D-03  0.12559821D-04  0.10261687D-05  0.10035706D-05
  0.66310152D-06  0.23798190D-05  0.23274110D-05  0.15378189D-05  0.39004961D-02
  0.38146000D-02  0.25204675D-02  0.57240934D-08  0.97177258D-06  0.87888551D-03
  0.11116652D-06 -0.11193964D-06  0.21572445D-04  0.47338581D-07 -0.13670235D-07
  0.93442995D-05 -0.35579330D-04 -0.35702851D-04  0.71282181D-04 -0.44269991D-06
  0.42768547D-06 -0.76165990D-06  0.21034577D-04  0.21100977D-04 -0.42135554D-04
  0.20273589D-06 -0.21545033D-06  0.32552915D-06  0.18143477D-04  0.18094071D-04
 -0.36237549D-04 -0.88558672D-07 -0.46451484D-07 -0.14651514D-06 -0.21953586D-06
 -0.29411430D-05  0.46628141D-04 -0.12558810D-06  0.93647810D-05 -0.70597830D-04
  0.78419569D-06 -0.54135189D-06 -0.69286593D-04  0.62358926D-06  0.88576724D-07
  0.92605088D-06 -0.25461026D-04  0.59120832D-07 -0.29387689D-05  0.38381332D-04
 -0.32485100D-06  0.16061629D-06  0.38001747D-04 -0.19804517D-06
MO    4     MO 0.0        OCC NO =    2.0000123  ORB. ENERGY =    0.000000
  0.26635458D-01  0.49653859D-01  0.83921787D-01  0.12615010D+00  0.15495280D+00
  0.13077470D+00  0.49174701D-01 -0.14915103D-05 -0.11148115D-04 -0.41663052D-04
 -0.11623343D-03 -0.15572075D-03  0.18387717D-03  0.26311461D-02 -0.36000029D-02
 -0.41400815D-04  0.37878964D-05  0.35513936D-05  0.25288038D-05  0.29234051D-05
  0.27408781D-05  0.19516685D-05  0.36691327D-02  0.34400451D-02  0.24495171D-02
  0.99901148D-05  0.62190116D-05  0.13032459D-02  0.66774434D-05 -0.78518693D-06
 -0.41605155D-03 -0.69967230D-08  0.68554331D-07  0.37276262D-05 -0.31904284D-03
 -0.31969656D-03  0.63873941D-03  0.17786747D-05  0.88805177D-06  0.10630878D-06
  0.12588496D-04  0.61697188D-05 -0.18758215D-04  0.27691122D-05 -0.33317025D-05
 -0.45921974D-06 -0.17541448D-04 -0.18170798D-04  0.35712246D-04  0.34969674D-06
  0.52601655D-06 -0.25987331D-06 -0.30271718D-06 -0.41848108D-04  0.22312919D-04
  0.10366473D-05  0.12537313D-03 -0.33930063D-04 -0.12849571D-06  0.17119855D-06
 -0.33008693D-04 -0.74036622D-06  0.53555611D-06  0.82120620D-04 -0.16359762D-03
 -0.20364401D-05 -0.24568041D-03  0.24472235D-03  0.42977180D-06 -0.68144855D-06
  0.24607050D-03 -0.19539879D-06 -0.90206763D-04 -0.16269161D-03 -0.23988869D-03
  0.10268185D-02  0.68624706D-03  0.43655699D-05 -0.13447920D-05 -0.57209922D-04
  0.34476403D-04  0.34435817D-05  0.30814540D-03 -0.44110785D-04  0.74141027D-06
  0.11132336D-03  0.75444935D-04 -0.14292402D-03  0.25311348D-04  0.11761267D-03
 -0.21508624D-06  0.16858903D-05  0.14295996D-03 -0.14971817D-04 -0.20635626D-04
  0.35607443D-04  0.68538392D-06 -0.62796130D-07 -0.62784134D-04 -0.90153410D-04
 -0.16259539D-03 -0.23974680D-03  0.10259639D-02  0.69258523D-03  0.42304297D-05
 -0.48915269D-04  0.28862407D-04  0.33760696D-04  0.26539070D-03 -0.15431279D-03
 -0.43408343D-04  0.97894830D-04 -0.55820168D-04  0.76647799D-04 -0.16396817D-04
 -0.10129085D-03  0.11768766D-03 -0.14582672D-03  0.12320485D-03 -0.71556990D-04
 -0.19225717D-04 -0.16634084D-04  0.35859801D-04  0.52605478D-05 -0.54894001D-04
  0.31261610D-04 -0.89835461D-04 -0.16202195D-03 -0.23890128D-03  0.10081303D-02
  0.66675073D-03  0.40781384D-05  0.51647159D-04  0.32514204D-04  0.30659693D-04
 -0.25890105D-03 -0.15718306D-03 -0.40325304D-04 -0.93763549D-04 -0.55279373D-04
  0.74935330D-04 -0.19247342D-04 -0.99089141D-04  0.11833648D-03  0.14172326D-03
 -0.12022256D-03 -0.73059731D-04 -0.19554640D-04 -0.16111148D-04  0.35665787D-04
 -0.55345334D-05  0.53665923D-04  0.31189537D-04  0.91277517D-01  0.17077049D+00
  0.29505354D+00  0.47831645D+00  0.72636943D+00  0.10095852D+01  0.12003194D+01
  0.10692862D+01  0.53103015D+00  0.85491362D-01  0.90198437D-03  0.42736011D-03
  0.14256018D-01  0.49679368D-01  0.17890345D+00  0.39437039D+00  0.55514623D+00
 -0.26482284D-01 -0.72650524D+00 -0.42957800D+00  0.62755532D-05  0.76012275D-04
  0.15851559D-03  0.45459510D-03  0.23606491D-04 -0.19604345D-02 -0.50653864D-02
  0.41270384D-02 -0.28533816D-01  0.14170223D-02 -0.18234417D-03  0.50487077D-02
  0.66503291D-02  0.73363540D-02  0.60934164D-02  0.32357732D-02  0.83484640D-03
  0.44492607D-02  0.58607172D-02  0.64652885D-02  0.53699283D-02  0.28515809D-02
  0.73572279D-03  0.99166663D+01  0.13062569D+02  0.14410059D+02  0.11968682D+02
  0.63557023D+01  0.16398044D+01 -0.17100393D-06  0.16531559D-05  0.23311224D-05
  0.33341217D-05 -0.16883523D-07 -0.30577041D-05 -0.13063298D-06  0.12628756D-05
  0.17807865D-05  0.25469957D-05 -0.12897628D-07 -0.23358353D-05 -0.33685799D-03
  0.32565263D-02  0.45920420D-02  0.65678348D-02 -0.33258591D-04 -0.60233240D-02
  0.36838763D-04  0.31958361D-04  0.72571491D-01 -0.35736329D-06 -0.11591576D-07
 -0.30559622D-03  0.13587282D-07 -0.40278966D-07 -0.39343930D-05  0.45404753D-03
  0.45410052D-03 -0.90814805D-03 -0.22919953D-06 -0.16119370D-05 -0.25961348D-06
 -0.30937818D-03 -0.30945157D-03  0.61882975D-03  0.44758803D-07  0.99485771D-06
  0.21519818D-06  0.44200936D-05  0.43736954D-05 -0.87937890D-05  0.25553884D-07
  0.70310823D-07  0.17359685D-07 -0.13829460D-06 -0.14537277D-04 -0.46977392D-04
  0.31215970D-06  0.43639587D-04  0.70937960D-04  0.10272409D-06 -0.27756919D-07
  0.69994217D-04  0.13790869D-06  0.92770409D-07  0.41906453D-05 -0.62454489D-04
 -0.35954836D-07 -0.12515039D-04  0.93455492D-04 -0.24235639D-06 -0.56896407D-07
  0.93907974D-04 -0.10366136D-06 -0.63502904D-02 -0.11836952D-01 -0.20066271D-01