 Entering Gaussian System, Link 0=/home/bruns/programas/chemistry/gaussian/g09/g09
 Input=clch3f_ts.com
 Output=clch3f_ts.log
 Initial command:
 /home/bruns/programas/chemistry/gaussian/g09/l1.exe /home/bruns/programas/chemistry/gaussian/work/Gau-46348.inp -scrdir=/home/bruns/programas/chemistry/gaussian/work/
 Entering Link 1 = /home/bruns/programas/chemistry/gaussian/g09/l1.exe PID=     46350.
  
 Copyright (c) 1988,1990,1992,1993,1995,1998,2003,2009,2010,
            Gaussian, Inc.  All Rights Reserved.
  
 This is part of the Gaussian(R) 09 program.  It is based on
 the Gaussian(R) 03 system (copyright 2003, Gaussian, Inc.),
 the Gaussian(R) 98 system (copyright 1998, Gaussian, Inc.),
 the Gaussian(R) 94 system (copyright 1995, Gaussian, Inc.),
 the Gaussian 92(TM) system (copyright 1992, Gaussian, Inc.),
 the Gaussian 90(TM) system (copyright 1990, Gaussian, Inc.),
 the Gaussian 88(TM) system (copyright 1988, Gaussian, Inc.),
 the Gaussian 86(TM) system (copyright 1986, Carnegie Mellon
 University), and the Gaussian 82(TM) system (copyright 1983,
 Carnegie Mellon University). Gaussian is a federally registered
 trademark of Gaussian, Inc.
  
 This software contains proprietary and confidential information,
 including trade secrets, belonging to Gaussian, Inc.
  
 This software is provided under written license and may be
 used, copied, transmitted, or stored only in accord with that
 written license.
  
 The following legend is applicable only to US Government
 contracts under FAR:
  
                    RESTRICTED RIGHTS LEGEND
  
 Use, reproduction and disclosure by the US Government is
 subject to restrictions as set forth in subparagraphs (a)
 and (c) of the Commercial Computer Software - Restricted
 Rights clause in FAR 52.227-19.
  
 Gaussian, Inc.
 340 Quinnipiac St., Bldg. 40, Wallingford CT 06492
  
  
 ---------------------------------------------------------------
 Warning -- This program may not be used in any manner that
 competes with the business of Gaussian, Inc. or will provide
 assistance to any competitor of Gaussian, Inc.  The licensee
 of this program is prohibited from giving any competitor of
 Gaussian, Inc. access to this program.  By using this program,
 the user acknowledges that Gaussian, Inc. is engaged in the
 business of creating and licensing software in the field of
 computational chemistry and represents and warrants to the
 licensee that it is not a competitor of Gaussian, Inc. and that
 it will not use this program in any manner prohibited above.
 ---------------------------------------------------------------
  

 Cite this work as:
 Gaussian 09, Revision B.01,
 M. J. Frisch, G. W. Trucks, H. B. Schlegel, G. E. Scuseria, 
 M. A. Robb, J. R. Cheeseman, G. Scalmani, V. Barone, B. Mennucci, 
 G. A. Petersson, H. Nakatsuji, M. Caricato, X. Li, H. P. Hratchian, 
 A. F. Izmaylov, J. Bloino, G. Zheng, J. L. Sonnenberg, M. Hada, 
 M. Ehara, K. Toyota, R. Fukuda, J. Hasegawa, M. Ishida, T. Nakajima, 
 Y. Honda, O. Kitao, H. Nakai, T. Vreven, J. A. Montgomery, Jr., 
 J. E. Peralta, F. Ogliaro, M. Bearpark, J. J. Heyd, E. Brothers, 
 K. N. Kudin, V. N. Staroverov, T. Keith, R. Kobayashi, J. Normand, 
 K. Raghavachari, A. Rendell, J. C. Burant, S. S. Iyengar, J. Tomasi, 
 M. Cossi, N. Rega, J. M. Millam, M. Klene, J. E. Knox, J. B. Cross, 
 V. Bakken, C. Adamo, J. Jaramillo, R. Gomperts, R. E. Stratmann, 
 O. Yazyev, A. J. Austin, R. Cammi, C. Pomelli, J. W. Ochterski, 
 R. L. Martin, K. Morokuma, V. G. Zakrzewski, G. A. Voth, 
 P. Salvador, J. J. Dannenberg, S. Dapprich, A. D. Daniels, 
 O. Farkas, J. B. Foresman, J. V. Ortiz, J. Cioslowski, 
 and D. J. Fox, Gaussian, Inc., Wallingford CT, 2010.
 
 ******************************************
 Gaussian 09:  EM64L-G09RevB.01 12-Aug-2010
                21-Jun-2020 
 ******************************************
 %chk=./clch3f_ts.chk
 %mem = 8Gb
 %nproc = 8
 Will use up to    8 processors via shared memory.
 ---------------------------------------------------------------------
 #opt=(TS, calcall, noeigentest) HF aug-cc-pvtz density=current nosymm
 ---------------------------------------------------------------------
 1/5=1,10=4,11=1,18=20,38=1/1,3;
 2/9=110,12=2,15=1,17=6,18=5,40=1/2;
 3/5=16,6=1,7=10,11=9,16=1,25=1,30=1,71=2/1,2,3;
 4//1;
 5/5=2,38=5/2;
 8/6=4,10=90,11=11/1;
 11/6=1,8=1,9=11,15=111,16=1,31=1/1,2,10;
 10/6=1,31=1/2;
 6/7=2,8=2,9=2,10=2,18=1,22=-1,28=1/1;
 7/10=1,25=1,30=1/1,2,3,16;
 1/5=1,10=4,11=1,18=20/3(3);
 2/9=110,15=1/2;
 7/8=1,9=1,25=1,30=1,44=-1/16;
 99//99;
 2/9=110,15=1/2;
 3/5=16,6=1,7=10,11=9,16=1,25=1,30=1,71=2/1,2,3;
 4/5=5,16=3/1;
 5/5=2,38=5/2;
 8/6=4,10=90,11=11/1;
 11/6=1,8=1,9=11,15=111,16=1,31=1/1,2,10;
 10/6=1,31=1/2;
 7/10=1,25=1,30=1/1,2,3,16;
 1/5=1,10=4,11=1,18=20/3(-8);
 2/9=110,15=1/2;
 6/7=2,8=2,9=2,10=2,18=1,19=2,22=-1,28=1/1;
 7/8=1,9=1,25=1,30=1,44=-1/16;
 99//99;
 -------------------
 Title Card Required
 -------------------
 Symbolic Z-matrix:
 Charge = -1 Multiplicity = 1
 C                    -0.00003  0.        -0.51507 
 H                     0.00024  -1.06405  -0.62487 
 H                    -0.92152   0.53272  -0.62375 
 H                     0.92164   0.53204  -0.62466 
 Cl                    0.00057   0.00092   1.59343 
 F                     0.0001   -0.00163  -2.51507 
 

 GradGradGradGradGradGradGradGradGradGradGradGradGradGradGradGradGradGrad
 Berny optimization.
 Initialization pass.
                           ----------------------------
                           !    Initial Parameters    !
                           ! (Angstroms and Degrees)  !
 --------------------------                            --------------------------
 ! Name  Definition              Value          Derivative Info.                !
 --------------------------------------------------------------------------------
 ! R1    R(1,2)                  1.0697         calculate D2E/DX2 analytically  !
 ! R2    R(1,3)                  1.0699         calculate D2E/DX2 analytically  !
 ! R3    R(1,4)                  1.0698         calculate D2E/DX2 analytically  !
 ! R4    R(1,5)                  2.1085         calculate D2E/DX2 analytically  !
 ! R5    R(1,6)                  2.0            calculate D2E/DX2 analytically  !
 ! R6    R(2,6)                  2.1683         calculate D2E/DX2 analytically  !
 ! R7    R(3,6)                  2.1707         calculate D2E/DX2 analytically  !
 ! R8    R(4,6)                  2.1697         calculate D2E/DX2 analytically  !
 ! A1    A(2,1,3)              119.0163         calculate D2E/DX2 analytically  !
 ! A2    A(2,1,4)              118.944          calculate D2E/DX2 analytically  !
 ! A3    A(2,1,5)               95.9166         calculate D2E/DX2 analytically  !
 ! A4    A(3,1,4)              118.9448         calculate D2E/DX2 analytically  !
 ! A5    A(3,1,5)               95.8314         calculate D2E/DX2 analytically  !
 ! A6    A(4,1,5)               95.853          calculate D2E/DX2 analytically  !
 ! A7    A(2,6,3)               50.2905         calculate D2E/DX2 analytically  !
 ! A8    A(2,6,4)               50.2806         calculate D2E/DX2 analytically  !
 ! A9    A(3,6,4)               50.257          calculate D2E/DX2 analytically  !
 ! A10   L(5,1,6,-1,-1)        180.0215         calculate D2E/DX2 analytically  !
 ! A11   L(5,1,6,-2,-2)        180.0199         calculate D2E/DX2 analytically  !
 ! D1    D(2,1,4,3)            159.9294         calculate D2E/DX2 analytically  !
 ! D2    D(2,1,5,3)           -120.0514         calculate D2E/DX2 analytically  !
 ! D3    D(2,1,5,4)            119.9815         calculate D2E/DX2 analytically  !
 ! D4    D(3,1,5,4)           -119.9671         calculate D2E/DX2 analytically  !
 ! D5    D(3,2,6,1)             33.4869         calculate D2E/DX2 analytically  !
 ! D6    D(4,2,6,1)            -33.5272         calculate D2E/DX2 analytically  !
 ! D7    D(4,3,6,1)             33.549          calculate D2E/DX2 analytically  !
 --------------------------------------------------------------------------------
 Trust Radius=3.00D-01 FncErr=1.00D-07 GrdErr=1.00D-07
 Number of steps in this run=     36 maximum allowed number of steps=    100.
 Search for a saddle point of order  1.
 GradGradGradGradGradGradGradGradGradGradGradGradGradGradGradGradGradGrad

                          Input orientation:                          
 ---------------------------------------------------------------------
 Center     Atomic      Atomic             Coordinates (Angstroms)
 Number     Number       Type             X           Y           Z
 ---------------------------------------------------------------------
      1          6           0       -0.000028   -0.000003   -0.515072
      2          1           0        0.000239   -1.064046   -0.624872
      3          1           0       -0.921522    0.532716   -0.623752
      4          1           0        0.921642    0.532040   -0.624663
      5         17           0        0.000565    0.000918    1.593430
      6          9           0        0.000104   -0.001627   -2.515071
 ---------------------------------------------------------------------
                    Distance matrix (angstroms):
                    1          2          3          4          5
     1  C    0.000000
     2  H    1.069693   0.000000
     3  H    1.069931   1.843717   0.000000
     4  H    1.069839   1.842953   1.843164   0.000000
     5  Cl   2.108502   2.460693   2.459461   2.459758   0.000000
     6  F    2.000000   2.168314   2.170715   2.169718   4.108502
                    6
     6  F    0.000000
 Symmetry turned off by external request.
 Stoichiometry    CH3ClF(1-)
 Framework group  C1[X(CH3ClF)]
 Deg. of freedom    12
 Full point group                 C1      NOp   1
 Rotational constants (GHZ):    147.5876810      2.3502049      2.3501864
 Standard basis: Aug-CC-pVTZ (5D, 7F)
 Integral buffers will be    131072 words long.
 Raffenetti 1 integral format.
 Two-electron integral symmetry is turned off.
   211 basis functions,   339 primitive gaussians,   244 cartesian basis functions
    18 alpha electrons       18 beta electrons
       nuclear repulsion energy        86.9146858813 Hartrees.
 NAtoms=    6 NActive=    6 NUniq=    6 SFac= 1.00D+00 NAtFMM=   50 NAOKFM=F Big=F
 One-electron integrals computed using PRISM.
 NBasis=   211 RedAO= T  NBF=   211
 NBsUse=   211 1.00D-06 NBFU=   211
 Harris functional with IExCor=  205 diagonalized for initial guess.
 ExpMin= 2.53D-02 ExpMax= 4.56D+05 ExpMxC= 1.44D+03 IAcc=3 IRadAn=         0 AccDes= 0.00D+00
 HarFok:  IExCor=  205 AccDes= 0.00D+00 IRadAn=         0 IDoV= 1
 ScaDFX=  1.000000  1.000000  1.000000  1.000000
 FoFCou: FMM=F IPFlag=           0 FMFlag=      100000 FMFlg1=           0
         NFxFlg=           0 DoJE=T BraDBF=F KetDBF=T FulRan=T
         Omega=  0.000000  0.000000  1.000000  0.000000  0.000000 ICntrl=     500 IOpCl=  0
         NMat0=    1 NMatS0=    1 NMatT0=    0 NMatD0=    1 NMtDS0=    0 NMtDT0=    0
         I1Cent=           4 NGrid=           0.
 Symmetry not used in FoFCou.
 Requested convergence on RMS density matrix=1.00D-08 within 128 cycles.
 Requested convergence on MAX density matrix=1.00D-06.
 Requested convergence on             energy=1.00D-06.
 No special actions if energy rises.
 Keep R1 ints in memory in canonical form, NReq=454274131.
 DSYEVD returned Info=         317 IAlg= 4 N=   211 NDim=   211 NE2=     2970790 trying DSYEV.
 SCF Done:  E(RHF) =  -598.615846718     A.U. after   12 cycles
             Convg  =    0.8564D-08             -V/T =  2.0001
 Range of M.O.s used for correlation:     1   211
 NBasis=   211 NAE=    18 NBE=    18 NFC=     0 NFV=     0
 NROrb=    211 NOA=    18 NOB=    18 NVA=   193 NVB=   193

 **** Warning!!: The largest alpha MO coefficient is  0.35132115D+02

 Symmetrizing basis deriv contribution to polar:
 IMax=3 JMax=2 DiffMx= 0.00D+00
 G2DrvN: will do     7 centers at a time, making    1 passes doing MaxLOS=3.
 Calling FoFCou, ICntrl=  3107 FMM=F I1Cent=   0 AccDes= 0.00D+00.
 FoFDir/FoFCou used for L=0 through L=3.
 End of G2Drv Frequency-dependent properties file   721 does not exist.
 End of G2Drv Frequency-dependent properties file   722 does not exist.
          IDoAtm=111111
          Differentiating once with respect to electric field.
                with respect to dipole field.
          Differentiating once with respect to nuclear coordinates.
          Keep R1 ints in memory in canonical form, NReq=448662365.
          There are    21 degrees of freedom in the 1st order CPHF.  IDoFFX=5.
     18 vectors produced by pass  0 Test12= 1.65D-14 4.76D-09 XBig12= 1.79D+01 2.88D+00.
 AX will form    18 AO Fock derivatives at one time.
     18 vectors produced by pass  1 Test12= 1.65D-14 4.76D-09 XBig12= 1.21D+00 2.68D-01.
     18 vectors produced by pass  2 Test12= 1.65D-14 4.76D-09 XBig12= 7.66D-02 7.43D-02.
     18 vectors produced by pass  3 Test12= 1.65D-14 4.76D-09 XBig12= 2.19D-03 1.27D-02.
     18 vectors produced by pass  4 Test12= 1.65D-14 4.76D-09 XBig12= 3.83D-05 1.53D-03.
     18 vectors produced by pass  5 Test12= 1.65D-14 4.76D-09 XBig12= 3.08D-07 1.05D-04.
     18 vectors produced by pass  6 Test12= 1.65D-14 4.76D-09 XBig12= 2.51D-09 8.51D-06.
      8 vectors produced by pass  7 Test12= 1.65D-14 4.76D-09 XBig12= 2.37D-11 1.50D-06.
      3 vectors produced by pass  8 Test12= 1.65D-14 4.76D-09 XBig12= 1.97D-13 6.95D-08.
      1 vectors produced by pass  9 Test12= 1.65D-14 4.76D-09 XBig12= 1.46D-15 7.34D-09.
 Inverted reduced A of dimension   138 with in-core refinement.
 Isotropic polarizability for W=    0.000000       44.25 Bohr**3.
 End of Minotr Frequency-dependent properties file   721 does not exist.
 End of Minotr Frequency-dependent properties file   722 does not exist.

 **********************************************************************

            Population analysis using the SCF density.

 **********************************************************************

 Alpha  occ. eigenvalues -- -104.60297 -25.92436 -11.13903 -10.32816  -7.79451
 Alpha  occ. eigenvalues --   -7.79380  -7.79380  -1.18392  -0.87637  -0.74454
 Alpha  occ. eigenvalues --   -0.45337  -0.45321  -0.32580  -0.27955  -0.27954
 Alpha  occ. eigenvalues --   -0.24071  -0.24069  -0.22388
 Alpha virt. eigenvalues --    0.14869   0.15290   0.15293   0.19099   0.25105
 Alpha virt. eigenvalues --    0.25109   0.25145   0.26572   0.26573   0.28028
 Alpha virt. eigenvalues --    0.34809   0.34812   0.35480   0.36294   0.41712
 Alpha virt. eigenvalues --    0.42755   0.42759   0.47259   0.47264   0.47391
 Alpha virt. eigenvalues --    0.48545   0.49420   0.49424   0.51706   0.54216
 Alpha virt. eigenvalues --    0.54510   0.54512   0.60043   0.60052   0.62158
 Alpha virt. eigenvalues --    0.62166   0.63479   0.63480   0.63883   0.68620
 Alpha virt. eigenvalues --    0.68630   0.69370   0.82980   0.91036   0.91040
 Alpha virt. eigenvalues --    0.91064   0.92773   0.92775   0.92945   1.01078
 Alpha virt. eigenvalues --    1.01284   1.01739   1.01753   1.05475   1.05493
 Alpha virt. eigenvalues --    1.09149   1.09153   1.09879   1.14229   1.14488
 Alpha virt. eigenvalues --    1.14494   1.20768   1.20777   1.21321   1.22308
 Alpha virt. eigenvalues --    1.22332   1.27171   1.27184   1.27768   1.33958
 Alpha virt. eigenvalues --    1.33976   1.34936   1.38564   1.38569   1.39142
 Alpha virt. eigenvalues --    1.40773   1.40785   1.45094   1.45129   1.46607
 Alpha virt. eigenvalues --    1.48143   1.57206   1.57240   1.61776   1.67847
 Alpha virt. eigenvalues --    1.71466   1.74373   1.74394   1.77890   1.81846
 Alpha virt. eigenvalues --    1.81860   1.84011   1.85605   1.85624   1.93680
 Alpha virt. eigenvalues --    1.93694   1.96074   2.04029   2.05022   2.05038
 Alpha virt. eigenvalues --    2.10611   2.12320   2.12336   2.21444   2.25263
 Alpha virt. eigenvalues --    2.30799   2.30815   2.36884   2.36912   2.56404
 Alpha virt. eigenvalues --    2.78196   2.79027   2.79031   2.86666   2.86668
 Alpha virt. eigenvalues --    3.01699   3.01721   3.02707   3.19146   3.19206
 Alpha virt. eigenvalues --    3.24348   3.29606   3.30281   3.31283   3.31309
 Alpha virt. eigenvalues --    3.31540   3.34630   3.34644   3.36001   3.39044
 Alpha virt. eigenvalues --    3.39595   3.39597   3.46809   3.48230   3.50472
 Alpha virt. eigenvalues --    3.50473   3.61053   3.61113   3.66712   3.66726
 Alpha virt. eigenvalues --    3.74695   3.80804   3.83184   3.83248   3.92019
 Alpha virt. eigenvalues --    3.92846   3.92876   3.94520   3.94562   4.10468
 Alpha virt. eigenvalues --    4.18281   4.18299   4.26117   4.32532   4.32576
 Alpha virt. eigenvalues --    4.48957   4.49001   4.57640   4.61566   4.68420
 Alpha virt. eigenvalues --    4.68553   4.98390   5.03469   5.03485   5.05364
 Alpha virt. eigenvalues --    5.14579   5.14598   5.14838   5.35418   5.46340
 Alpha virt. eigenvalues --    5.46440   5.60428   5.60431   5.78595   5.78651
 Alpha virt. eigenvalues --    5.91178   5.91243   5.94976   6.21284   6.66137
 Alpha virt. eigenvalues --    6.66223   6.75065   6.75140   7.42687   9.21212
 Alpha virt. eigenvalues --    9.22147   9.31223   9.31247   9.54867   9.54905
 Alpha virt. eigenvalues --    9.62500   9.72986   9.72988   9.84026   9.84043
 Alpha virt. eigenvalues --    9.92060  13.81609  18.00082
          Condensed to atoms (all electrons):
              1          2          3          4          5          6
     1  C    6.035949   0.304613   0.304397   0.304562  -0.095633  -0.151642
     2  H    0.304613   0.215494   0.014909   0.014897  -0.005984   0.018158
     3  H    0.304397   0.014909   0.215697   0.014934  -0.005906   0.018504
     4  H    0.304562   0.014897   0.014934   0.215688  -0.005939   0.018365
     5  Cl  -0.095633  -0.005984  -0.005906  -0.005939  17.807277   0.025980
     6  F   -0.151642   0.018158   0.018504   0.018365   0.025980   9.961464
 Mulliken atomic charges:
              1
     1  C   -0.702246
     2  H    0.437913
     3  H    0.437465
     4  H    0.437493
     5  Cl  -0.719795
     6  F   -0.890829
 Sum of Mulliken atomic charges =  -1.00000
 Mulliken charges with hydrogens summed into heavy atoms:
              1
     1  C    0.610624
     5  Cl  -0.719795
     6  F   -0.890829
 Sum of Mulliken charges with hydrogens summed into heavy atoms =  -1.00000
 APT atomic charges:
              1
     1  C    1.239559
     2  H   -0.019892
     3  H   -0.020082
     4  H   -0.020051
     5  Cl  -1.011636
     6  F   -1.167899
 Sum of APT charges=  -1.00000
 APT Atomic charges with hydrogens summed into heavy atoms:
              1
     1  C    1.179535
     2  H    0.000000
     3  H    0.000000
     4  H    0.000000
     5  Cl  -1.011636
     6  F   -1.167899
 Sum of APT charges=  -1.00000
 Electronic spatial extent (au):  <R**2>=            466.3690
 Charge=             -1.0000 electrons
 Dipole moment (field-independent basis, Debye):
    X=             -0.0018    Y=              0.0034    Z=              3.4527  Tot=              3.4527
 Quadrupole moment (field-independent basis, Debye-Ang):
   XX=            -27.5675   YY=            -27.5662   ZZ=            -61.7945
   XY=             -0.0013   XZ=             -0.0029   YZ=             -0.0200
 Traceless Quadrupole moment (field-independent basis, Debye-Ang):
   XX=             11.4086   YY=             11.4099   ZZ=            -22.8185
   XY=             -0.0013   XZ=             -0.0029   YZ=             -0.0200
 Octapole moment (field-independent basis, Debye-Ang**2):
  XXX=             -0.0274  YYY=             -1.0541  ZZZ=             42.4790  XYY=             -0.0097
  XXY=              1.0375  XXZ=             -5.2563  XZZ=             -0.0142  YZZ=              0.0312
  YYZ=             -5.2586  XYZ=              0.0001
 Hexadecapole moment (field-independent basis, Debye-Ang**3):
 XXXX=            -38.7297 YYYY=            -38.7284 ZZZZ=           -704.1681 XXXY=              0.0007
 XXXZ=             -0.0368 YYYX=             -0.0004 YYYZ=              0.5360 ZZZX=             -0.0330
 ZZZY=             -0.2560 XXYY=            -12.9089 XXZZ=            -95.0433 YYZZ=            -95.0402
 XXYZ=             -0.7323 YYXZ=             -0.0119 ZZXY=              0.0009
 N-N= 8.691468588130D+01 E-N=-1.608276860830D+03  KE= 5.985721993003D+02
  Exact polarizability:  34.242  -0.001  34.241   0.004   0.017  64.271
 Approx polarizability:  32.134  -0.001  32.133   0.002   0.009  46.799
 Calling FoFJK, ICntrl=    100127 FMM=F ISym2X=0 I1Cent= 0 IOpClX= 0 NMat=1 NMatS=1 NMatT=0.
 -------------------------------------------------------------------
 Center     Atomic                   Forces (Hartrees/Bohr)
 Number     Number              X              Y              Z
 -------------------------------------------------------------------
      1        6           0.000041578    0.000199778   -0.008010552
      2        1          -0.000069598    0.008392095    0.000925679
      3        1           0.007390952   -0.004347995    0.000770314
      4        1          -0.007353203   -0.004241979    0.000833162
      5       17           0.000008568   -0.000031057    0.012729702
      6        9          -0.000018298    0.000029158   -0.007248305
 -------------------------------------------------------------------
 Cartesian Forces:  Max     0.012729702 RMS     0.005254457

 GradGradGradGradGradGradGradGradGradGradGradGradGradGradGradGradGradGrad
 Berny optimization.
 Internal  Forces:  Max     0.012729689 RMS     0.003827829
 Search for a saddle point.
 Step number   1 out of a maximum of   36
 All quantities printed in internal units (Hartrees-Bohrs-Radians)
 Swaping is turned off.
 Second derivative matrix not updated -- analytic derivatives used.
 ITU=  0
     Eigenvalues ---   -0.02467   0.02142   0.02288   0.02324   0.04453
     Eigenvalues ---    0.04549   0.09903   0.09928   0.10658   0.32925
     Eigenvalues ---    0.35857   0.36383
 Eigenvectors required to have negative eigenvalues:
                          D1        R4        R5        A6        A5
   1                    0.54807   0.53533  -0.50732  -0.16545  -0.16470
                          A3        R7        R8        R6        A2
   1                   -0.16441  -0.13902  -0.13793  -0.13742   0.06371
 RFO step:  Lambda0=4.125064859D-04 Lambda=-2.73447011D-03.
 Linear search not attempted -- option 19 set.
 Iteration  1 RMS(Cart)=  0.03070561 RMS(Int)=  0.00038518
 Iteration  2 RMS(Cart)=  0.00021003 RMS(Int)=  0.00030132
 Iteration  3 RMS(Cart)=  0.00000001 RMS(Int)=  0.00030132
 Variable       Old X    -DE/DX   Delta X   Delta X   Delta X     New X
                                 (Linear)    (Quad)   (Total)
    R1        2.02143  -0.00739   0.00000  -0.01978  -0.02004   2.00138
    R2        2.02188  -0.00736   0.00000  -0.02022  -0.02054   2.00134
    R3        2.02170  -0.00716   0.00000  -0.02002  -0.02039   2.00131
    R4        3.98449   0.01273   0.00000   0.05557   0.05557   4.04006
    R5        3.77945   0.00441   0.00000   0.15172   0.15130   3.93075
    R6        4.09752   0.00038   0.00000   0.09690   0.09717   4.19469
    R7        4.10206   0.00021   0.00000   0.09387   0.09415   4.19621
    R8        4.10017   0.00021   0.00000   0.09524   0.09554   4.19572
    A1        2.07723  -0.00009   0.00000  -0.00602  -0.00646   2.07077
    A2        2.07596  -0.00013   0.00000  -0.00514  -0.00558   2.07039
    A3        1.67406   0.00027   0.00000   0.01486   0.01498   1.68904
    A4        2.07598  -0.00015   0.00000  -0.00514  -0.00559   2.07039
    A5        1.67257   0.00040   0.00000   0.01611   0.01621   1.68878
    A6        1.67295   0.00041   0.00000   0.01579   0.01589   1.68884
    A7        0.87773  -0.00352   0.00000  -0.03279  -0.03222   0.84551
    A8        0.87756  -0.00348   0.00000  -0.03266  -0.03211   0.84546
    A9        0.87715  -0.00346   0.00000  -0.03238  -0.03187   0.84528
   A10        3.14197   0.00001   0.00000  -0.00007  -0.00006   3.14191
   A11        3.14194   0.00002   0.00000  -0.00022  -0.00023   3.14171
    D1        2.79129  -0.00119   0.00000  -0.05217  -0.05224   2.73905
    D2       -2.09529  -0.00003   0.00000   0.00062   0.00063  -2.09467
    D3        2.09407  -0.00001   0.00000   0.00022   0.00021   2.09428
    D4       -2.09382   0.00001   0.00000  -0.00040  -0.00042  -2.09424
    D5        0.58446  -0.00054   0.00000  -0.00461  -0.00442   0.58004
    D6       -0.58516   0.00049   0.00000   0.00511   0.00491  -0.58025
    D7        0.58554  -0.00050   0.00000  -0.00533  -0.00513   0.58041
         Item               Value     Threshold  Converged?
 Maximum Force            0.012730     0.000450     NO 
 RMS     Force            0.003828     0.000300     NO 
 Maximum Displacement     0.120778     0.001800     NO 
 RMS     Displacement     0.030773     0.001200     NO 
 Predicted change in Energy=-1.219024D-03
 GradGradGradGradGradGradGradGradGradGradGradGradGradGradGradGradGradGrad

                          Input orientation:                          
 ---------------------------------------------------------------------
 Center     Atomic      Atomic             Coordinates (Angstroms)
 Number     Number       Type             X           Y           Z
 ---------------------------------------------------------------------
      1          6           0        0.000107    0.000102   -0.498920
      2          1           0        0.000080   -1.051632   -0.623496
      3          1           0       -0.910578    0.526156   -0.623568
      4          1           0        0.910919    0.525797   -0.624021
      5         17           0        0.000575    0.000833    1.638989
      6          9           0       -0.000104   -0.001259   -2.578984
 ---------------------------------------------------------------------
                    Distance matrix (angstroms):
                    1          2          3          4          5
     1  C    0.000000
     2  H    1.059086   0.000000
     3  H    1.059063   1.821733   0.000000
     4  H    1.059049   1.821513   1.821497   0.000000
     5  Cl   2.137909   2.495299   2.495060   2.495100   0.000000
     6  F    2.080064   2.219734   2.220536   2.220277   4.217973
                    6
     6  F    0.000000
 Symmetry turned off by external request.
 Stoichiometry    CH3ClF(1-)
 Framework group  C1[X(CH3ClF)]
 Deg. of freedom    12
 Full point group                 C1      NOp   1
 Rotational constants (GHZ):    151.1245467      2.2349066      2.2349011
 Standard basis: Aug-CC-pVTZ (5D, 7F)
 Integral buffers will be    131072 words long.
 Raffenetti 1 integral format.
 Two-electron integral symmetry is turned off.
   211 basis functions,   339 primitive gaussians,   244 cartesian basis functions
    18 alpha electrons       18 beta electrons
       nuclear repulsion energy        85.2970516890 Hartrees.
 NAtoms=    6 NActive=    6 NUniq=    6 SFac= 1.00D+00 NAtFMM=   50 NAOKFM=F Big=F
 One-electron integrals computed using PRISM.
 NBasis=   211 RedAO= T  NBF=   211
 NBsUse=   211 1.00D-06 NBFU=   211
 Initial guess read from the read-write file.
 B after Tr=     0.000000    0.000000    0.000000
         Rot=    1.000000    0.000000    0.000000    0.000000 Ang=   0.00 deg.
 Harris functional with IExCor=  205 diagonalized for initial guess.
 ExpMin= 2.53D-02 ExpMax= 4.56D+05 ExpMxC= 1.44D+03 IAcc=3 IRadAn=         0 AccDes= 0.00D+00
 HarFok:  IExCor=  205 AccDes= 0.00D+00 IRadAn=         0 IDoV= 1
 ScaDFX=  1.000000  1.000000  1.000000  1.000000
 FoFCou: FMM=F IPFlag=           0 FMFlag=      100000 FMFlg1=           0
         NFxFlg=           0 DoJE=T BraDBF=F KetDBF=T FulRan=T
         Omega=  0.000000  0.000000  1.000000  0.000000  0.000000 ICntrl=     500 IOpCl=  0
         NMat0=    1 NMatS0=    1 NMatT0=    0 NMatD0=    1 NMtDS0=    0 NMtDT0=    0
         I1Cent=           4 NGrid=           0.
 Symmetry not used in FoFCou.
 Requested convergence on RMS density matrix=1.00D-08 within 128 cycles.
 Requested convergence on MAX density matrix=1.00D-06.
 Requested convergence on             energy=1.00D-06.
 No special actions if energy rises.
 Keep R1 ints in memory in canonical form, NReq=454274131.
 SCF Done:  E(RHF) =  -598.617094909     A.U. after   10 cycles
             Convg  =    0.9228D-08             -V/T =  2.0001
 Range of M.O.s used for correlation:     1   211
 NBasis=   211 NAE=    18 NBE=    18 NFC=     0 NFV=     0
 NROrb=    211 NOA=    18 NOB=    18 NVA=   193 NVB=   193

 **** Warning!!: The largest alpha MO coefficient is  0.34678994D+02

 Symmetrizing basis deriv contribution to polar:
 IMax=3 JMax=2 DiffMx= 0.00D+00
 G2DrvN: will do     7 centers at a time, making    1 passes doing MaxLOS=3.
 Calling FoFCou, ICntrl=  3107 FMM=F I1Cent=   0 AccDes= 0.00D+00.
 FoFDir/FoFCou used for L=0 through L=3.
 End of G2Drv Frequency-dependent properties file   721 does not exist.
 End of G2Drv Frequency-dependent properties file   722 does not exist.
          IDoAtm=111111
          Differentiating once with respect to electric field.
                with respect to dipole field.
          Differentiating once with respect to nuclear coordinates.
          Keep R1 ints in memory in canonical form, NReq=448662365.
          There are    21 degrees of freedom in the 1st order CPHF.  IDoFFX=5.
     18 vectors produced by pass  0 Test12= 1.65D-14 4.76D-09 XBig12= 1.81D+01 2.94D+00.
 AX will form    18 AO Fock derivatives at one time.
     18 vectors produced by pass  1 Test12= 1.65D-14 4.76D-09 XBig12= 1.21D+00 2.56D-01.
     18 vectors produced by pass  2 Test12= 1.65D-14 4.76D-09 XBig12= 7.96D-02 7.88D-02.
     18 vectors produced by pass  3 Test12= 1.65D-14 4.76D-09 XBig12= 2.39D-03 1.36D-02.
     18 vectors produced by pass  4 Test12= 1.65D-14 4.76D-09 XBig12= 4.35D-05 1.71D-03.
     18 vectors produced by pass  5 Test12= 1.65D-14 4.76D-09 XBig12= 4.18D-07 1.03D-04.
     18 vectors produced by pass  6 Test12= 1.65D-14 4.76D-09 XBig12= 3.70D-09 1.22D-05.
      8 vectors produced by pass  7 Test12= 1.65D-14 4.76D-09 XBig12= 3.36D-11 1.44D-06.
      3 vectors produced by pass  8 Test12= 1.65D-14 4.76D-09 XBig12= 2.46D-13 9.25D-08.
      1 vectors produced by pass  9 Test12= 1.65D-14 4.76D-09 XBig12= 1.54D-15 7.86D-09.
 Inverted reduced A of dimension   138 with in-core refinement.
 Isotropic polarizability for W=    0.000000       44.33 Bohr**3.
 End of Minotr Frequency-dependent properties file   721 does not exist.
 End of Minotr Frequency-dependent properties file   722 does not exist.
 Calling FoFJK, ICntrl=    100127 FMM=F ISym2X=0 I1Cent= 0 IOpClX= 0 NMat=1 NMatS=1 NMatT=0.
 -------------------------------------------------------------------
 Center     Atomic                   Forces (Hartrees/Bohr)
 Number     Number              X              Y              Z
 -------------------------------------------------------------------
      1        6           0.000021013   -0.000021442   -0.001097382
      2        1          -0.000020765   -0.000535216    0.000435454
      3        1          -0.000493992    0.000260329    0.000398302
      4        1           0.000497797    0.000286266    0.000409066
      5       17           0.000000095   -0.000001920    0.001241331
      6        9          -0.000004148    0.000011983   -0.001386771
 -------------------------------------------------------------------
 Cartesian Forces:  Max     0.001386771 RMS     0.000582780

 GradGradGradGradGradGradGradGradGradGradGradGradGradGradGradGradGradGrad
 Berny optimization.
 Internal  Forces:  Max     0.001241330 RMS     0.000311426
 Search for a saddle point.
 Step number   2 out of a maximum of   36
 All quantities printed in internal units (Hartrees-Bohrs-Radians)
 Swaping is turned off.
 Second derivative matrix not updated -- analytic derivatives used.
 ITU=  0  0
     Eigenvalues ---   -0.02146   0.01800   0.01813   0.01831   0.04480
     Eigenvalues ---    0.04562   0.09219   0.09304   0.09477   0.35489
     Eigenvalues ---    0.38315   0.38779
 Eigenvectors required to have negative eigenvalues:
                          R4        D1        R5        A6        A5
   1                    0.55848   0.52434  -0.50247  -0.15999  -0.15938
                          A3        R7        R6        R8        A2
   1                   -0.15925  -0.14762  -0.14761  -0.14651   0.06910
 RFO step:  Lambda0=9.277721467D-06 Lambda=-6.68383250D-05.
 Linear search not attempted -- option 19 set.
 Iteration  1 RMS(Cart)=  0.00603891 RMS(Int)=  0.00001423
 Iteration  2 RMS(Cart)=  0.00000584 RMS(Int)=  0.00001272
 Iteration  3 RMS(Cart)=  0.00000000 RMS(Int)=  0.00001272
 Variable       Old X    -DE/DX   Delta X   Delta X   Delta X     New X
                                 (Linear)    (Quad)   (Total)
    R1        2.00138   0.00030   0.00000   0.00129   0.00128   2.00266
    R2        2.00134   0.00033   0.00000   0.00134   0.00132   2.00266
    R3        2.00131   0.00034   0.00000   0.00137   0.00135   2.00266
    R4        4.04006   0.00124   0.00000   0.00854   0.00854   4.04860
    R5        3.93075   0.00028   0.00000   0.02967   0.02966   3.96041
    R6        4.19469   0.00044   0.00000   0.02988   0.02989   4.22458
    R7        4.19621   0.00042   0.00000   0.02843   0.02844   4.22465
    R8        4.19572   0.00043   0.00000   0.02890   0.02891   4.22462
    A1        2.07077   0.00000   0.00000   0.00027   0.00027   2.07104
    A2        2.07039   0.00003   0.00000   0.00066   0.00065   2.07104
    A3        1.68904  -0.00004   0.00000  -0.00147  -0.00146   1.68757
    A4        2.07039   0.00002   0.00000   0.00065   0.00065   2.07104
    A5        1.68878  -0.00003   0.00000  -0.00122  -0.00122   1.68757
    A6        1.68884  -0.00003   0.00000  -0.00127  -0.00127   1.68757
    A7        0.84551   0.00005   0.00000  -0.00559  -0.00555   0.83996
    A8        0.84546   0.00006   0.00000  -0.00553  -0.00550   0.83996
    A9        0.84528   0.00006   0.00000  -0.00536  -0.00533   0.83995
   A10        3.14191   0.00000   0.00000  -0.00030  -0.00029   3.14161
   A11        3.14171   0.00000   0.00000  -0.00011  -0.00011   3.14160
    D1        2.73905   0.00011   0.00000   0.00429   0.00429   2.74334
    D2       -2.09467   0.00002   0.00000   0.00027   0.00027  -2.09440
    D3        2.09428   0.00001   0.00000   0.00011   0.00011   2.09440
    D4       -2.09424  -0.00001   0.00000  -0.00016  -0.00016  -2.09439
    D5        0.58004   0.00002   0.00000  -0.00057  -0.00057   0.57947
    D6       -0.58025  -0.00001   0.00000   0.00078   0.00078  -0.57947
    D7        0.58041   0.00000   0.00000  -0.00094  -0.00093   0.57948
         Item               Value     Threshold  Converged?
 Maximum Force            0.001241     0.000450     NO 
 RMS     Force            0.000311     0.000300     NO 
 Maximum Displacement     0.027371     0.001800     NO 
 RMS     Displacement     0.006040     0.001200     NO 
 Predicted change in Energy=-2.888490D-05
 GradGradGradGradGradGradGradGradGradGradGradGradGradGradGradGradGradGrad

                          Input orientation:                          
 ---------------------------------------------------------------------
 Center     Atomic      Atomic             Coordinates (Angstroms)
 Number     Number       Type             X           Y           Z
 ---------------------------------------------------------------------
      1          6           0        0.000175    0.000029   -0.497709
      2          1           0        0.000019   -1.052570   -0.620726
      3          1           0       -0.911312    0.526365   -0.621245
      4          1           0        0.911750    0.526132   -0.621570
      5         17           0        0.000555    0.000962    1.644718
      6          9           0       -0.000186   -0.000921   -2.593468
 ---------------------------------------------------------------------
                    Distance matrix (angstroms):
                    1          2          3          4          5
     1  C    0.000000
     2  H    1.059764   0.000000
     3  H    1.059764   1.823064   0.000000
     4  H    1.059762   1.823062   1.823062   0.000000
     5  Cl   2.142427   2.498433   2.498427   2.498427   0.000000
     6  F    2.095760   2.235549   2.235586   2.235575   4.238186
                    6
     6  F    0.000000
 Symmetry turned off by external request.
 Stoichiometry    CH3ClF(1-)
 Framework group  C1[X(CH3ClF)]
 Deg. of freedom    12
 Full point group                 C1      NOp   1
 Rotational constants (GHZ):    150.8789762      2.2147224      2.2147224
 Standard basis: Aug-CC-pVTZ (5D, 7F)
 Integral buffers will be    131072 words long.
 Raffenetti 1 integral format.
 Two-electron integral symmetry is turned off.
   211 basis functions,   339 primitive gaussians,   244 cartesian basis functions
    18 alpha electrons       18 beta electrons
       nuclear repulsion energy        84.9842809166 Hartrees.
 NAtoms=    6 NActive=    6 NUniq=    6 SFac= 1.00D+00 NAtFMM=   50 NAOKFM=F Big=F
 One-electron integrals computed using PRISM.
 NBasis=   211 RedAO= T  NBF=   211
 NBsUse=   211 1.00D-06 NBFU=   211
 Initial guess read from the read-write file.
 B after Tr=     0.000000    0.000000    0.000000
         Rot=    1.000000    0.000000    0.000000    0.000000 Ang=   0.00 deg.
 Harris functional with IExCor=  205 diagonalized for initial guess.
 ExpMin= 2.53D-02 ExpMax= 4.56D+05 ExpMxC= 1.44D+03 IAcc=3 IRadAn=         0 AccDes= 0.00D+00
 HarFok:  IExCor=  205 AccDes= 0.00D+00 IRadAn=         0 IDoV= 1
 ScaDFX=  1.000000  1.000000  1.000000  1.000000
 FoFCou: FMM=F IPFlag=           0 FMFlag=      100000 FMFlg1=           0
         NFxFlg=           0 DoJE=T BraDBF=F KetDBF=T FulRan=T
         Omega=  0.000000  0.000000  1.000000  0.000000  0.000000 ICntrl=     500 IOpCl=  0
         NMat0=    1 NMatS0=    1 NMatT0=    0 NMatD0=    1 NMtDS0=    0 NMtDT0=    0
         I1Cent=           4 NGrid=           0.
 Symmetry not used in FoFCou.
 Requested convergence on RMS density matrix=1.00D-08 within 128 cycles.
 Requested convergence on MAX density matrix=1.00D-06.
 Requested convergence on             energy=1.00D-06.
 No special actions if energy rises.
 Keep R1 ints in memory in canonical form, NReq=454274131.
 SCF Done:  E(RHF) =  -598.617124356     A.U. after    9 cycles
             Convg  =    0.3528D-08             -V/T =  2.0001
 Range of M.O.s used for correlation:     1   211
 NBasis=   211 NAE=    18 NBE=    18 NFC=     0 NFV=     0
 NROrb=    211 NOA=    18 NOB=    18 NVA=   193 NVB=   193

 **** Warning!!: The largest alpha MO coefficient is  0.35242393D+02

 Symmetrizing basis deriv contribution to polar:
 IMax=3 JMax=2 DiffMx= 0.00D+00
 G2DrvN: will do     7 centers at a time, making    1 passes doing MaxLOS=3.
 Calling FoFCou, ICntrl=  3107 FMM=F I1Cent=   0 AccDes= 0.00D+00.
 FoFDir/FoFCou used for L=0 through L=3.
 End of G2Drv Frequency-dependent properties file   721 does not exist.
 End of G2Drv Frequency-dependent properties file   722 does not exist.
          IDoAtm=111111
          Differentiating once with respect to electric field.
                with respect to dipole field.
          Differentiating once with respect to nuclear coordinates.
          Keep R1 ints in memory in canonical form, NReq=448662365.
          There are    21 degrees of freedom in the 1st order CPHF.  IDoFFX=5.
     18 vectors produced by pass  0 Test12= 1.65D-14 4.76D-09 XBig12= 1.82D+01 2.95D+00.
 AX will form    18 AO Fock derivatives at one time.
     18 vectors produced by pass  1 Test12= 1.65D-14 4.76D-09 XBig12= 1.22D+00 2.54D-01.
     18 vectors produced by pass  2 Test12= 1.65D-14 4.76D-09 XBig12= 8.05D-02 7.96D-02.
     18 vectors produced by pass  3 Test12= 1.65D-14 4.76D-09 XBig12= 2.46D-03 1.37D-02.
     18 vectors produced by pass  4 Test12= 1.65D-14 4.76D-09 XBig12= 4.46D-05 1.72D-03.
     18 vectors produced by pass  5 Test12= 1.65D-14 4.76D-09 XBig12= 4.40D-07 1.05D-04.
     18 vectors produced by pass  6 Test12= 1.65D-14 4.76D-09 XBig12= 4.09D-09 1.31D-05.
      7 vectors produced by pass  7 Test12= 1.65D-14 4.76D-09 XBig12= 3.96D-11 1.35D-06.
      3 vectors produced by pass  8 Test12= 1.65D-14 4.76D-09 XBig12= 2.92D-13 1.05D-07.
      1 vectors produced by pass  9 Test12= 1.65D-14 4.76D-09 XBig12= 2.13D-15 7.62D-09.
 Inverted reduced A of dimension   137 with in-core refinement.
 Isotropic polarizability for W=    0.000000       44.39 Bohr**3.
 End of Minotr Frequency-dependent properties file   721 does not exist.
 End of Minotr Frequency-dependent properties file   722 does not exist.
 Calling FoFJK, ICntrl=    100127 FMM=F ISym2X=0 I1Cent= 0 IOpClX= 0 NMat=1 NMatS=1 NMatT=0.
 -------------------------------------------------------------------
 Center     Atomic                   Forces (Hartrees/Bohr)
 Number     Number              X              Y              Z
 -------------------------------------------------------------------
      1        6          -0.000000655   -0.000001579   -0.000011949
      2        1          -0.000000054   -0.000009547    0.000015298
      3        1          -0.000008763    0.000004939    0.000014015
      4        1           0.000009665    0.000005518    0.000014245
      5       17          -0.000000014    0.000000085    0.000020705
      6        9          -0.000000178    0.000000584   -0.000052313
 -------------------------------------------------------------------
 Cartesian Forces:  Max     0.000052313 RMS     0.000015386

 GradGradGradGradGradGradGradGradGradGradGradGradGradGradGradGradGradGrad
 Berny optimization.
 Internal  Forces:  Max     0.000020705 RMS     0.000007048
 Search for a saddle point.
 Step number   3 out of a maximum of   36
 All quantities printed in internal units (Hartrees-Bohrs-Radians)
 Swaping is turned off.
 Second derivative matrix not updated -- analytic derivatives used.
 ITU=  0  0  0
     Eigenvalues ---   -0.02097   0.01724   0.01735   0.01752   0.04485
     Eigenvalues ---    0.04567   0.09139   0.09243   0.09352   0.35447
     Eigenvalues ---    0.38218   0.38672
 Eigenvectors required to have negative eigenvalues:
                          R4        D1        R5        A6        A5
   1                    0.55991   0.52077  -0.50329  -0.15870  -0.15808
                          A3        R6        R7        R8        A4
   1                   -0.15798  -0.15133  -0.15075  -0.14988   0.06782
 RFO step:  Lambda0=4.263950304D-15 Lambda=-5.79039949D-08.
 Linear search not attempted -- option 19 set.
 Iteration  1 RMS(Cart)=  0.00017777 RMS(Int)=  0.00000002
 Iteration  2 RMS(Cart)=  0.00000001 RMS(Int)=  0.00000002
 Variable       Old X    -DE/DX   Delta X   Delta X   Delta X     New X
                                 (Linear)    (Quad)   (Total)
    R1        2.00266   0.00000   0.00000   0.00002   0.00002   2.00268
    R2        2.00266   0.00000   0.00000   0.00002   0.00002   2.00268
    R3        2.00266   0.00000   0.00000   0.00002   0.00002   2.00268
    R4        4.04860   0.00002   0.00000   0.00054   0.00054   4.04914
    R5        3.96041   0.00001   0.00000   0.00058   0.00058   3.96099
    R6        4.22458   0.00002   0.00000   0.00087   0.00087   4.22545
    R7        4.22465   0.00001   0.00000   0.00080   0.00080   4.22545
    R8        4.22462   0.00001   0.00000   0.00082   0.00082   4.22545
    A1        2.07104   0.00000   0.00000   0.00007   0.00007   2.07111
    A2        2.07104   0.00000   0.00000   0.00007   0.00007   2.07111
    A3        1.68757   0.00000   0.00000  -0.00017  -0.00017   1.68740
    A4        2.07104   0.00000   0.00000   0.00007   0.00007   2.07111
    A5        1.68757   0.00000   0.00000  -0.00017  -0.00017   1.68740
    A6        1.68757   0.00000   0.00000  -0.00017  -0.00017   1.68740
    A7        0.83996   0.00000   0.00000  -0.00015  -0.00015   0.83981
    A8        0.83996   0.00000   0.00000  -0.00015  -0.00015   0.83981
    A9        0.83995   0.00000   0.00000  -0.00014  -0.00014   0.83981
   A10        3.14161   0.00000   0.00000  -0.00002  -0.00002   3.14159
   A11        3.14160   0.00000   0.00000  -0.00001  -0.00001   3.14159
    D1        2.74334   0.00000   0.00000   0.00056   0.00056   2.74390
    D2       -2.09440   0.00000   0.00000   0.00000   0.00000  -2.09440
    D3        2.09440   0.00000   0.00000   0.00000   0.00000   2.09440
    D4       -2.09439   0.00000   0.00000   0.00000   0.00000  -2.09440
    D5        0.57947   0.00000   0.00000  -0.00002  -0.00002   0.57946
    D6       -0.57947   0.00000   0.00000   0.00002   0.00002  -0.57946
    D7        0.57948   0.00000   0.00000  -0.00002  -0.00002   0.57946
         Item               Value     Threshold  Converged?
 Maximum Force            0.000021     0.000450     YES
 RMS     Force            0.000007     0.000300     YES
 Maximum Displacement     0.000739     0.001800     YES
 RMS     Displacement     0.000178     0.001200     YES
 Predicted change in Energy=-2.895200D-08
 Optimization completed.
    -- Stationary point found.
                           ----------------------------
                           !   Optimized Parameters   !
                           ! (Angstroms and Degrees)  !
 --------------------------                            --------------------------
 ! Name  Definition              Value          Derivative Info.                !
 --------------------------------------------------------------------------------
 ! R1    R(1,2)                  1.0598         -DE/DX =    0.0                 !
 ! R2    R(1,3)                  1.0598         -DE/DX =    0.0                 !
 ! R3    R(1,4)                  1.0598         -DE/DX =    0.0                 !
 ! R4    R(1,5)                  2.1424         -DE/DX =    0.0                 !
 ! R5    R(1,6)                  2.0958         -DE/DX =    0.0                 !
 ! R6    R(2,6)                  2.2355         -DE/DX =    0.0                 !
 ! R7    R(3,6)                  2.2356         -DE/DX =    0.0                 !
 ! R8    R(4,6)                  2.2356         -DE/DX =    0.0                 !
 ! A1    A(2,1,3)              118.6618         -DE/DX =    0.0                 !
 ! A2    A(2,1,4)              118.6618         -DE/DX =    0.0                 !
 ! A3    A(2,1,5)               96.6909         -DE/DX =    0.0                 !
 ! A4    A(3,1,4)              118.6618         -DE/DX =    0.0                 !
 ! A5    A(3,1,5)               96.6905         -DE/DX =    0.0                 !
 ! A6    A(4,1,5)               96.6906         -DE/DX =    0.0                 !
 ! A7    A(2,6,3)               48.126          -DE/DX =    0.0                 !
 ! A8    A(2,6,4)               48.1261         -DE/DX =    0.0                 !
 ! A9    A(3,6,4)               48.1256         -DE/DX =    0.0                 !
 ! A10   L(5,1,6,-1,-1)        180.001          -DE/DX =    0.0                 !
 ! A11   L(5,1,6,-2,-2)        180.0003         -DE/DX =    0.0                 !
 ! D1    D(2,1,4,3)            157.182          -DE/DX =    0.0                 !
 ! D2    D(2,1,5,3)           -120.0            -DE/DX =    0.0                 !
 ! D3    D(2,1,5,4)            120.0            -DE/DX =    0.0                 !
 ! D4    D(3,1,5,4)           -119.9999         -DE/DX =    0.0                 !
 ! D5    D(3,2,6,1)             33.2013         -DE/DX =    0.0                 !
 ! D6    D(4,2,6,1)            -33.2013         -DE/DX =    0.0                 !
 ! D7    D(4,3,6,1)             33.2017         -DE/DX =    0.0                 !
 --------------------------------------------------------------------------------
 GradGradGradGradGradGradGradGradGradGradGradGradGradGradGradGradGradGrad

                          Input orientation:                          
 ---------------------------------------------------------------------
 Center     Atomic      Atomic             Coordinates (Angstroms)
 Number     Number       Type             X           Y           Z
 ---------------------------------------------------------------------
      1          6           0        0.000175    0.000029   -0.497709
      2          1           0        0.000019   -1.052570   -0.620726
      3          1           0       -0.911312    0.526365   -0.621245
      4          1           0        0.911750    0.526132   -0.621570
      5         17           0        0.000555    0.000962    1.644718
      6          9           0       -0.000186   -0.000921   -2.593468
 ---------------------------------------------------------------------
                    Distance matrix (angstroms):
                    1          2          3          4          5
     1  C    0.000000
     2  H    1.059764   0.000000
     3  H    1.059764   1.823064   0.000000
     4  H    1.059762   1.823062   1.823062   0.000000
     5  Cl   2.142427   2.498433   2.498427   2.498427   0.000000
     6  F    2.095760   2.235549   2.235586   2.235575   4.238186
                    6
     6  F    0.000000
 Symmetry turned off by external request.
 Stoichiometry    CH3ClF(1-)
 Framework group  C1[X(CH3ClF)]
 Deg. of freedom    12
 Full point group                 C1      NOp   1
 Rotational constants (GHZ):    150.8789762      2.2147224      2.2147224

 **********************************************************************

            Population analysis using the SCF density.

 **********************************************************************

 Alpha  occ. eigenvalues -- -104.61122 -25.91814 -11.14555 -10.33587  -7.80222
 Alpha  occ. eigenvalues --   -7.80151  -7.80151  -1.17349  -0.87928  -0.75763
 Alpha  occ. eigenvalues --   -0.46181  -0.46181  -0.31798  -0.27275  -0.27275
 Alpha  occ. eigenvalues --   -0.24758  -0.24758  -0.23090
 Alpha virt. eigenvalues --    0.14808   0.15258   0.15258   0.19032   0.25053
 Alpha virt. eigenvalues --    0.25053   0.25128   0.26339   0.26339   0.27892
 Alpha virt. eigenvalues --    0.33812   0.34652   0.34652   0.36533   0.41004
 Alpha virt. eigenvalues --    0.42836   0.42836   0.46999   0.46999   0.47296
 Alpha virt. eigenvalues --    0.48435   0.49131   0.49131   0.51650   0.53746
 Alpha virt. eigenvalues --    0.53746   0.54059   0.59919   0.59919   0.62147
 Alpha virt. eigenvalues --    0.62147   0.62982   0.62982   0.63252   0.68022
 Alpha virt. eigenvalues --    0.68023   0.69171   0.82421   0.89909   0.89909
 Alpha virt. eigenvalues --    0.91306   0.92285   0.92285   0.93206   1.00728
 Alpha virt. eigenvalues --    1.01277   1.01498   1.01498   1.05462   1.05462
 Alpha virt. eigenvalues --    1.09027   1.09027   1.10137   1.12281   1.13825
 Alpha virt. eigenvalues --    1.13825   1.19668   1.19668   1.21287   1.22242
 Alpha virt. eigenvalues --    1.22242   1.26743   1.26743   1.27732   1.31952
 Alpha virt. eigenvalues --    1.31952   1.32374   1.37485   1.37485   1.37735
 Alpha virt. eigenvalues --    1.40853   1.40853   1.45026   1.45026   1.45509
 Alpha virt. eigenvalues --    1.47667   1.55387   1.55387   1.59962   1.68334
 Alpha virt. eigenvalues --    1.71639   1.73981   1.73981   1.78047   1.79421
 Alpha virt. eigenvalues --    1.79421   1.82755   1.82755   1.83170   1.92318
 Alpha virt. eigenvalues --    1.92318   1.93713   2.02600   2.02946   2.02946
 Alpha virt. eigenvalues --    2.08527   2.12264   2.12264   2.19849   2.23577
 Alpha virt. eigenvalues --    2.30585   2.30585   2.36708   2.36708   2.56769
 Alpha virt. eigenvalues --    2.78273   2.78394   2.78394   2.85269   2.85269
 Alpha virt. eigenvalues --    2.96278   2.99656   2.99657   3.19531   3.19532
 Alpha virt. eigenvalues --    3.25350   3.29191   3.29596   3.30110   3.30110
 Alpha virt. eigenvalues --    3.30527   3.33097   3.33098   3.35049   3.37432
 Alpha virt. eigenvalues --    3.38328   3.38328   3.43169   3.49514   3.50037
 Alpha virt. eigenvalues --    3.50037   3.56554   3.56555   3.61716   3.61717
 Alpha virt. eigenvalues --    3.73810   3.80650   3.82332   3.82334   3.87505
 Alpha virt. eigenvalues --    3.90344   3.90344   3.95063   3.95064   4.10629
 Alpha virt. eigenvalues --    4.19071   4.19071   4.23383   4.23384   4.26377
 Alpha virt. eigenvalues --    4.45294   4.47708   4.47708   4.59887   4.68395
 Alpha virt. eigenvalues --    4.68396   4.97117   5.00301   5.03114   5.03114
 Alpha virt. eigenvalues --    5.13068   5.15080   5.15081   5.36674   5.48847
 Alpha virt. eigenvalues --    5.48847   5.60802   5.60802   5.75724   5.75725
 Alpha virt. eigenvalues --    5.94024   5.94025   5.96352   6.17572   6.64537
 Alpha virt. eigenvalues --    6.66940   6.73890   6.73890   7.36669   9.21105
 Alpha virt. eigenvalues --    9.21880   9.29371   9.29372   9.49868   9.49869
 Alpha virt. eigenvalues --    9.57453   9.72841   9.72841   9.83365   9.83365
 Alpha virt. eigenvalues --    9.89826  13.55347  18.09887
          Condensed to atoms (all electrons):
              1          2          3          4          5          6
     1  C    5.946750   0.312006   0.312003   0.312003  -0.036068  -0.116542
     2  H    0.312006   0.206812   0.012500   0.012500  -0.007981   0.013850
     3  H    0.312003   0.012500   0.206814   0.012501  -0.007980   0.013854
     4  H    0.312003   0.012500   0.012501   0.206813  -0.007980   0.013853
     5  Cl  -0.036068  -0.007981  -0.007980  -0.007980  17.746645   0.020657
     6  F   -0.116542   0.013850   0.013854   0.013853   0.020657   9.967812
 Mulliken atomic charges:
              1
     1  C   -0.730153
     2  H    0.450313
     3  H    0.450308
     4  H    0.450310
     5  Cl  -0.707294
     6  F   -0.913485
 Sum of Mulliken atomic charges =  -1.00000
 Mulliken charges with hydrogens summed into heavy atoms:
              1
     1  C    0.620779
     5  Cl  -0.707294
     6  F   -0.913485
 Sum of Mulliken charges with hydrogens summed into heavy atoms =  -1.00000
 APT atomic charges:
              1
     1  C    1.166182
     2  H   -0.011518
     3  H   -0.011520
     4  H   -0.011520
     5  Cl  -0.986596
     6  F   -1.145028
 Sum of APT charges=  -1.00000
 APT Atomic charges with hydrogens summed into heavy atoms:
              1
     1  C    1.131624
     2  H    0.000000
     3  H    0.000000
     4  H    0.000000
     5  Cl  -0.986596
     6  F   -1.145028
 Sum of APT charges=  -1.00000
 Electronic spatial extent (au):  <R**2>=            490.3749
 Charge=             -1.0000 electrons
 Dipole moment (field-independent basis, Debye):
    X=             -0.0006    Y=              0.0007    Z=              4.0132  Tot=              4.0132
 Quadrupole moment (field-independent basis, Debye-Ang):
   XX=            -27.5543   YY=            -27.5543   ZZ=            -64.1558
   XY=              0.0000   XZ=             -0.0053   YZ=             -0.0153
 Traceless Quadrupole moment (field-independent basis, Debye-Ang):
   XX=             12.2005   YY=             12.2005   ZZ=            -24.4010
   XY=              0.0000   XZ=             -0.0053   YZ=             -0.0153
 Octapole moment (field-independent basis, Debye-Ang**2):
  XXX=             -0.0244  YYY=             -1.0603  ZZZ=             49.5241  XYY=             -0.0087
  XXY=              1.0248  XXZ=             -5.3254  XZZ=             -0.0066  YZZ=              0.0117
  YYZ=             -5.3245  XYZ=             -0.0002
 Hexadecapole moment (field-independent basis, Debye-Ang**3):
 XXXX=            -38.4017 YYYY=            -38.4016 ZZZZ=           -760.1556 XXXY=              0.0004
 XXXZ=             -0.0504 YYYX=             -0.0002 YYYZ=              0.5669 ZZZX=             -0.0671
 ZZZY=             -0.1927 XXYY=            -12.8007 XXZZ=           -100.1730 YYZZ=           -100.1742
 XXYZ=             -0.7269 YYXZ=             -0.0164 ZZXY=              0.0002
 N-N= 8.498428091662D+01 E-N=-1.604271594710D+03  KE= 5.985479224479D+02
  Exact polarizability:  34.174   0.000  34.174   0.005   0.014  64.832
 Approx polarizability:  31.976   0.000  31.976   0.003   0.007  47.050
 Full mass-weighted force constant matrix:
 Low frequencies --- -464.8183  -11.6169   -3.1857   -3.1704    0.0037    0.0046
 Low frequencies ---    0.0053  236.5324  236.5350
 ******    1 imaginary frequencies (negative Signs) ****** 
 Harmonic frequencies (cm**-1), IR intensities (KM/Mole), Raman scattering
 activities (A**4/AMU), depolarization ratios for plane and unpolarized
 incident light, reduced masses (AMU), force constants (mDyne/A),
 and normal coordinates:
                     1                      2                      3
                     A                      A                      A
 Frequencies --  -464.8183               236.5324               236.5350
 Red. masses --    12.8384                 4.3495                 4.3496
 Frc consts  --     1.6343                 0.1434                 0.1434
 IR Inten    --  1066.6689                30.2135                30.2135
  Atom  AN      X      Y      Z        X      Y      Z        X      Y      Z
     1   6     0.00   0.00   0.93     0.46  -0.05   0.00     0.05   0.46   0.00
     2   1     0.00   0.08   0.07     0.48  -0.06   0.01     0.06   0.49  -0.12
     3   1     0.07  -0.04   0.07     0.49  -0.06  -0.11     0.05   0.49   0.05
     4   1    -0.07  -0.04   0.07     0.49  -0.05   0.10     0.06   0.49   0.07
     5  17     0.00   0.00  -0.17    -0.10   0.01   0.00    -0.01  -0.10   0.00
     6   9     0.00   0.00  -0.28    -0.19   0.02   0.00    -0.02  -0.19   0.00
                     4                      5                      6
                     A                      A                      A
 Frequencies --   275.3421              1038.0705              1038.0764
 Red. masses --    22.8321                 1.0336                 1.0336
 Frc consts  --     1.0199                 0.6562                 0.6562
 IR Inten    --     3.7690                 0.1052                 0.1052
  Atom  AN      X      Y      Z        X      Y      Z        X      Y      Z
     1   6     0.00   0.00  -0.13    -0.04  -0.01   0.00    -0.01   0.04   0.00
     2   1     0.00  -0.01  -0.06     0.08   0.01  -0.19     0.02  -0.05   0.79
     3   1    -0.01   0.01  -0.06     0.06   0.03  -0.59     0.00  -0.07  -0.56
     4   1     0.01   0.01  -0.06     0.05   0.00   0.78     0.03  -0.07  -0.23
     5  17     0.00   0.00   0.51     0.01   0.00   0.00     0.00  -0.01   0.00
     6   9     0.00   0.00  -0.84    -0.01   0.00   0.00     0.00   0.01   0.00
                     7                      8                      9
                     A                      A                      A
 Frequencies --  1271.9978              1536.0668              1536.0686
 Red. masses --     1.0524                 1.0963                 1.0963
 Frc consts  --     1.0032                 1.5241                 1.5241
 IR Inten    --    76.3031                 4.9995                 4.9996
  Atom  AN      X      Y      Z        X      Y      Z        X      Y      Z
     1   6     0.00   0.00  -0.04     0.04  -0.08   0.00    -0.08  -0.04   0.00
     2   1     0.00  -0.06   0.57    -0.35  -0.08   0.10     0.72  -0.04   0.05
     3   1    -0.05   0.03   0.57     0.29   0.35  -0.09     0.29   0.60   0.06
     4   1     0.05   0.03   0.57    -0.40   0.69  -0.01    -0.05  -0.10  -0.11
     5  17     0.00   0.00  -0.02     0.00   0.00   0.00     0.00   0.00   0.00
     6   9     0.00   0.00  -0.03     0.00   0.00   0.00     0.00   0.00   0.00
                    10                     11                     12
                     A                      A                      A
 Frequencies --  3356.9706              3548.4167              3548.4268
 Red. masses --     1.0100                 1.1238                 1.1238
 Frc consts  --     6.7058                 8.3373                 8.3374
 IR Inten    --     0.0663                 0.4871                 0.4871
  Atom  AN      X      Y      Z        X      Y      Z        X      Y      Z
     1   6     0.00   0.00  -0.01     0.05  -0.09   0.00    -0.09  -0.05   0.00
     2   1     0.00   0.57   0.06     0.00   0.71   0.08    -0.01   0.38   0.04
     3   1     0.50  -0.29   0.06    -0.59   0.34  -0.08     0.37  -0.22   0.05
     4   1    -0.50  -0.29   0.06     0.03   0.01   0.00     0.70   0.40  -0.09
     5  17     0.00   0.00   0.00     0.00   0.00   0.00     0.00   0.00   0.00
     6   9     0.00   0.00   0.00     0.00   0.00   0.00     0.00   0.00   0.00

 -------------------
 - Thermochemistry -
 -------------------
 Temperature   298.150 Kelvin.  Pressure   1.00000 Atm.
 Atom     1 has atomic number  6 and mass  12.00000
 Atom     2 has atomic number  1 and mass   1.00783
 Atom     3 has atomic number  1 and mass   1.00783
 Atom     4 has atomic number  1 and mass   1.00783
 Atom     5 has atomic number 17 and mass  34.96885
 Atom     6 has atomic number  9 and mass  18.99840
 Molecular mass:    68.99073 amu.
 Principal axes and moments of inertia in atomic units:
                           1         2         3
     Eigenvalues --    11.96152 814.88370 814.88372
           X            0.00017  -0.44398   0.89604
           Y            0.00044   0.89604   0.44398
           Z            1.00000  -0.00032  -0.00035
 This molecule is an asymmetric top.
 Rotational symmetry number  1.
 Rotational temperatures (Kelvin)      7.24104     0.10629     0.10629
 Rotational constants (GHZ):         150.87898     2.21472     2.21472
    1 imaginary frequencies ignored.
 Zero-point vibrational energy     105406.0 (Joules/Mol)
                                   25.19263 (Kcal/Mol)
 Warning -- explicit consideration of   3 degrees of freedom as
           vibrations may cause significant error
 Vibrational temperatures:    340.32   340.32   396.16  1493.55  1493.56
          (Kelvin)           1830.12  2210.05  2210.06  4829.93  5105.37
                             5105.39
 
 Zero-point correction=                           0.040147 (Hartree/Particle)
 Thermal correction to Energy=                    0.044527
 Thermal correction to Enthalpy=                  0.045472
 Thermal correction to Gibbs Free Energy=         0.013337
 Sum of electronic and zero-point Energies=           -598.576977
 Sum of electronic and thermal Energies=              -598.572597
 Sum of electronic and thermal Enthalpies=            -598.571653
 Sum of electronic and thermal Free Energies=         -598.603787
 
                     E (Thermal)             CV                S
                      KCal/Mol        Cal/Mol-Kelvin    Cal/Mol-Kelvin
 Total                   27.941             12.219             67.632
 Electronic               0.000              0.000              0.000
 Translational            0.889              2.981             38.612
 Rotational               0.889              2.981             23.589
 Vibrational             26.164              6.258              5.431
 Vibration     1          0.655              1.785              1.829
 Vibration     2          0.655              1.785              1.829
 Vibration     3          0.677              1.719              1.562
                       Q            Log10(Q)             Ln(Q)
 Total Bot       0.733198D-06         -6.134779        -14.125851
 Total V=0       0.214550D+13         12.331528         28.394392
 Vib (Bot)       0.102034D-17        -17.991255        -41.426397
 Vib (Bot)    1  0.830283D+00         -0.080774         -0.185989
 Vib (Bot)    2  0.830273D+00         -0.080779         -0.186001
 Vib (Bot)    3  0.699970D+00         -0.154921         -0.356719
 Vib (V=0)       0.298573D+01          0.475051          1.093846
 Vib (V=0)    1  0.146921D+01          0.167084          0.384725
 Vib (V=0)    2  0.146920D+01          0.167082          0.384720
 Vib (V=0)    3  0.136021D+01          0.133605          0.307637
 Electronic      0.100000D+01          0.000000          0.000000
 Translational   0.225238D+08          7.352641         16.930082
 Rotational      0.319033D+05          4.503835         10.370464
 -------------------------------------------------------------------
 Center     Atomic                   Forces (Hartrees/Bohr)
 Number     Number              X              Y              Z
 -------------------------------------------------------------------
      1        6          -0.000000655   -0.000001579   -0.000011949
      2        1          -0.000000054   -0.000009547    0.000015298
      3        1          -0.000008763    0.000004939    0.000014015
      4        1           0.000009665    0.000005518    0.000014245
      5       17          -0.000000014    0.000000085    0.000020705
      6        9          -0.000000178    0.000000584   -0.000052313
 -------------------------------------------------------------------
 Cartesian Forces:  Max     0.000052313 RMS     0.000015386
 1\1\GINC-TRAPISTA\Freq\RHF\Aug-CC-pVTZ\C1H3Cl1F1(1-)\BRUNS\21-Jun-2020
 \0\\#opt=(TS, calcall, noeigentest) HF aug-cc-pvtz density=current nos
 ymm\\Title Card Required\\-1,1\C,0.000174548,0.000029307,-0.4977087621
 \H,0.0000190581,-1.0525704016,-0.620725798\H,-0.9113122004,0.526365324
 8,-0.6212448978\H,0.9117499419,0.5261324857,-0.6215699338\Cl,0.0005547
 363,0.0009622439,1.6447176554\F,-0.0001860839,-0.0009209598,-2.5934682
 637\\Version=EM64L-G09RevB.01\HF=-598.6171244\RMSD=3.528e-09\RMSF=1.53
 9e-05\ZeroPoint=0.040147\Thermal=0.0445274\Dipole=0.000267,0.0007185,1
 .56645\DipoleDeriv=0.1684132,-0.0000008,0.0005281,-0.0000008,0.1684101
 ,0.0013149,0.0005263,0.0013205,3.1617214,0.0803322,-0.0000063,-0.00003
 58,0.0000021,0.0360716,0.0448896,-0.0000416,-0.0051056,-0.1509572,0.04
 71308,0.0191961,0.0388919,0.0191724,0.0692474,-0.0225839,-0.0043938,0.
 0024125,-0.1509384,0.0471102,-0.0191888,-0.0389709,-0.0191735,0.069257
 4,-0.0225684,0.0043244,0.0024182,-0.1509264,-0.5774344,0.,-0.0002177,0
 .,-0.5774345,-0.0005352,-0.0002167,-0.0005391,-1.8049192,-0.765552,0.,
 -0.0001955,0.,-0.765552,-0.0005169,-0.0001986,-0.0005066,-1.9039802\Po
 lar=34.1744764,-0.0000049,34.174481,0.0053873,0.0135451,64.8319044\Hyp
 erPolar=0.0247261,5.9202068,0.0052408,-5.8456994,42.4304516,-0.0010277
 ,42.4356014,0.0258902,0.0717191,238.9188759\PG=C01 [X(C1H3Cl1F1)]\NIma
 g=1\\0.76347563,0.00000159,0.76347381,-0.00014556,-0.00035782,-0.05595
 059,-0.06566770,-0.00005185,0.00000327,0.05339816,-0.00005165,-0.41664
 529,-0.03965323,0.00005420,0.42326009,0.00000292,-0.04116864,-0.018874
 27,0.00000484,0.04064758,0.05160489,-0.32884848,0.15197373,-0.03449774
 ,0.00631202,-0.00323415,0.00001916,0.33074029,0.15197316,-0.15342438,0
 .01994829,0.02719069,-0.00752588,0.00427631,-0.16015179,0.14587780,-0.
 03581009,0.02070661,-0.01891606,0.00369897,-0.00211697,0.00547332,0.03
 535818,-0.02042098,0.05164490,-0.32890329,-0.15192342,0.03461363,0.006
 30465,0.00322990,-0.00001833,-0.01444000,-0.01520635,0.00370385,0.3307
 9904,-0.15192304,-0.15334755,0.01999388,-0.02719272,-0.00751984,0.0042
 8593,0.01521269,0.01322258,-0.00215932,0.16009905,0.14579687,0.0359260
 1,0.02075195,-0.01894021,-0.00369979,-0.00211720,0.00547463,-0.0036973
 6,-0.00215301,0.00547692,-0.03546318,-0.02046921,0.05166981,-0.0254810
 3,-0.00000002,0.00001474,0.00015331,0.00000137,-0.00000646,0.00408453,
 -0.00227684,-0.01212212,0.00408880,0.00227548,0.01211312,0.01393558,-0
 .00000002,-0.02548118,0.00003650,-0.00000183,0.00539353,-0.01400696,-0
 .00226850,0.00146718,0.00698656,0.00227034,0.00146602,0.00698265,0.,0.
 01393558,0.00001474,0.00003666,0.05794383,-0.00000420,0.00396740,-0.02
 622986,0.00344289,-0.00200246,-0.02623494,-0.00345428,-0.00200244,-0.0
 2623803,0.00000697,0.00001700,0.05315111,-0.01457514,-0.00000003,0.000
 01166,-0.00050044,0.00000033,-0.00000213,0.00215164,-0.00152887,0.0051
 7121,0.00215079,0.00152854,-0.00517879,0.00321881,0.,-0.00000612,0.007
 55435,-0.00000003,-0.01457541,0.00003238,0.00000151,0.00303738,0.00596
 578,-0.00153199,0.00038270,-0.00299591,0.00153048,0.00038192,-0.002995
 18,0.,0.00321887,-0.00001617,0.00000003,0.00755454,0.00001198,0.000031
 24,0.05473730,-0.00000308,-0.00072759,-0.01744871,-0.00062513,0.000351
 85,-0.01744414,0.00061831,0.00035115,-0.01744311,-0.00000625,-0.000015
 75,-0.03239211,0.00000417,0.00000910,0.02999078\\0.00000066,0.00000158
 ,0.00001195,0.00000005,0.00000955,-0.00001530,0.00000876,-0.00000494,-
 0.00001401,-0.00000966,-0.00000552,-0.00001424,0.00000001,-0.00000008,
 -0.00002070,0.00000018,-0.00000058,0.00005231\\\@


 REVOLUTIONS HAVE NEVER LIGHTENED THE BURDEN OF TYRANNY:
 THEY HAVE MERELY SHIFTED IT TO OTHER SHOULDERS.
                                   -- G. B. SHAW (1903)
 Job cpu time:  0 days  0 hours 30 minutes 58.7 seconds.
 File lengths (MBytes):  RWF=     33 Int=      0 D2E=      0 Chk=      4 Scr=      1
 Normal termination of Gaussian 09 at Sun Jun 21 19:14:53 2020.
