 Entering Gaussian System, Link 0=/home/bruns/programas/chemistry/gaussian/g09/g09
 Input=clch3f_ts-fv.com
 Output=clch3f_ts-fv.log
 Initial command:
 /home/bruns/programas/chemistry/gaussian/g09/l1.exe /home/bruns/programas/chemistry/gaussian/work/Gau-5738.inp -scrdir=/home/bruns/programas/chemistry/gaussian/work/
 Entering Link 1 = /home/bruns/programas/chemistry/gaussian/g09/l1.exe PID=      5740.
  
 Copyright (c) 1988,1990,1992,1993,1995,1998,2003,2009,2010,
            Gaussian, Inc.  All Rights Reserved.
  
 This is part of the Gaussian(R) 09 program.  It is based on
 the Gaussian(R) 03 system (copyright 2003, Gaussian, Inc.),
 the Gaussian(R) 98 system (copyright 1998, Gaussian, Inc.),
 the Gaussian(R) 94 system (copyright 1995, Gaussian, Inc.),
 the Gaussian 92(TM) system (copyright 1992, Gaussian, Inc.),
 the Gaussian 90(TM) system (copyright 1990, Gaussian, Inc.),
 the Gaussian 88(TM) system (copyright 1988, Gaussian, Inc.),
 the Gaussian 86(TM) system (copyright 1986, Carnegie Mellon
 University), and the Gaussian 82(TM) system (copyright 1983,
 Carnegie Mellon University). Gaussian is a federally registered
 trademark of Gaussian, Inc.
  
 This software contains proprietary and confidential information,
 including trade secrets, belonging to Gaussian, Inc.
  
 This software is provided under written license and may be
 used, copied, transmitted, or stored only in accord with that
 written license.
  
 The following legend is applicable only to US Government
 contracts under FAR:
  
                    RESTRICTED RIGHTS LEGEND
  
 Use, reproduction and disclosure by the US Government is
 subject to restrictions as set forth in subparagraphs (a)
 and (c) of the Commercial Computer Software - Restricted
 Rights clause in FAR 52.227-19.
  
 Gaussian, Inc.
 340 Quinnipiac St., Bldg. 40, Wallingford CT 06492
  
  
 ---------------------------------------------------------------
 Warning -- This program may not be used in any manner that
 competes with the business of Gaussian, Inc. or will provide
 assistance to any competitor of Gaussian, Inc.  The licensee
 of this program is prohibited from giving any competitor of
 Gaussian, Inc. access to this program.  By using this program,
 the user acknowledges that Gaussian, Inc. is engaged in the
 business of creating and licensing software in the field of
 computational chemistry and represents and warrants to the
 licensee that it is not a competitor of Gaussian, Inc. and that
 it will not use this program in any manner prohibited above.
 ---------------------------------------------------------------
  

 Cite this work as:
 Gaussian 09, Revision B.01,
 M. J. Frisch, G. W. Trucks, H. B. Schlegel, G. E. Scuseria, 
 M. A. Robb, J. R. Cheeseman, G. Scalmani, V. Barone, B. Mennucci, 
 G. A. Petersson, H. Nakatsuji, M. Caricato, X. Li, H. P. Hratchian, 
 A. F. Izmaylov, J. Bloino, G. Zheng, J. L. Sonnenberg, M. Hada, 
 M. Ehara, K. Toyota, R. Fukuda, J. Hasegawa, M. Ishida, T. Nakajima, 
 Y. Honda, O. Kitao, H. Nakai, T. Vreven, J. A. Montgomery, Jr., 
 J. E. Peralta, F. Ogliaro, M. Bearpark, J. J. Heyd, E. Brothers, 
 K. N. Kudin, V. N. Staroverov, T. Keith, R. Kobayashi, J. Normand, 
 K. Raghavachari, A. Rendell, J. C. Burant, S. S. Iyengar, J. Tomasi, 
 M. Cossi, N. Rega, J. M. Millam, M. Klene, J. E. Knox, J. B. Cross, 
 V. Bakken, C. Adamo, J. Jaramillo, R. Gomperts, R. E. Stratmann, 
 O. Yazyev, A. J. Austin, R. Cammi, C. Pomelli, J. W. Ochterski, 
 R. L. Martin, K. Morokuma, V. G. Zakrzewski, G. A. Voth, 
 P. Salvador, J. J. Dannenberg, S. Dapprich, A. D. Daniels, 
 O. Farkas, J. B. Foresman, J. V. Ortiz, J. Cioslowski, 
 and D. J. Fox, Gaussian, Inc., Wallingford CT, 2010.
 
 ******************************************
 Gaussian 09:  EM64L-G09RevB.01 12-Aug-2010
                23-Jul-2020 
 ******************************************
 %nproc=8
 Will use up to    8 processors via shared memory.
 %mem=8GB
 ----------------------------------------------------------------------
 #freq=noraman QCISD aug-cc-pvtz density=current iop(7/33=1) nosym form
 check=forcecart SCF=maxcycle=300
 ----------------------------------------------------------------------
 1/10=4,30=1,38=11/1,3,6;
 2/12=2,15=1,17=6,18=5,40=1/2;
 3/5=16,6=1,7=10,11=9,16=1,25=1,30=1,71=1/1,2,3;
 4/69=2/1;
 5/5=2,7=300,38=5,98=1/2;
 8/6=4,9=120000,10=1/1,4;
 9/5=8,15=1/13;
 11/28=-7,29=200,31=1,42=3/11;
 10/5=6,31=1/2;
 6/7=2,8=2,9=2,10=2,22=-1/1;
 7/12=7,30=1,33=1/1,2,3,16;
 1/38=10/6(3);
 7/8=1,25=1,30=1,33=1,44=-1/16;
 1/10=4,30=1,38=10/3;
 99//99;
 3/5=16,6=1,7=10,11=9,16=1,25=1,30=1,71=1/1,2,3;
 4/5=5,16=3,69=2/1;
 5/5=2,7=300,38=5,98=1/2;
 8/6=4,9=120000,10=1/1,4;
 9/5=8,15=1/13;
 11/28=-7,29=200,31=1,42=3/11;
 10/5=6,31=1/2;
 6/7=2,8=2,9=2,10=2,22=-1/1;
 7/7=1,12=7,30=1,33=1/1,2,3,16;
 1/38=10/6(-9);
 7/8=1,25=1,30=1,33=1,44=-1/16;
 1/10=4,30=1,38=10/3;
 99//99;
 ---------------------
 clch3f_ts-frequencies
 ---------------------
 Symbolic Z-matrix:
 Charge = -1 Multiplicity = 1
 C                     0.00018   0.00003  -0.49771 
 H                     0.00002  -1.05257  -0.62073 
 H                    -0.91131   0.52637  -0.62125 
 H                     0.91175   0.52613  -0.62157 
 Cl                    0.00056   0.00096   1.64472 
 F                    -0.00019  -0.00092  -2.59347 
 

 GradGradGradGradGradGradGradGradGradGradGradGradGradGradGradGradGradGrad
 Berny optimization.
 Initialization pass.
 Trust Radius=3.00D-01 FncErr=1.00D-07 GrdErr=1.00D-07
 Number of steps in this run=      2 maximum allowed number of steps=      2.
 GradGradGradGradGradGradGradGradGradGradGradGradGradGradGradGradGradGrad

 NDeriv=  18 NFrqRd=  0 LFDDif=       1
 Numerical evaluation of force-constants.
 Nuclear step= 0.001000 Angstroms, electric field step= 0.000333 atomic units, NStep=1.
                          Input orientation:                          
 ---------------------------------------------------------------------
 Center     Atomic      Atomic             Coordinates (Angstroms)
 Number     Number       Type             X           Y           Z
 ---------------------------------------------------------------------
      1          6           0        0.000175    0.000029   -0.497709
      2          1           0        0.000019   -1.052570   -0.620726
      3          1           0       -0.911312    0.526365   -0.621245
      4          1           0        0.911750    0.526132   -0.621570
      5         17           0        0.000555    0.000962    1.644718
      6          9           0       -0.000186   -0.000921   -2.593468
 ---------------------------------------------------------------------
                    Distance matrix (angstroms):
                    1          2          3          4          5
     1  C    0.000000
     2  H    1.059763   0.000000
     3  H    1.059764   1.823063   0.000000
     4  H    1.059762   1.823062   1.823062   0.000000
     5  Cl   2.142427   2.498433   2.498427   2.498428   0.000000
     6  F    2.095759   2.235548   2.235586   2.235575   4.238186
                    6
     6  F    0.000000
 Symmetry turned off by external request.
 This structure is nearly, but not quite of a higher symmetry.
 Consider Symm=Loose if the higher symmetry is desired.
 Stoichiometry    CH3ClF(1-)
 Framework group  C1[X(CH3ClF)]
 Deg. of freedom    12
 Full point group                 C1      NOp   1
 Rotational constants (GHZ):    150.8790651      2.2147223      2.2147222
 Standard basis: Aug-CC-pVTZ (5D, 7F)
 Integral buffers will be    131072 words long.
 Raffenetti 1 integral format.
 Two-electron integral symmetry is turned off.
   211 basis functions,   339 primitive gaussians,   244 cartesian basis functions
    18 alpha electrons       18 beta electrons
       nuclear repulsion energy        84.9842800696 Hartrees.
 NAtoms=    6 NActive=    6 NUniq=    6 SFac= 1.00D+00 NAtFMM=   50 NAOKFM=F Big=F
 One-electron integrals computed using PRISM.
 NBasis=   211 RedAO= T  NBF=   211
 NBsUse=   211 1.00D-06 NBFU=   211
 Harris functional with IExCor=  205 diagonalized for initial guess.
 ExpMin= 2.53D-02 ExpMax= 4.56D+05 ExpMxC= 1.44D+03 IAcc=3 IRadAn=         0 AccDes= 0.00D+00
 HarFok:  IExCor=  205 AccDes= 0.00D+00 IRadAn=         0 IDoV= 1
 ScaDFX=  1.000000  1.000000  1.000000  1.000000
 FoFCou: FMM=F IPFlag=           0 FMFlag=      100000 FMFlg1=           0
         NFxFlg=           0 DoJE=T BraDBF=F KetDBF=T FulRan=T
         Omega=  0.000000  0.000000  1.000000  0.000000  0.000000 ICntrl=     500 IOpCl=  0
         NMat0=    1 NMatS0=    1 NMatT0=    0 NMatD0=    1 NMtDS0=    0 NMtDT0=    0
         I1Cent=           4 NGrid=           0.
 Symmetry not used in FoFCou.
 Requested convergence on RMS density matrix=1.00D-08 within 300 cycles.
 Requested convergence on MAX density matrix=1.00D-06.
 Requested convergence on             energy=1.00D-06.
 No special actions if energy rises.
 Keep R1 ints in memory in canonical form, NReq=454348607.
 DSYEVD returned Info=         317 IAlg= 4 N=   211 NDim=   211 NE2=     2970788 trying DSYEV.
 SCF Done:  E(RHF) =  -598.617124356     A.U. after   12 cycles
             Convg  =    0.9410D-08             -V/T =  2.0001
 ExpMin= 2.53D-02 ExpMax= 4.56D+05 ExpMxC= 1.44D+03 IAcc=3 IRadAn=         5 AccDes= 0.00D+00
 HarFok:  IExCor=  205 AccDes= 0.00D+00 IRadAn=         5 IDoV=-2
 ScaDFX=  1.000000  1.000000  1.000000  1.000000
 DSYEVD returned Info=          93 IAlg= 4 N=    46 NDim=    46 NE2=    21472034 trying DSYEV.
 DSYEVD returned Info=         101 IAlg= 4 N=    50 NDim=    50 NE2=    21472034 trying DSYEV.
 DSYEVD returned Info=          93 IAlg= 4 N=    46 NDim=    46 NE2=    21472034 trying DSYEV.
 Range of M.O.s used for correlation:     8   211
 NBasis=   211 NAE=    18 NBE=    18 NFC=     7 NFV=     0
 NROrb=    204 NOA=    11 NOB=    11 NVA=   193 NVB=   193

 **** Warning!!: The largest alpha MO coefficient is  0.35242401D+02

 Semi-Direct transformation.
 ModeAB=           2 MOrb=            11 LenV=    1072528222
 LASXX=     44979418 LTotXX=    44979418 LenRXX=    44979418
 LTotAB=    45631872 MaxLAS=    67073160 LenRXY=    67073160
 NonZer=    89958836 LenScr=   135708672 LnRSAI=           0
 LnScr1=           0 LExtra=           0 Total=    247761250
 MaxDsk=          -1 SrtSym=           F ITran=            4
 JobTyp=0 Pass  1:  I=   1 to  11.
 (rs|ai) integrals will be sorted in core.
 Spin components of T(2) and E(2):
     alpha-alpha T2 =       0.2567354947D-01 E2=     -0.8208214091D-01
     alpha-beta  T2 =       0.1452557534D+00 E2=     -0.5099784796D+00
     beta-beta   T2 =       0.2567354947D-01 E2=     -0.8208214091D-01
 ANorm=    0.1093893437D+01
 E2 =    -0.6741427614D+00 EUMP2 =    -0.59929126711708D+03
 R2 and R3 integrals will be kept in memory, NReq=   900794930.
 Iterations=  50 Convergence= 0.100D-07
 Iteration Nr.   1
 **********************
 DD1Dir will call FoFMem   1 times, MxPair=       132
 NAB=    66 NAA=     0 NBB=     0.
 MP4(R+Q)=  0.14438869D-01
 E3=       -0.18701001D-01        EUMP3=      -0.59930996812D+03
 E4(DQ)=   -0.45152165D-03        UMP4(DQ)=   -0.59931041964D+03
 E4(SDQ)=  -0.98176933D-02        UMP4(SDQ)=  -0.59931978581D+03
 DE(Corr)= -0.67840489     E(Corr)=     -599.29552925    
 NORM(A)=   0.10996848D+01
 Iteration Nr.   2
 **********************
 DD1Dir will call FoFMem   1 times, MxPair=       132
 NAB=    66 NAA=     0 NBB=     0.
 DE(Corr)= -0.70060466     E(CORR)=     -599.31772902     Delta=-2.22D-02
 NORM(A)=   0.11070391D+01
 Iteration Nr.   3
 **********************
 DD1Dir will call FoFMem   1 times, MxPair=       132
 NAB=    66 NAA=     0 NBB=     0.
 DE(Corr)= -0.69820774     E(CORR)=     -599.31533210     Delta= 2.40D-03
 NORM(A)=   0.11110241D+01
 Iteration Nr.   4
 **********************
 DD1Dir will call FoFMem   1 times, MxPair=       132
 NAB=    66 NAA=     0 NBB=     0.
 DE(Corr)= -0.70126680     E(CORR)=     -599.31839116     Delta=-3.06D-03
 NORM(A)=   0.11131279D+01
 Iteration Nr.   5
 **********************
 DD1Dir will call FoFMem   1 times, MxPair=       132
 NAB=    66 NAA=     0 NBB=     0.
 DE(Corr)= -0.70186177     E(CORR)=     -599.31898613     Delta=-5.95D-04
 NORM(A)=   0.11141589D+01
 Iteration Nr.   6
 **********************
 DD1Dir will call FoFMem   1 times, MxPair=       132
 NAB=    66 NAA=     0 NBB=     0.
 DE(Corr)= -0.70200855     E(CORR)=     -599.31913291     Delta=-1.47D-04
 NORM(A)=   0.11144848D+01
 Iteration Nr.   7
 **********************
 DD1Dir will call FoFMem   1 times, MxPair=       132
 NAB=    66 NAA=     0 NBB=     0.
 DE(Corr)= -0.70203827     E(CORR)=     -599.31916263     Delta=-2.97D-05
 NORM(A)=   0.11145158D+01
 Iteration Nr.   8
 **********************
 DD1Dir will call FoFMem   1 times, MxPair=       132
 NAB=    66 NAA=     0 NBB=     0.
 DE(Corr)= -0.70205215     E(CORR)=     -599.31917651     Delta=-1.39D-05
 NORM(A)=   0.11145337D+01
 Iteration Nr.   9
 **********************
 DD1Dir will call FoFMem   1 times, MxPair=       132
 NAB=    66 NAA=     0 NBB=     0.
 DE(Corr)= -0.70202894     E(CORR)=     -599.31915329     Delta= 2.32D-05
 NORM(A)=   0.11145368D+01
 Iteration Nr.  10
 **********************
 DD1Dir will call FoFMem   1 times, MxPair=       132
 NAB=    66 NAA=     0 NBB=     0.
 DE(Corr)= -0.70204824     E(CORR)=     -599.31917259     Delta=-1.93D-05
 NORM(A)=   0.11145370D+01
 Iteration Nr.  11
 **********************
 DD1Dir will call FoFMem   1 times, MxPair=       132
 NAB=    66 NAA=     0 NBB=     0.
 DE(Corr)= -0.70203904     E(CORR)=     -599.31916340     Delta= 9.19D-06
 NORM(A)=   0.11145399D+01
 Iteration Nr.  12
 **********************
 DD1Dir will call FoFMem   1 times, MxPair=       132
 NAB=    66 NAA=     0 NBB=     0.
 DE(Corr)= -0.70204280     E(CORR)=     -599.31916715     Delta=-3.75D-06
 NORM(A)=   0.11145404D+01
 Iteration Nr.  13
 **********************
 DD1Dir will call FoFMem   1 times, MxPair=       132
 NAB=    66 NAA=     0 NBB=     0.
 DE(Corr)= -0.70204336     E(CORR)=     -599.31916772     Delta=-5.66D-07
 NORM(A)=   0.11145411D+01
 Iteration Nr.  14
 **********************
 DD1Dir will call FoFMem   1 times, MxPair=       132
 NAB=    66 NAA=     0 NBB=     0.
 DE(Corr)= -0.70204359     E(CORR)=     -599.31916794     Delta=-2.24D-07
 NORM(A)=   0.11145412D+01
 Iteration Nr.  15
 **********************
 DD1Dir will call FoFMem   1 times, MxPair=       132
 NAB=    66 NAA=     0 NBB=     0.
 DE(Corr)= -0.70204350     E(CORR)=     -599.31916785     Delta= 9.05D-08
 NORM(A)=   0.11145411D+01
 Iteration Nr.  16
 **********************
 DD1Dir will call FoFMem   1 times, MxPair=       132
 NAB=    66 NAA=     0 NBB=     0.
 DE(Corr)= -0.70204370     E(CORR)=     -599.31916805     Delta=-2.03D-07
 NORM(A)=   0.11145410D+01
 Iteration Nr.  17
 **********************
 DD1Dir will call FoFMem   1 times, MxPair=       132
 NAB=    66 NAA=     0 NBB=     0.
 DE(Corr)= -0.70204357     E(CORR)=     -599.31916792     Delta= 1.31D-07
 NORM(A)=   0.11145408D+01
 Iteration Nr.  18
 **********************
 DD1Dir will call FoFMem   1 times, MxPair=       132
 NAB=    66 NAA=     0 NBB=     0.
 DE(Corr)= -0.70204360     E(CORR)=     -599.31916796     Delta=-3.67D-08
 NORM(A)=   0.11145407D+01
 Iteration Nr.  19
 **********************
 DD1Dir will call FoFMem   1 times, MxPair=       132
 NAB=    66 NAA=     0 NBB=     0.
 DE(Corr)= -0.70204355     E(CORR)=     -599.31916791     Delta= 5.27D-08
 NORM(A)=   0.11145406D+01
 Iteration Nr.  20
 **********************
 DD1Dir will call FoFMem   1 times, MxPair=       132
 NAB=    66 NAA=     0 NBB=     0.
 DE(Corr)= -0.70204355     E(CORR)=     -599.31916791     Delta=-2.48D-09
 NORM(A)=   0.11145405D+01
 Iteration Nr.  21
 **********************
 DD1Dir will call FoFMem   1 times, MxPair=       132
 NAB=    66 NAA=     0 NBB=     0.
 DE(Corr)= -0.70204354     E(CORR)=     -599.31916789     Delta= 1.91D-08
 NORM(A)=   0.11145405D+01
 Iteration Nr.  22
 **********************
 DD1Dir will call FoFMem   1 times, MxPair=       132
 NAB=    66 NAA=     0 NBB=     0.
 DE(Corr)= -0.70204353     E(CORR)=     -599.31916789     Delta= 2.89D-09
 NORM(A)=   0.11145405D+01
 Iteration Nr.  23
 **********************
 DD1Dir will call FoFMem   1 times, MxPair=       132
 NAB=    66 NAA=     0 NBB=     0.
 DE(Corr)= -0.70204353     E(CORR)=     -599.31916788     Delta= 5.42D-09
 NORM(A)=   0.11145405D+01
 Iteration Nr.  24
 **********************
 DD1Dir will call FoFMem   1 times, MxPair=       132
 NAB=    66 NAA=     0 NBB=     0.
 DE(Corr)= -0.70204353     E(CORR)=     -599.31916788     Delta=-9.93D-10
 NORM(A)=   0.11145405D+01
 Iteration Nr.  25
 **********************
 DD1Dir will call FoFMem   1 times, MxPair=       132
 NAB=    66 NAA=     0 NBB=     0.
 DE(Corr)= -0.70204352     E(CORR)=     -599.31916788     Delta= 3.74D-09
 NORM(A)=   0.11145405D+01
 Iteration Nr.  26
 **********************
 DD1Dir will call FoFMem   1 times, MxPair=       132
 NAB=    66 NAA=     0 NBB=     0.
 DE(Corr)= -0.70204353     E(CORR)=     -599.31916788     Delta=-2.48D-09
 NORM(A)=   0.11145405D+01
 Iteration Nr.  27
 **********************
 DD1Dir will call FoFMem   1 times, MxPair=       132
 NAB=    66 NAA=     0 NBB=     0.
 DE(Corr)= -0.70204352     E(CORR)=     -599.31916788     Delta= 2.29D-09
 NORM(A)=   0.11145405D+01
 Largest amplitude= 6.61D-02

 Z-AMPLITUDE ITERATIONS

 Iteration Nr.   1
 **********************
 DD1Dir will call FoFMem   1 times, MxPair=       132
 NAB=    66 NAA=     0 NBB=     0.
 DE(Z)  -0.68265150D+00          E(Z)=    -0.59929977585D+03
 NORM(A)=   0.11144231D+01
 Iteration Nr.   2
 **********************
 DD1Dir will call FoFMem   1 times, MxPair=       132
 NAB=    66 NAA=     0 NBB=     0.
 DE(Z)  -0.68263861D+00          E(Z)=    -0.59929976297D+03
 NORM(A)=   0.11143783D+01
 Iteration Nr.   3
 **********************
 DD1Dir will call FoFMem   1 times, MxPair=       132
 NAB=    66 NAA=     0 NBB=     0.
 DE(Z)  -0.68263607D+00          E(Z)=    -0.59929976043D+03
 NORM(A)=   0.11165414D+01
 Iteration Nr.   4
 **********************
 DD1Dir will call FoFMem   1 times, MxPair=       132
 NAB=    66 NAA=     0 NBB=     0.
 DE(Z)  -0.68285018D+00          E(Z)=    -0.59929997453D+03
 NORM(A)=   0.11142581D+01
 Iteration Nr.   5
 **********************
 DD1Dir will call FoFMem   1 times, MxPair=       132
 NAB=    66 NAA=     0 NBB=     0.
 DE(Z)  -0.68262392D+00          E(Z)=    -0.59929974827D+03
 NORM(A)=   0.11078849D+01
 Iteration Nr.   6
 **********************
 DD1Dir will call FoFMem   1 times, MxPair=       132
 NAB=    66 NAA=     0 NBB=     0.
 DE(Z)  -0.68198235D+00          E(Z)=    -0.59929910671D+03
 NORM(A)=   0.11078782D+01
 Iteration Nr.   7
 **********************
 DD1Dir will call FoFMem   1 times, MxPair=       132
 NAB=    66 NAA=     0 NBB=     0.
 DE(Z)  -0.68198519D+00          E(Z)=    -0.59929910955D+03
 NORM(A)=   0.11078754D+01
 Iteration Nr.   8
 **********************
 DD1Dir will call FoFMem   1 times, MxPair=       132
 NAB=    66 NAA=     0 NBB=     0.
 DE(Z)  -0.68198244D+00          E(Z)=    -0.59929910680D+03
 NORM(A)=   0.11078710D+01
 Iteration Nr.   9
 **********************
 DD1Dir will call FoFMem   1 times, MxPair=       132
 NAB=    66 NAA=     0 NBB=     0.
 DE(Z)  -0.68198291D+00          E(Z)=    -0.59929910727D+03
 NORM(A)=   0.11078699D+01
 Iteration Nr.  10
 **********************
 DD1Dir will call FoFMem   1 times, MxPair=       132
 NAB=    66 NAA=     0 NBB=     0.
 DE(Z)  -0.68198266D+00          E(Z)=    -0.59929910701D+03
 NORM(A)=   0.11078695D+01
 Iteration Nr.  11
 **********************
 DD1Dir will call FoFMem   1 times, MxPair=       132
 NAB=    66 NAA=     0 NBB=     0.
 DE(Z)  -0.68198267D+00          E(Z)=    -0.59929910702D+03
 NORM(A)=   0.11078694D+01
 Iteration Nr.  12
 **********************
 DD1Dir will call FoFMem   1 times, MxPair=       132
 NAB=    66 NAA=     0 NBB=     0.
 DE(Z)  -0.68198273D+00          E(Z)=    -0.59929910709D+03
 NORM(A)=   0.11078695D+01
 Iteration Nr.  13
 **********************
 DD1Dir will call FoFMem   1 times, MxPair=       132
 NAB=    66 NAA=     0 NBB=     0.
 DE(Z)  -0.68198274D+00          E(Z)=    -0.59929910709D+03
 NORM(A)=   0.11078695D+01
 Iteration Nr.  14
 **********************
 DD1Dir will call FoFMem   1 times, MxPair=       132
 NAB=    66 NAA=     0 NBB=     0.
 DE(Z)  -0.68198273D+00          E(Z)=    -0.59929910708D+03
 NORM(A)=   0.11078695D+01
 Iteration Nr.  15
 **********************
 DD1Dir will call FoFMem   1 times, MxPair=       132
 NAB=    66 NAA=     0 NBB=     0.
 DE(Z)  -0.68198275D+00          E(Z)=    -0.59929910711D+03
 NORM(A)=   0.11078695D+01
 Iteration Nr.  16
 **********************
 DD1Dir will call FoFMem   1 times, MxPair=       132
 NAB=    66 NAA=     0 NBB=     0.
 DE(Z)  -0.68198277D+00          E(Z)=    -0.59929910712D+03
 NORM(A)=   0.11078695D+01
 Iteration Nr.  17
 **********************
 DD1Dir will call FoFMem   1 times, MxPair=       132
 NAB=    66 NAA=     0 NBB=     0.
 DE(Z)  -0.68198275D+00          E(Z)=    -0.59929910711D+03
 NORM(A)=   0.11078695D+01
 Iteration Nr.  18
 **********************
 DD1Dir will call FoFMem   1 times, MxPair=       132
 NAB=    66 NAA=     0 NBB=     0.
 DE(Z)  -0.68198274D+00          E(Z)=    -0.59929910710D+03
 NORM(A)=   0.11078695D+01
 Iteration Nr.  19
 **********************
 DD1Dir will call FoFMem   1 times, MxPair=       132
 NAB=    66 NAA=     0 NBB=     0.
 DE(Z)  -0.68198274D+00          E(Z)=    -0.59929910709D+03
 NORM(A)=   0.11078695D+01
 Iteration Nr.  20
 **********************
 DD1Dir will call FoFMem   1 times, MxPair=       132
 NAB=    66 NAA=     0 NBB=     0.
 DE(Z)  -0.68198266D+00          E(Z)=    -0.59929910702D+03
 NORM(A)=   0.11078695D+01
 Iteration Nr.  21
 **********************
 DD1Dir will call FoFMem   1 times, MxPair=       132
 NAB=    66 NAA=     0 NBB=     0.
 DE(Z)  -0.68198274D+00          E(Z)=    -0.59929910710D+03
 NORM(A)=   0.11078695D+01
 Iteration Nr.  22
 **********************
 DD1Dir will call FoFMem   1 times, MxPair=       132
 NAB=    66 NAA=     0 NBB=     0.
 DE(Z)  -0.68198274D+00          E(Z)=    -0.59929910710D+03
 NORM(A)=   0.11078695D+01
 Iteration Nr.  23
 **********************
 DD1Dir will call FoFMem   1 times, MxPair=       132
 NAB=    66 NAA=     0 NBB=     0.
 DE(Z)  -0.68198275D+00          E(Z)=    -0.59929910710D+03
 NORM(A)=   0.11078695D+01
 Iteration Nr.  24
 **********************
 DD1Dir will call FoFMem   1 times, MxPair=       132
 NAB=    66 NAA=     0 NBB=     0.
 DE(Z)  -0.68198274D+00          E(Z)=    -0.59929910710D+03
 NORM(A)=   0.11078695D+01
 Iteration Nr.  25
 **********************
 DD1Dir will call FoFMem   1 times, MxPair=       132
 NAB=    66 NAA=     0 NBB=     0.
 DE(Z)  -0.68198274D+00          E(Z)=    -0.59929910710D+03
 NORM(A)=   0.11078695D+01
 Iteration Nr.  26
 **********************
 DD1Dir will call FoFMem   1 times, MxPair=       132
 NAB=    66 NAA=     0 NBB=     0.
 DE(Z)  -0.68198274D+00          E(Z)=    -0.59929910710D+03
 NORM(A)=   0.11078695D+01
 Iteration Nr.  27
 **********************
 DD1Dir will call FoFMem   1 times, MxPair=       132
 NAB=    66 NAA=     0 NBB=     0.
 DE(Z)  -0.68198274D+00          E(Z)=    -0.59929910710D+03
 NORM(A)=   0.11078695D+01
 Discarding MO integrals.
          IDoAtm=111111
          Differentiating once with respect to electric field.
                with respect to dipole field.
          Differentiating once with respect to nuclear coordinates.
          Keep R1 ints in memory in canonical form, NReq=448662365.
          There are     1 degrees of freedom in the 1st order CPHF.  IDoFFX=0.
 LinEq1:  Iter=  0 NonCon=     1 RMS=3.11D-03 Max=1.20D-01
 AX will form     1 AO Fock derivatives at one time.
 LinEq1:  Iter=  1 NonCon=     1 RMS=6.94D-04 Max=7.34D-03
 LinEq1:  Iter=  2 NonCon=     1 RMS=2.29D-04 Max=5.72D-03
 LinEq1:  Iter=  3 NonCon=     1 RMS=9.49D-05 Max=1.43D-03
 LinEq1:  Iter=  4 NonCon=     1 RMS=3.84D-05 Max=4.10D-04
 LinEq1:  Iter=  5 NonCon=     1 RMS=1.06D-05 Max=2.26D-04
 LinEq1:  Iter=  6 NonCon=     1 RMS=2.42D-06 Max=4.25D-05
 LinEq1:  Iter=  7 NonCon=     1 RMS=6.06D-07 Max=9.14D-06
 LinEq1:  Iter=  8 NonCon=     1 RMS=1.49D-07 Max=1.80D-06
 LinEq1:  Iter=  9 NonCon=     1 RMS=3.03D-08 Max=7.47D-07
 LinEq1:  Iter= 10 NonCon=     1 RMS=6.54D-09 Max=8.80D-08
 LinEq1:  Iter= 11 NonCon=     1 RMS=1.05D-09 Max=1.16D-08
 LinEq1:  Iter= 12 NonCon=     1 RMS=1.68D-10 Max=2.85D-09
 LinEq1:  Iter= 13 NonCon=     0 RMS=2.40D-11 Max=3.21D-10
 Linear equations converged to 1.000D-10 1.000D-09 after    13 iterations.
 End of Minotr Frequency-dependent properties file   721 does not exist.
 End of Minotr Frequency-dependent properties file   722 does not exist.

 **********************************************************************

            Population analysis using the QCI/CC density.

 **********************************************************************

 Alpha  occ. eigenvalues -- -104.61122 -25.91814 -11.14555 -10.33587  -7.80222
 Alpha  occ. eigenvalues --   -7.80151  -7.80151  -1.17349  -0.87928  -0.75763
 Alpha  occ. eigenvalues --   -0.46181  -0.46181  -0.31798  -0.27275  -0.27275
 Alpha  occ. eigenvalues --   -0.24758  -0.24758  -0.23090
 Alpha virt. eigenvalues --    0.14808   0.15258   0.15258   0.19032   0.25053
 Alpha virt. eigenvalues --    0.25053   0.25128   0.26339   0.26339   0.27892
 Alpha virt. eigenvalues --    0.33812   0.34652   0.34652   0.36533   0.41004
 Alpha virt. eigenvalues --    0.42836   0.42836   0.46999   0.46999   0.47296
 Alpha virt. eigenvalues --    0.48435   0.49131   0.49131   0.51650   0.53746
 Alpha virt. eigenvalues --    0.53746   0.54059   0.59919   0.59919   0.62147
 Alpha virt. eigenvalues --    0.62147   0.62982   0.62982   0.63252   0.68022
 Alpha virt. eigenvalues --    0.68023   0.69171   0.82421   0.89909   0.89909
 Alpha virt. eigenvalues --    0.91306   0.92285   0.92285   0.93206   1.00728
 Alpha virt. eigenvalues --    1.01277   1.01498   1.01498   1.05462   1.05462
 Alpha virt. eigenvalues --    1.09027   1.09027   1.10137   1.12281   1.13825
 Alpha virt. eigenvalues --    1.13825   1.19668   1.19668   1.21287   1.22242
 Alpha virt. eigenvalues --    1.22242   1.26743   1.26743   1.27732   1.31952
 Alpha virt. eigenvalues --    1.31952   1.32374   1.37485   1.37485   1.37735
 Alpha virt. eigenvalues --    1.40853   1.40853   1.45026   1.45026   1.45509
 Alpha virt. eigenvalues --    1.47667   1.55387   1.55387   1.59962   1.68334
 Alpha virt. eigenvalues --    1.71639   1.73981   1.73981   1.78047   1.79421
 Alpha virt. eigenvalues --    1.79421   1.82755   1.82755   1.83170   1.92318
 Alpha virt. eigenvalues --    1.92318   1.93713   2.02600   2.02946   2.02946
 Alpha virt. eigenvalues --    2.08527   2.12264   2.12264   2.19849   2.23577
 Alpha virt. eigenvalues --    2.30585   2.30585   2.36708   2.36708   2.56769
 Alpha virt. eigenvalues --    2.78273   2.78394   2.78394   2.85269   2.85269
 Alpha virt. eigenvalues --    2.96278   2.99656   2.99657   3.19531   3.19532
 Alpha virt. eigenvalues --    3.25350   3.29191   3.29596   3.30110   3.30110
 Alpha virt. eigenvalues --    3.30527   3.33097   3.33098   3.35049   3.37432
 Alpha virt. eigenvalues --    3.38328   3.38328   3.43169   3.49514   3.50037
 Alpha virt. eigenvalues --    3.50037   3.56554   3.56555   3.61716   3.61717
 Alpha virt. eigenvalues --    3.73810   3.80650   3.82332   3.82334   3.87505
 Alpha virt. eigenvalues --    3.90344   3.90344   3.95064   3.95064   4.10629
 Alpha virt. eigenvalues --    4.19071   4.19071   4.23383   4.23384   4.26377
 Alpha virt. eigenvalues --    4.45294   4.47708   4.47708   4.59887   4.68395
 Alpha virt. eigenvalues --    4.68396   4.97117   5.00301   5.03114   5.03114
 Alpha virt. eigenvalues --    5.13068   5.15080   5.15081   5.36674   5.48847
 Alpha virt. eigenvalues --    5.48847   5.60802   5.60802   5.75724   5.75725
 Alpha virt. eigenvalues --    5.94024   5.94025   5.96352   6.17572   6.64537
 Alpha virt. eigenvalues --    6.66941   6.73890   6.73890   7.36669   9.21105
 Alpha virt. eigenvalues --    9.21880   9.29371   9.29372   9.49868   9.49869
 Alpha virt. eigenvalues --    9.57453   9.72841   9.72841   9.83365   9.83365
 Alpha virt. eigenvalues --    9.89826  13.55348  18.09887
          Condensed to atoms (all electrons):
              1          2          3          4          5          6
     1  C    7.012210  -0.009266  -0.009270  -0.009270  -0.050908  -0.099836
     2  H   -0.009266   0.547071   0.020073   0.020074  -0.018740   0.004333
     3  H   -0.009270   0.020073   0.547074   0.020074  -0.018739   0.004338
     4  H   -0.009270   0.020074   0.020074   0.547074  -0.018739   0.004337
     5  Cl  -0.050908  -0.018740  -0.018739  -0.018739  17.709255   0.026400
     6  F   -0.099836   0.004333   0.004338   0.004337   0.026400   9.907594
 Mulliken atomic charges:
              1
     1  C   -0.833659
     2  H    0.436454
     3  H    0.436449
     4  H    0.436451
     5  Cl  -0.628528
     6  F   -0.847167
 Sum of Mulliken atomic charges =  -1.00000
 Mulliken charges with hydrogens summed into heavy atoms:
              1
     1  C    0.475695
     5  Cl  -0.628528
     6  F   -0.847167
 Sum of Mulliken charges with hydrogens summed into heavy atoms =  -1.00000
 Electronic spatial extent (au):  <R**2>=            490.3145
 Charge=             -1.0000 electrons
 Dipole moment (field-independent basis, Debye):
    X=             -0.0006    Y=              0.0007    Z=              4.0662  Tot=              4.0662
 Quadrupole moment (field-independent basis, Debye-Ang):
   XX=            -28.1814   YY=            -28.1814   ZZ=            -62.8203
   XY=              0.0000   XZ=             -0.0050   YZ=             -0.0145
 Traceless Quadrupole moment (field-independent basis, Debye-Ang):
   XX=             11.5463   YY=             11.5463   ZZ=            -23.0926
   XY=              0.0000   XZ=             -0.0050   YZ=             -0.0145
 Octapole moment (field-independent basis, Debye-Ang**2):
  XXX=             -0.0244  YYY=             -0.9747  ZZZ=             49.6881  XYY=             -0.0086
  XXY=              0.9406  XXZ=             -4.2363  XZZ=             -0.0066  YZZ=              0.0111
  YYZ=             -4.2355  XYZ=             -0.0002
 Hexadecapole moment (field-independent basis, Debye-Ang**3):
 XXXX=            -41.2683 YYYY=            -41.2682 ZZZZ=           -761.6418 XXXY=              0.0004
 XXXZ=             -0.0507 YYYX=             -0.0002 YYYZ=              0.5143 ZZZX=             -0.0657
 ZZZY=             -0.1889 XXYY=            -13.7562 XXZZ=           -103.3853 YYZZ=           -103.3864
 XXYZ=             -0.6773 YYXZ=             -0.0166 ZZXY=              0.0002
 N-N= 8.498428006959D+01 E-N=-1.604180571354D+03  KE= 5.991954544183D+02
 Use density number 7.
 DipInt: DoE/N= T T RetVal/Mat= T F Init=T NMatP=  1 IDeriv=0 Min/MaxMlt=  1  1
 Entering OneElI...
 Multipole integrals L=1 to 1 MinM= 0 MaxM= 0.
 Requested accuracy = 0.1000D-12
 PrsmSu:  NPrtUS=   1 ThrOK=F IAlg=1 NPAlg=1 LenDen=           0.
 Prism:   IPart=     0 DynPar=F LinDyn=F Incr=          25.
 PRISM was handed  1073374413 working-precision words and  2517 shell-pairs
 IPart=  0 NShTot=        2517 NBatch=          69 AvBLen=        36.5
 PrSmSu:  NxtVal=             26.
 Entering OneElI...
 Calculate overlap and kinetic energy integrals
    NBasis = 244  MinDer = 1  MaxDer = 1
 Requested accuracy = 0.1000D-12
 PrsmSu:  NPrtUS=   8 ThrOK=T IAlg=1 NPAlg=1 LenDen=           0.
 Prism:   IPart=     0 DynPar=F LinDyn=F Incr=           3.
 PRISM was handed   134104310 working-precision words and  2542 shell-pairs
 PRISM was handed   134104310 working-precision words and  2542 shell-pairs
 PRISM was handed   134104310 working-precision words and  2542 shell-pairs
 PRISM was handed   134104310 working-precision words and  2542 shell-pairs
 PRISM was handed   134104310 working-precision words and  2542 shell-pairs
 PRISM was handed   134104310 working-precision words and  2542 shell-pairs
 PRISM was handed   134104310 working-precision words and  2542 shell-pairs
 PRISM was handed   134104310 working-precision words and  2542 shell-pairs
 IPart=  4 NShTot=         312 NBatch=          42 AvBLen=         7.4
 IPart=  3 NShTot=         321 NBatch=          44 AvBLen=         7.3
 IPart=  2 NShTot=         327 NBatch=          47 AvBLen=         7.0
 IPart=  0 NShTot=         360 NBatch=          74 AvBLen=         4.9
 IPart=  1 NShTot=         344 NBatch=          58 AvBLen=         5.9
 IPart=  5 NShTot=         299 NBatch=          38 AvBLen=         7.9
 IPart=  6 NShTot=         291 NBatch=          38 AvBLen=         7.7
 IPart=  7 NShTot=         288 NBatch=          37 AvBLen=         7.8
 PrSmSu:  NxtVal=             25.
 Entering OneElI...
 Calculate potential energy integrals
    NBasis = 244  MinDer = 1  MaxDer = 1
 Requested accuracy = 0.1000D-12
 PrsmSu:  NPrtUS=   8 ThrOK=T IAlg=1 NPAlg=1 LenDen=           0.
 Prism:   IPart=     0 DynPar=F LinDyn=F Incr=          18.
 PRISM was handed   134117609 working-precision words and  2501 shell-pairs
 PRISM was handed   134117609 working-precision words and  2501 shell-pairs
 PRISM was handed   134117609 working-precision words and  2501 shell-pairs
 PRISM was handed   134117609 working-precision words and  2501 shell-pairs
 PRISM was handed   134117609 working-precision words and  2501 shell-pairs
 PRISM was handed   134117609 working-precision words and  2501 shell-pairs
 PRISM was handed   134117609 working-precision words and  2501 shell-pairs
 PRISM was handed   134117609 working-precision words and  2501 shell-pairs
 IPart=  4 NShTot=        1812 NBatch=         302 AvBLen=         6.0
 IPart=  3 NShTot=        1878 NBatch=         313 AvBLen=         6.0
 IPart=  2 NShTot=        1938 NBatch=         323 AvBLen=         6.0
 IPart=  1 NShTot=        2028 NBatch=         338 AvBLen=         6.0
 IPart=  5 NShTot=        1770 NBatch=         295 AvBLen=         6.0
 IPart=  0 NShTot=        2124 NBatch=         354 AvBLen=         6.0
 IPart=  6 NShTot=        1752 NBatch=         292 AvBLen=         6.0
 IPart=  7 NShTot=        1704 NBatch=         284 AvBLen=         6.0
 PrSmSu:  NxtVal=            145.
 l701 out
 I=    0 X=  -2.286194941043D-04 Y=   2.836357520528D-04 Z=   1.599753421111D+00
 I=    1 X=  -3.948265328982D-04 Y=  -8.680820482577D-04 Z=  -2.099061684504D+00
 I=    2 X=  -8.204303230977D-04 Y=  -5.625964119887D+00 Z=  -5.652153424523D-01
 I=    3 X=  -4.871770909818D+00 Y=   2.813250704878D+00 Z=  -5.679578938804D-01
 I=    4 X=   4.872285958942D+00 Y=   2.812015703925D+00 Z=  -5.697039116908D-01
 I=    5 X=   1.899365714009D-03 Y=   4.708398107501D-03 Z=   1.075117417893D+01
 I=    6 X=  -1.199157982300D-03 Y=  -3.142604974920D-03 Z=  -6.949235346406D+00
 ICntrl=      2127.
 Calling FoFJK, ICntrl=      2127 FMM=F ISym2X=0 I1Cent= 0 IOpClX= 0 NMat=1 NMatS=1 NMatT=0.
 FoFJK:  IHMeth= 1 ICntrl=  2127 DoSepK=F KAlg= 1 I1Cent= 0 FoldK=F
 FoFCou: FMM=F IPFlag=           0 FMFlag=      100000 FMFlg1=         800
         NFxFlg=           0 DoJE=F BraDBF=F KetDBF=F FulRan=T
         Omega=  0.000000  0.000000  1.000000  0.000000  0.000000 ICntrl=    2127 IOpCl=  0
         NMat0=    1 NMatS0=    1 NMatT0=    0 NMatD0=    1 NMtDS0=    0 NMtDT0=    0
         I1Cent=           0 NGrid=           0.
 Symmetry not used in FoFCou.
 FoFCou:  KetSym=F NOpSet=  1 NOpAb=1 NOp=  1.
 FoFCou:  CnvScl= 1.00D+00 Thresh= 1.00D-10
 PrismS was handed  1073462700 working-precision words and  2514 shell-pairs
 FoFCou: LinMIO=F DoNuc=F BraDBF=F KetDBF=F HaveP=T PDBF=F HaveZ=T HaveW=F
         NIJTC =      10 NIJTAt=       0 NIJTCD=       0 NIJTT =      10
         IJTBeg=       1 IJTEnd=      10 KLTBeg=       1 KLTEnd=      10
         IPTBeg=       1 IPTEnd=      10 IPTBCv=       1 IPTECv=      10
         IZTBeg=       1 IZTEnd=      10 IZTBCv=       1 IZTECv=      10
         IWTBeg=      11 IWTEnd=      10 IWTBCv=      11 IWTECv=      10
         INTBeg=       1 INTEnd=       0 IFTBCv=       1 IFTECv=      10
 NCel replicated for PrismC:     1
 CoulSu:  IncDef=  1024 NBBP=        3161355 NTPThr=   100 NPartT=    8 Incr=        1024 LDynOK=F.
 CoulSu:  NPrtUS=   8 ThrOK=T IAlg=1 NPAlg=1 LenDen=           0.
 Enter PrismC: JobTyp=21 DoJE=F Cont=F.
 PrismC:  IPart=     0 DynPar=T LinDyn=F Incr=        1024 UseFst=F UseS4=T.
 PrismC was handed   134126875 working-precision words and  2514 shell-pairs
 Enter PrismC: JobTyp=21 DoJE=F Cont=F.
 PrismC was handed   134126875 working-precision words and  2514 shell-pairs
 Enter PrismC: JobTyp=21 DoJE=F Cont=F.
 Enter PrismC: JobTyp=21 DoJE=F Cont=F.
 PrismC was handed   134126875 working-precision words and  2514 shell-pairs
 Enter PrismC: JobTyp=21 DoJE=F Cont=F.
 Enter PrismC: JobTyp=21 DoJE=F Cont=F.
 Enter PrismC: JobTyp=21 DoJE=F Cont=F.
 PrismC was handed   134126875 working-precision words and  2514 shell-pairs
 PrismC was handed   134126875 working-precision words and  2514 shell-pairs
 Enter PrismC: JobTyp=21 DoJE=F Cont=F.
 PrismC was handed   134126875 working-precision words and  2514 shell-pairs
 PrismC was handed   134126875 working-precision words and  2514 shell-pairs
 PrismC was handed   134126875 working-precision words and  2514 shell-pairs
 IPart=  5 NShTot=      347846 NShNF=      347846 NShFF=           0 NBatch=         925 AvBLen=       376.0
 IPart=  6 NShTot=      439431 NShNF=      439431 NShFF=           0 NBatch=        1026 AvBLen=       428.3
 IPart=  4 NShTot=      362817 NShNF=      362817 NShFF=           0 NBatch=         976 AvBLen=       371.7
 IPart=  1 NShTot=      325808 NShNF=      325808 NShFF=           0 NBatch=         843 AvBLen=       386.5
 IPart=  3 NShTot=      348158 NShNF=      348158 NShFF=           0 NBatch=         917 AvBLen=       379.7
 IPart=  2 NShTot=      345593 NShNF=      345593 NShFF=           0 NBatch=         822 AvBLen=       420.4
 IPart=  7 NShTot=      337339 NShNF=      337339 NShFF=           0 NBatch=         916 AvBLen=       368.3
 IPart=  0 NShTot=      449502 NShNF=      449502 NShFF=           0 NBatch=        1085 AvBLen=       414.3
 CoulSu:  NxtVal=        3363841.
 Forces at end of L703
 I=    0 X=  -2.286194941043D-04 Y=   2.836357520528D-04 Z=   1.599753421111D+00
 I=    1 X=  -1.075681503128D-07 Y=  -2.029008998120D-06 Z=  -7.106356209006D-03
 I=    2 X=   1.317089429585D-06 Y=   8.342362334330D-03 Z=   1.397207979385D-03
 I=    3 X=   7.223680258806D-03 Y=  -4.170991263866D-03 Z=   1.402356345670D-03
 I=    4 X=  -7.225578228049D-03 Y=  -4.169931145372D-03 Z=   1.404808622356D-03
 I=    5 X=   1.217034426604D-06 Y=   2.895082500257D-06 Z=   6.805253430171D-03
 I=    6 X=  -5.285863946527D-07 Y=  -2.305998576561D-06 Z=  -3.903270168582D-03
 FrcOut:
 IF    =    71 IFX   =    89 IFXYZ =   107
 IFFX  =   125 IFFFX =   125 IFLen =    18
 IFFLen=     0 IFFFLn=     0 IEDerv=   125
 LEDerv=   917 IFroze=  1046 ICStrt= 90585
 DipInt: DoE/N= T T RetVal/Mat= T F Init=T NMatP=  1 IDeriv=0 Min/MaxMlt=  1  1
 Entering OneElI...
 Multipole integrals L=1 to 1 MinM= 0 MaxM= 0.
 Requested accuracy = 0.1000D-12
 PrsmSu:  NPrtUS=   1 ThrOK=F IAlg=1 NPAlg=1 LenDen=           0.
 Prism:   IPart=     0 DynPar=F LinDyn=F Incr=          25.
 PRISM was handed  1073433310 working-precision words and  2517 shell-pairs
 IPart=  0 NShTot=        2517 NBatch=          69 AvBLen=        36.5
 PrSmSu:  NxtVal=             26.
 Computed dipole moment (without fudge factor):
 X=-0.2286194941043D-03   Y= 0.2836357520528D-03   Z= 0.1599753421111D+01
 Quadrupole    = 8.58440119D+00 8.58440033D+00-1.71688015D+01
                -2.20594191D-06-3.69228052D-03-1.07487335D-02
 -------------------------------------------------------------------
 Center     Atomic                   Forces (Hartrees/Bohr)
 Number     Number              X              Y              Z
 -------------------------------------------------------------------
      1        6           0.000000108    0.000002029    0.007106356
      2        1          -0.000001317   -0.008342362   -0.001397208
      3        1          -0.007223680    0.004170991   -0.001402356
      4        1           0.007225578    0.004169931   -0.001404809
      5       17          -0.000001217   -0.000002895   -0.006805253
      6        9           0.000000529    0.000002306    0.003903270
 -------------------------------------------------------------------
 Cartesian Forces:  Max     0.008342362 RMS     0.004260351
 Z-matrix is all fixed cartesians, so copy forces.
 Final forces over variables, Energy=-5.99319168D+02:
  1.07568150D-07-1.31708943D-06-7.22368026D-03 7.22557823D-03
 -1.21703443D-06 5.28586395D-07 2.02900900D-06-8.34236233D-03
  4.17099126D-03 4.16993115D-03-2.89508250D-06 2.30599858D-06
  7.10635621D-03-1.39720798D-03-1.40235635D-03-1.40480862D-03
 -6.80525343D-03 3.90327017D-03
 NDeriv=  18 NFrqRd=  0 LFDDif=       1
 NDeriv=  18 NFrqRd=  0 LFDDif=       1
 At 1st pt Frequency-dependent properties file   721 does not exist.
 D2Numr ... symmetry will not be used.
 Standard basis: Aug-CC-pVTZ (5D, 7F)
 Integral buffers will be    131072 words long.
 Raffenetti 1 integral format.
 Two-electron integral symmetry is turned off.
   211 basis functions,   339 primitive gaussians,   244 cartesian basis functions
    18 alpha electrons       18 beta electrons
       nuclear repulsion energy        84.9842784902 Hartrees.
 NAtoms=    6 NActive=    6 NUniq=    6 SFac= 1.00D+00 NAtFMM=   50 NAOKFM=F Big=F
 One-electron integrals computed using PRISM.
 NBasis=   211 RedAO= T  NBF=   211
 NBsUse=   211 1.00D-06 NBFU=   211
 Initial guess read from the read-write file.
 B after Tr=     0.000000    0.000000    0.000000
         Rot=    1.000000    0.000000    0.000000    0.000000 Ang=   0.00 deg.
 Requested convergence on RMS density matrix=1.00D-08 within 300 cycles.
 Requested convergence on MAX density matrix=1.00D-06.
 Requested convergence on             energy=1.00D-06.
 No special actions if energy rises.
 Keep R1 ints in memory in canonical form, NReq=454348607.
 SCF Done:  E(RHF) =  -598.617122990     A.U. after    6 cycles
             Convg  =    0.8843D-08             -V/T =  2.0001
 ExpMin= 2.53D-02 ExpMax= 4.56D+05 ExpMxC= 1.44D+03 IAcc=3 IRadAn=         5 AccDes= 0.00D+00
 HarFok:  IExCor=  205 AccDes= 0.00D+00 IRadAn=         5 IDoV=-2
 ScaDFX=  1.000000  1.000000  1.000000  1.000000
 DSYEVD returned Info=          93 IAlg= 4 N=    46 NDim=    46 NE2=    21472034 trying DSYEV.
 Range of M.O.s used for correlation:     8   211
 NBasis=   211 NAE=    18 NBE=    18 NFC=     7 NFV=     0
 NROrb=    204 NOA=    11 NOB=    11 NVA=   193 NVB=   193

 **** Warning!!: The largest alpha MO coefficient is  0.35239734D+02

 Semi-Direct transformation.
 ModeAB=           2 MOrb=            11 LenV=    1072528222
 LASXX=     44979418 LTotXX=    44979418 LenRXX=    44979418
 LTotAB=    45631872 MaxLAS=    67073160 LenRXY=    67073160
 NonZer=    89958836 LenScr=   135708672 LnRSAI=           0
 LnScr1=           0 LExtra=           0 Total=    247761250
 MaxDsk=          -1 SrtSym=           F ITran=            4
 JobTyp=0 Pass  1:  I=   1 to  11.
 (rs|ai) integrals will be sorted in core.
 Spin components of T(2) and E(2):
     alpha-alpha T2 =       0.2567355756D-01 E2=     -0.8208215185D-01
     alpha-beta  T2 =       0.1452558130D+00 E2=     -0.5099785361D+00
     beta-beta   T2 =       0.2567355756D-01 E2=     -0.8208215185D-01
 ANorm=    0.1093893472D+01
 E2 =    -0.6741428398D+00 EUMP2 =    -0.59929126583000D+03
 R2 and R3 integrals will be kept in memory, NReq=   900794930.
 Iterations=  50 Convergence= 0.100D-07
 Iteration Nr.   1
 **********************
 DD1Dir will call FoFMem   1 times, MxPair=       132
 NAB=    66 NAA=     0 NBB=     0.
 MP4(R+Q)=  0.14438877D-01
 E3=       -0.18700997D-01        EUMP3=      -0.59930996683D+03
 E4(DQ)=   -0.45152261D-03        UMP4(DQ)=   -0.59931041835D+03
 E4(SDQ)=  -0.98177034D-02        UMP4(SDQ)=  -0.59931978453D+03
 DE(Corr)= -0.67840496     E(Corr)=     -599.29552795    
 NORM(A)=   0.10996848D+01
 Iteration Nr.   2
 **********************
 DD1Dir will call FoFMem   1 times, MxPair=       132
 NAB=    66 NAA=     0 NBB=     0.
 DE(Corr)= -0.70060474     E(CORR)=     -599.31772774     Delta=-2.22D-02
 NORM(A)=   0.11070391D+01
 Iteration Nr.   3
 **********************
 DD1Dir will call FoFMem   1 times, MxPair=       132
 NAB=    66 NAA=     0 NBB=     0.
 DE(Corr)= -0.69820782     E(CORR)=     -599.31533081     Delta= 2.40D-03
 NORM(A)=   0.11110242D+01
 Iteration Nr.   4
 **********************
 DD1Dir will call FoFMem   1 times, MxPair=       132
 NAB=    66 NAA=     0 NBB=     0.
 DE(Corr)= -0.70126689     E(CORR)=     -599.31838988     Delta=-3.06D-03
 NORM(A)=   0.11131280D+01
 Iteration Nr.   5
 **********************
 DD1Dir will call FoFMem   1 times, MxPair=       132
 NAB=    66 NAA=     0 NBB=     0.
 DE(Corr)= -0.70186185     E(CORR)=     -599.31898485     Delta=-5.95D-04
 NORM(A)=   0.11141590D+01
 Iteration Nr.   6
 **********************
 DD1Dir will call FoFMem   1 times, MxPair=       132
 NAB=    66 NAA=     0 NBB=     0.
 DE(Corr)= -0.70200864     E(CORR)=     -599.31913163     Delta=-1.47D-04
 NORM(A)=   0.11144848D+01
 Iteration Nr.   7
 **********************
 DD1Dir will call FoFMem   1 times, MxPair=       132
 NAB=    66 NAA=     0 NBB=     0.
 DE(Corr)= -0.70203836     E(CORR)=     -599.31916135     Delta=-2.97D-05
 NORM(A)=   0.11145159D+01
 Iteration Nr.   8
 **********************
 DD1Dir will call FoFMem   1 times, MxPair=       132
 NAB=    66 NAA=     0 NBB=     0.
 DE(Corr)= -0.70205224     E(CORR)=     -599.31917523     Delta=-1.39D-05
 NORM(A)=   0.11145337D+01
 Iteration Nr.   9
 **********************
 DD1Dir will call FoFMem   1 times, MxPair=       132
 NAB=    66 NAA=     0 NBB=     0.
 DE(Corr)= -0.70202902     E(CORR)=     -599.31915201     Delta= 2.32D-05
 NORM(A)=   0.11145369D+01
 Iteration Nr.  10
 **********************
 DD1Dir will call FoFMem   1 times, MxPair=       132
 NAB=    66 NAA=     0 NBB=     0.
 DE(Corr)= -0.70204832     E(CORR)=     -599.31917131     Delta=-1.93D-05
 NORM(A)=   0.11145371D+01
 Iteration Nr.  11
 **********************
 DD1Dir will call FoFMem   1 times, MxPair=       132
 NAB=    66 NAA=     0 NBB=     0.
 DE(Corr)= -0.70203913     E(CORR)=     -599.31916212     Delta= 9.19D-06
 NORM(A)=   0.11145400D+01
 Iteration Nr.  12
 **********************
 DD1Dir will call FoFMem   1 times, MxPair=       132
 NAB=    66 NAA=     0 NBB=     0.
 DE(Corr)= -0.70204288     E(CORR)=     -599.31916587     Delta=-3.75D-06
 NORM(A)=   0.11145404D+01
 Iteration Nr.  13
 **********************
 DD1Dir will call FoFMem   1 times, MxPair=       132
 NAB=    66 NAA=     0 NBB=     0.
 DE(Corr)= -0.70204345     E(CORR)=     -599.31916644     Delta=-5.66D-07
 NORM(A)=   0.11145411D+01
 Iteration Nr.  14
 **********************
 DD1Dir will call FoFMem   1 times, MxPair=       132
 NAB=    66 NAA=     0 NBB=     0.
 DE(Corr)= -0.70204367     E(CORR)=     -599.31916666     Delta=-2.24D-07
 NORM(A)=   0.11145412D+01
 Iteration Nr.  15
 **********************
 DD1Dir will call FoFMem   1 times, MxPair=       132
 NAB=    66 NAA=     0 NBB=     0.
 DE(Corr)= -0.70204358     E(CORR)=     -599.31916657     Delta= 9.05D-08
 NORM(A)=   0.11145412D+01
 Iteration Nr.  16
 **********************
 DD1Dir will call FoFMem   1 times, MxPair=       132
 NAB=    66 NAA=     0 NBB=     0.
 DE(Corr)= -0.70204378     E(CORR)=     -599.31916677     Delta=-2.03D-07
 NORM(A)=   0.11145410D+01
 Iteration Nr.  17
 **********************
 DD1Dir will call FoFMem   1 times, MxPair=       132
 NAB=    66 NAA=     0 NBB=     0.
 DE(Corr)= -0.70204365     E(CORR)=     -599.31916664     Delta= 1.31D-07
 NORM(A)=   0.11145409D+01
 Iteration Nr.  18
 **********************
 DD1Dir will call FoFMem   1 times, MxPair=       132
 NAB=    66 NAA=     0 NBB=     0.
 DE(Corr)= -0.70204369     E(CORR)=     -599.31916668     Delta=-3.66D-08
 NORM(A)=   0.11145407D+01
 Iteration Nr.  19
 **********************
 DD1Dir will call FoFMem   1 times, MxPair=       132
 NAB=    66 NAA=     0 NBB=     0.
 DE(Corr)= -0.70204364     E(CORR)=     -599.31916663     Delta= 5.26D-08
 NORM(A)=   0.11145407D+01
 Iteration Nr.  20
 **********************
 DD1Dir will call FoFMem   1 times, MxPair=       132
 NAB=    66 NAA=     0 NBB=     0.
 DE(Corr)= -0.70204364     E(CORR)=     -599.31916663     Delta=-2.51D-09
 NORM(A)=   0.11145406D+01
 Iteration Nr.  21
 **********************
 DD1Dir will call FoFMem   1 times, MxPair=       132
 NAB=    66 NAA=     0 NBB=     0.
 DE(Corr)= -0.70204362     E(CORR)=     -599.31916661     Delta= 1.91D-08
 NORM(A)=   0.11145406D+01
 Iteration Nr.  22
 **********************
 DD1Dir will call FoFMem   1 times, MxPair=       132
 NAB=    66 NAA=     0 NBB=     0.
 DE(Corr)= -0.70204362     E(CORR)=     -599.31916661     Delta= 3.22D-09
 NORM(A)=   0.11145405D+01
 Iteration Nr.  23
 **********************
 DD1Dir will call FoFMem   1 times, MxPair=       132
 NAB=    66 NAA=     0 NBB=     0.
 DE(Corr)= -0.70204361     E(CORR)=     -599.31916660     Delta= 4.83D-09
 NORM(A)=   0.11145405D+01
 Iteration Nr.  24
 **********************
 DD1Dir will call FoFMem   1 times, MxPair=       132
 NAB=    66 NAA=     0 NBB=     0.
 DE(Corr)= -0.70204361     E(CORR)=     -599.31916660     Delta=-1.28D-09
 NORM(A)=   0.11145405D+01
 Iteration Nr.  25
 **********************
 DD1Dir will call FoFMem   1 times, MxPair=       132
 NAB=    66 NAA=     0 NBB=     0.
 DE(Corr)= -0.70204361     E(CORR)=     -599.31916660     Delta= 5.24D-09
 NORM(A)=   0.11145405D+01
 Iteration Nr.  26
 **********************
 DD1Dir will call FoFMem   1 times, MxPair=       132
 NAB=    66 NAA=     0 NBB=     0.
 DE(Corr)= -0.70204361     E(CORR)=     -599.31916660     Delta=-5.18D-09
 NORM(A)=   0.11145405D+01
 Iteration Nr.  27
 **********************
 DD1Dir will call FoFMem   1 times, MxPair=       132
 NAB=    66 NAA=     0 NBB=     0.
 DE(Corr)= -0.70204361     E(CORR)=     -599.31916660     Delta= 2.68D-09
 NORM(A)=   0.11145405D+01
 Largest amplitude= 6.61D-02

 Z-AMPLITUDE ITERATIONS

 Iteration Nr.   1
 **********************
 DD1Dir will call FoFMem   1 times, MxPair=       132
 NAB=    66 NAA=     0 NBB=     0.
 DE(Z)  -0.68265157D+00          E(Z)=    -0.59929977456D+03
 NORM(A)=   0.11145367D+01
 Iteration Nr.   2
 **********************
 DD1Dir will call FoFMem   1 times, MxPair=       132
 NAB=    66 NAA=     0 NBB=     0.
 DE(Z)  -0.68265115D+00          E(Z)=    -0.59929977414D+03
 NORM(A)=   0.11145423D+01
 Iteration Nr.   3
 **********************
 DD1Dir will call FoFMem   1 times, MxPair=       132
 NAB=    66 NAA=     0 NBB=     0.
 DE(Z)  -0.68265174D+00          E(Z)=    -0.59929977473D+03
 NORM(A)=   0.11145412D+01
 Iteration Nr.   4
 **********************
 DD1Dir will call FoFMem   1 times, MxPair=       132
 NAB=    66 NAA=     0 NBB=     0.
 DE(Z)  -0.68265163D+00          E(Z)=    -0.59929977462D+03
 NORM(A)=   0.11145413D+01
 Iteration Nr.   5
 **********************
 DD1Dir will call FoFMem   1 times, MxPair=       132
 NAB=    66 NAA=     0 NBB=     0.
 DE(Z)  -0.68265163D+00          E(Z)=    -0.59929977462D+03
 NORM(A)=   0.11079348D+01
 Iteration Nr.   6
 **********************
 DD1Dir will call FoFMem   1 times, MxPair=       132
 NAB=    66 NAA=     0 NBB=     0.
 DE(Z)  -0.68201995D+00          E(Z)=    -0.59929914294D+03
 NORM(A)=   0.11079250D+01
 Iteration Nr.   7
 **********************
 DD1Dir will call FoFMem   1 times, MxPair=       132
 NAB=    66 NAA=     0 NBB=     0.
 DE(Z)  -0.68197822D+00          E(Z)=    -0.59929910121D+03
 NORM(A)=   0.11079124D+01
 Iteration Nr.   8
 **********************
 DD1Dir will call FoFMem   1 times, MxPair=       132
 NAB=    66 NAA=     0 NBB=     0.
 DE(Z)  -0.68199427D+00          E(Z)=    -0.59929911726D+03
 NORM(A)=   0.11078868D+01
 Iteration Nr.   9
 **********************
 DD1Dir will call FoFMem   1 times, MxPair=       132
 NAB=    66 NAA=     0 NBB=     0.
 DE(Z)  -0.68198238D+00          E(Z)=    -0.59929910537D+03
 NORM(A)=   0.11078810D+01
 Iteration Nr.  10
 **********************
 DD1Dir will call FoFMem   1 times, MxPair=       132
 NAB=    66 NAA=     0 NBB=     0.
 DE(Z)  -0.68198445D+00          E(Z)=    -0.59929910744D+03
 NORM(A)=   0.11078743D+01
 Iteration Nr.  11
 **********************
 DD1Dir will call FoFMem   1 times, MxPair=       132
 NAB=    66 NAA=     0 NBB=     0.
 DE(Z)  -0.68198320D+00          E(Z)=    -0.59929910619D+03
 NORM(A)=   0.11078712D+01
 Iteration Nr.  12
 **********************
 DD1Dir will call FoFMem   1 times, MxPair=       132
 NAB=    66 NAA=     0 NBB=     0.
 DE(Z)  -0.68198265D+00          E(Z)=    -0.59929910564D+03
 NORM(A)=   0.11078702D+01
 Iteration Nr.  13
 **********************
 DD1Dir will call FoFMem   1 times, MxPair=       132
 NAB=    66 NAA=     0 NBB=     0.
 DE(Z)  -0.68198275D+00          E(Z)=    -0.59929910574D+03
 NORM(A)=   0.11078697D+01
 Iteration Nr.  14
 **********************
 DD1Dir will call FoFMem   1 times, MxPair=       132
 NAB=    66 NAA=     0 NBB=     0.
 DE(Z)  -0.68198286D+00          E(Z)=    -0.59929910585D+03
 NORM(A)=   0.11078695D+01
 Iteration Nr.  15
 **********************
 DD1Dir will call FoFMem   1 times, MxPair=       132
 NAB=    66 NAA=     0 NBB=     0.
 DE(Z)  -0.68198268D+00          E(Z)=    -0.59929910567D+03
 NORM(A)=   0.11078696D+01
 Iteration Nr.  16
 **********************
 DD1Dir will call FoFMem   1 times, MxPair=       132
 NAB=    66 NAA=     0 NBB=     0.
 DE(Z)  -0.68198282D+00          E(Z)=    -0.59929910582D+03
 NORM(A)=   0.11078696D+01
 Iteration Nr.  17
 **********************
 DD1Dir will call FoFMem   1 times, MxPair=       132
 NAB=    66 NAA=     0 NBB=     0.
 DE(Z)  -0.68198280D+00          E(Z)=    -0.59929910579D+03
 NORM(A)=   0.11078696D+01
 Iteration Nr.  18
 **********************
 DD1Dir will call FoFMem   1 times, MxPair=       132
 NAB=    66 NAA=     0 NBB=     0.
 DE(Z)  -0.68198281D+00          E(Z)=    -0.59929910580D+03
 NORM(A)=   0.11078696D+01
 Iteration Nr.  19
 **********************
 DD1Dir will call FoFMem   1 times, MxPair=       132
 NAB=    66 NAA=     0 NBB=     0.
 DE(Z)  -0.68198281D+00          E(Z)=    -0.59929910580D+03
 NORM(A)=   0.11078696D+01
 Iteration Nr.  20
 **********************
 DD1Dir will call FoFMem   1 times, MxPair=       132
 NAB=    66 NAA=     0 NBB=     0.
 DE(Z)  -0.68198281D+00          E(Z)=    -0.59929910580D+03
 NORM(A)=   0.11078695D+01
 Iteration Nr.  21
 **********************
 DD1Dir will call FoFMem   1 times, MxPair=       132
 NAB=    66 NAA=     0 NBB=     0.
 DE(Z)  -0.68198282D+00          E(Z)=    -0.59929910581D+03
 NORM(A)=   0.11078696D+01
 Iteration Nr.  22
 **********************
 DD1Dir will call FoFMem   1 times, MxPair=       132
 NAB=    66 NAA=     0 NBB=     0.
 DE(Z)  -0.68198281D+00          E(Z)=    -0.59929910580D+03
 NORM(A)=   0.11078696D+01
 Iteration Nr.  23
 **********************
 DD1Dir will call FoFMem   1 times, MxPair=       132
 NAB=    66 NAA=     0 NBB=     0.
 DE(Z)  -0.68198281D+00          E(Z)=    -0.59929910580D+03
 NORM(A)=   0.11078696D+01
 Iteration Nr.  24
 **********************
 DD1Dir will call FoFMem   1 times, MxPair=       132
 NAB=    66 NAA=     0 NBB=     0.
 DE(Z)  -0.68198281D+00          E(Z)=    -0.59929910580D+03
 NORM(A)=   0.11078696D+01
 Iteration Nr.  25
 **********************
 DD1Dir will call FoFMem   1 times, MxPair=       132
 NAB=    66 NAA=     0 NBB=     0.
 DE(Z)  -0.68198281D+00          E(Z)=    -0.59929910580D+03
 NORM(A)=   0.11078696D+01
 Iteration Nr.  26
 **********************
 DD1Dir will call FoFMem   1 times, MxPair=       132
 NAB=    66 NAA=     0 NBB=     0.
 DE(Z)  -0.68198281D+00          E(Z)=    -0.59929910580D+03
 NORM(A)=   0.11078696D+01
 Iteration Nr.  27
 **********************
 DD1Dir will call FoFMem   1 times, MxPair=       132
 NAB=    66 NAA=     0 NBB=     0.
 DE(Z)  -0.68198281D+00          E(Z)=    -0.59929910580D+03
 NORM(A)=   0.11078696D+01
 Iteration Nr.  28
 **********************
 DD1Dir will call FoFMem   1 times, MxPair=       132
 NAB=    66 NAA=     0 NBB=     0.
 DE(Z)  -0.68198282D+00          E(Z)=    -0.59929910581D+03
 NORM(A)=   0.11078696D+01
 Iteration Nr.  29
 **********************
 DD1Dir will call FoFMem   1 times, MxPair=       132
 NAB=    66 NAA=     0 NBB=     0.
 DE(Z)  -0.68198281D+00          E(Z)=    -0.59929910580D+03
 NORM(A)=   0.11078696D+01
 Iteration Nr.  30
 **********************
 DD1Dir will call FoFMem   1 times, MxPair=       132
 NAB=    66 NAA=     0 NBB=     0.
 DE(Z)  -0.68198281D+00          E(Z)=    -0.59929910580D+03
 NORM(A)=   0.11078696D+01
 Discarding MO integrals.
          IDoAtm=111111
          Differentiating once with respect to electric field.
                with respect to dipole field.
          Differentiating once with respect to nuclear coordinates.
          Keep R1 ints in memory in canonical form, NReq=448662365.
          There are     1 degrees of freedom in the 1st order CPHF.  IDoFFX=0.
 LinEq1:  Iter=  0 NonCon=     1 RMS=3.11D-03 Max=1.20D-01
 AX will form     1 AO Fock derivatives at one time.
 LinEq1:  Iter=  1 NonCon=     1 RMS=6.94D-04 Max=9.46D-03
 LinEq1:  Iter=  2 NonCon=     1 RMS=2.29D-04 Max=5.72D-03
 LinEq1:  Iter=  3 NonCon=     1 RMS=9.49D-05 Max=1.45D-03
 LinEq1:  Iter=  4 NonCon=     1 RMS=3.84D-05 Max=4.10D-04
 LinEq1:  Iter=  5 NonCon=     1 RMS=1.06D-05 Max=2.26D-04
 LinEq1:  Iter=  6 NonCon=     1 RMS=2.42D-06 Max=4.25D-05
 LinEq1:  Iter=  7 NonCon=     1 RMS=6.06D-07 Max=9.14D-06
 LinEq1:  Iter=  8 NonCon=     1 RMS=1.49D-07 Max=1.80D-06
 LinEq1:  Iter=  9 NonCon=     1 RMS=3.03D-08 Max=7.47D-07
 LinEq1:  Iter= 10 NonCon=     1 RMS=6.54D-09 Max=8.90D-08
 LinEq1:  Iter= 11 NonCon=     1 RMS=1.05D-09 Max=1.16D-08
 LinEq1:  Iter= 12 NonCon=     1 RMS=1.68D-10 Max=2.85D-09
 LinEq1:  Iter= 13 NonCon=     0 RMS=2.40D-11 Max=3.21D-10
 Linear equations converged to 1.000D-10 1.000D-09 after    13 iterations.
 End of Minotr Frequency-dependent properties file   721 does not exist.
 End of Minotr Frequency-dependent properties file   722 does not exist.

 **********************************************************************

            Population analysis using the QCI/CC density.

 **********************************************************************

 Alpha  occ. eigenvalues -- -104.61122 -25.91814 -11.14555 -10.33587  -7.80222
 Alpha  occ. eigenvalues --   -7.80151  -7.80151  -1.17349  -0.87928  -0.75763
 Alpha  occ. eigenvalues --   -0.46214  -0.46147  -0.31798  -0.27275  -0.27275
 Alpha  occ. eigenvalues --   -0.24760  -0.24756  -0.23090
 Alpha virt. eigenvalues --    0.14808   0.15255   0.15261   0.19032   0.25047
 Alpha virt. eigenvalues --    0.25059   0.25128   0.26339   0.26340   0.27892
 Alpha virt. eigenvalues --    0.33812   0.34651   0.34653   0.36533   0.41004
 Alpha virt. eigenvalues --    0.42832   0.42839   0.46995   0.47003   0.47296
 Alpha virt. eigenvalues --    0.48435   0.49128   0.49134   0.51650   0.53742
 Alpha virt. eigenvalues --    0.53749   0.54059   0.59906   0.59931   0.62142
 Alpha virt. eigenvalues --    0.62151   0.62981   0.62982   0.63252   0.68017
 Alpha virt. eigenvalues --    0.68028   0.69171   0.82421   0.89903   0.89916
 Alpha virt. eigenvalues --    0.91306   0.92281   0.92289   0.93206   1.00728
 Alpha virt. eigenvalues --    1.01277   1.01496   1.01500   1.05437   1.05487
 Alpha virt. eigenvalues --    1.09021   1.09033   1.10137   1.12281   1.13823
 Alpha virt. eigenvalues --    1.13827   1.19667   1.19669   1.21287   1.22238
 Alpha virt. eigenvalues --    1.22246   1.26741   1.26744   1.27733   1.31943
 Alpha virt. eigenvalues --    1.31961   1.32374   1.37481   1.37489   1.37735
 Alpha virt. eigenvalues --    1.40849   1.40857   1.45025   1.45027   1.45509
 Alpha virt. eigenvalues --    1.47667   1.55380   1.55394   1.59962   1.68334
 Alpha virt. eigenvalues --    1.71639   1.73960   1.74001   1.78047   1.79417
 Alpha virt. eigenvalues --    1.79425   1.82754   1.82756   1.83171   1.92316
 Alpha virt. eigenvalues --    1.92319   1.93714   2.02599   2.02945   2.02947
 Alpha virt. eigenvalues --    2.08527   2.12216   2.12311   2.19849   2.23577
 Alpha virt. eigenvalues --    2.30547   2.30624   2.36691   2.36725   2.56770
 Alpha virt. eigenvalues --    2.78273   2.78393   2.78395   2.85267   2.85270
 Alpha virt. eigenvalues --    2.96278   2.99650   2.99663   3.19529   3.19534
 Alpha virt. eigenvalues --    3.25350   3.29191   3.29596   3.30095   3.30125
 Alpha virt. eigenvalues --    3.30527   3.33086   3.33108   3.35049   3.37432
 Alpha virt. eigenvalues --    3.38328   3.38329   3.43169   3.49514   3.50026
 Alpha virt. eigenvalues --    3.50048   3.56524   3.56584   3.61680   3.61753
 Alpha virt. eigenvalues --    3.73810   3.80650   3.82280   3.82387   3.87505
 Alpha virt. eigenvalues --    3.90332   3.90357   3.95010   3.95118   4.10628
 Alpha virt. eigenvalues --    4.18990   4.19151   4.23365   4.23402   4.26378
 Alpha virt. eigenvalues --    4.45294   4.47682   4.47734   4.59887   4.68365
 Alpha virt. eigenvalues --    4.68427   4.97117   5.00300   5.03080   5.03148
 Alpha virt. eigenvalues --    5.13068   5.15044   5.15117   5.36673   5.48752
 Alpha virt. eigenvalues --    5.48941   5.60698   5.60908   5.75717   5.75732
 Alpha virt. eigenvalues --    5.93965   5.94085   5.96353   6.17572   6.64538
 Alpha virt. eigenvalues --    6.66941   6.73802   6.73978   7.36669   9.21105
 Alpha virt. eigenvalues --    9.21880   9.29366   9.29377   9.49846   9.49891
 Alpha virt. eigenvalues --    9.57453   9.72840   9.72843   9.83365   9.83365
 Alpha virt. eigenvalues --    9.89826  13.55348  18.09889
          Condensed to atoms (all electrons):
              1          2          3          4          5          6
     1  C    7.012200  -0.009265  -0.008685  -0.009852  -0.050907  -0.099835
     2  H   -0.009265   0.547071   0.020080   0.020067  -0.018741   0.004333
     3  H   -0.008685   0.020080   0.547089   0.020075  -0.018738   0.004253
     4  H   -0.009852   0.020067   0.020075   0.547059  -0.018740   0.004422
     5  Cl  -0.050907  -0.018741  -0.018738  -0.018740  17.709254   0.026400
     6  F   -0.099835   0.004333   0.004253   0.004422   0.026400   9.907594
 Mulliken atomic charges:
              1
     1  C   -0.833657
     2  H    0.436454
     3  H    0.435927
     4  H    0.436970
     5  Cl  -0.628528
     6  F   -0.847167
 Sum of Mulliken atomic charges =  -1.00000
 Mulliken charges with hydrogens summed into heavy atoms:
              1
     1  C    0.475695
     5  Cl  -0.628528
     6  F   -0.847167
 Sum of Mulliken charges with hydrogens summed into heavy atoms =  -1.00000
 Electronic spatial extent (au):  <R**2>=            490.3145
 Charge=             -1.0000 electrons
 Dipole moment (field-independent basis, Debye):
    X=              0.0000    Y=              0.0007    Z=              4.0662  Tot=              4.0662
 Quadrupole moment (field-independent basis, Debye-Ang):
   XX=            -28.1814   YY=            -28.1814   ZZ=            -62.8203
   XY=              0.0016   XZ=             -0.0063   YZ=             -0.0145
 Traceless Quadrupole moment (field-independent basis, Debye-Ang):
   XX=             11.5463   YY=             11.5463   ZZ=            -23.0926
   XY=              0.0016   XZ=             -0.0063   YZ=             -0.0145
 Octapole moment (field-independent basis, Debye-Ang**2):
  XXX=             -0.0378  YYY=             -0.9747  ZZZ=             49.6881  XYY=             -0.0131
  XXY=              0.9406  XXZ=             -4.2363  XZZ=             -0.0152  YZZ=              0.0111
  YYZ=             -4.2355  XYZ=             -0.0009
 Hexadecapole moment (field-independent basis, Debye-Ang**3):
 XXXX=            -41.2684 YYYY=            -41.2683 ZZZZ=           -761.6418 XXXY=              0.0029
 XXXZ=             -0.0462 YYYX=              0.0044 YYYZ=              0.5143 ZZZX=             -0.0660
 ZZZY=             -0.1889 XXYY=            -13.7562 XXZZ=           -103.3853 YYZZ=           -103.3864
 XXYZ=             -0.6773 YYXZ=             -0.0151 ZZXY=              0.0017
 N-N= 8.498427849017D+01 E-N=-1.604180566456D+03  KE= 5.991954563173D+02
 Use density number 7.
 DipInt: DoE/N= T T RetVal/Mat= T F Init=T NMatP=  1 IDeriv=0 Min/MaxMlt=  1  1
 Entering OneElI...
 Multipole integrals L=1 to 1 MinM= 0 MaxM= 0.
 Requested accuracy = 0.1000D-12
 PrsmSu:  NPrtUS=   1 ThrOK=F IAlg=1 NPAlg=1 LenDen=           0.
 Prism:   IPart=     0 DynPar=F LinDyn=F Incr=          25.
 PRISM was handed  1073374413 working-precision words and  2517 shell-pairs
 IPart=  0 NShTot=        2517 NBatch=          69 AvBLen=        36.5
 PrSmSu:  NxtVal=             26.
 Entering OneElI...
 Calculate overlap and kinetic energy integrals
    NBasis = 244  MinDer = 1  MaxDer = 1
 Requested accuracy = 0.1000D-12
 PrsmSu:  NPrtUS=   8 ThrOK=T IAlg=1 NPAlg=1 LenDen=           0.
 Prism:   IPart=     0 DynPar=F LinDyn=F Incr=           3.
 PRISM was handed   134104310 working-precision words and  2542 shell-pairs
 PRISM was handed   134104310 working-precision words and  2542 shell-pairs
 PRISM was handed   134104310 working-precision words and  2542 shell-pairs
 PRISM was handed   134104310 working-precision words and  2542 shell-pairs
 PRISM was handed   134104310 working-precision words and  2542 shell-pairs
 PRISM was handed   134104310 working-precision words and  2542 shell-pairs
 PRISM was handed   134104310 working-precision words and  2542 shell-pairs
 PRISM was handed   134104310 working-precision words and  2542 shell-pairs
 IPart=  0 NShTot=         360 NBatch=          74 AvBLen=         4.9
 IPart=  6 NShTot=         291 NBatch=          38 AvBLen=         7.7
 IPart=  5 NShTot=         299 NBatch=          38 AvBLen=         7.9
 IPart=  3 NShTot=         321 NBatch=          44 AvBLen=         7.3
 IPart=  4 NShTot=         312 NBatch=          42 AvBLen=         7.4
 IPart=  1 NShTot=         344 NBatch=          58 AvBLen=         5.9
 IPart=  2 NShTot=         327 NBatch=          47 AvBLen=         7.0
 IPart=  7 NShTot=         288 NBatch=          37 AvBLen=         7.8
 PrSmSu:  NxtVal=             25.
 Entering OneElI...
 Calculate potential energy integrals
    NBasis = 244  MinDer = 1  MaxDer = 1
 Requested accuracy = 0.1000D-12
 PrsmSu:  NPrtUS=   8 ThrOK=T IAlg=1 NPAlg=1 LenDen=           0.
 Prism:   IPart=     0 DynPar=F LinDyn=F Incr=          18.
 PRISM was handed   134117609 working-precision words and  2501 shell-pairs
 PRISM was handed   134117609 working-precision words and  2501 shell-pairs
 PRISM was handed   134117609 working-precision words and  2501 shell-pairs
 PRISM was handed   134117609 working-precision words and  2501 shell-pairs
 PRISM was handed   134117609 working-precision words and  2501 shell-pairs
 PRISM was handed   134117609 working-precision words and  2501 shell-pairs
 PRISM was handed   134117609 working-precision words and  2501 shell-pairs
 PRISM was handed   134117609 working-precision words and  2501 shell-pairs
 IPart=  6 NShTot=        1752 NBatch=         292 AvBLen=         6.0
 IPart=  3 NShTot=        1878 NBatch=         313 AvBLen=         6.0
 IPart=  1 NShTot=        2028 NBatch=         338 AvBLen=         6.0
 IPart=  5 NShTot=        1770 NBatch=         295 AvBLen=         6.0
 IPart=  4 NShTot=        1812 NBatch=         302 AvBLen=         6.0
 IPart=  2 NShTot=        1938 NBatch=         323 AvBLen=         6.0
 IPart=  0 NShTot=        2124 NBatch=         354 AvBLen=         6.0
 IPart=  7 NShTot=        1704 NBatch=         284 AvBLen=         6.0
 PrSmSu:  NxtVal=            145.
 l701 out
 I=    0 X=  -2.203302080686D-06 Y=   2.831626044051D-04 Z=   1.599753792663D+00
 I=    1 X=   5.663094968653D-03 Y=  -8.779743745549D-04 Z=  -2.099058556599D+00
 I=    2 X=  -4.930791018871D-03 Y=  -5.625949467730D+00 Z=  -5.652155039890D-01
 I=    3 X=  -4.869567422009D+00 Y=   2.809604219885D+00 Z=  -5.685207189408D-01
 I=    4 X=   4.874482952390D+00 Y=   2.815656540127D+00 Z=  -5.691454705958D-01
 I=    5 X=  -2.179270565911D-03 Y=   4.709129960415D-03 Z=   1.075117268896D+01
 I=    6 X=  -3.468563765298D-03 Y=  -3.142447868088D-03 Z=  -6.949232438839D+00
 ICntrl=      2127.
 Calling FoFJK, ICntrl=      2127 FMM=F ISym2X=0 I1Cent= 0 IOpClX= 0 NMat=1 NMatS=1 NMatT=0.
 FoFJK:  IHMeth= 1 ICntrl=  2127 DoSepK=F KAlg= 1 I1Cent= 0 FoldK=F
 FoFCou: FMM=F IPFlag=           0 FMFlag=      100000 FMFlg1=         800
         NFxFlg=           0 DoJE=F BraDBF=F KetDBF=F FulRan=T
         Omega=  0.000000  0.000000  1.000000  0.000000  0.000000 ICntrl=    2127 IOpCl=  0
         NMat0=    1 NMatS0=    1 NMatT0=    0 NMatD0=    1 NMtDS0=    0 NMtDT0=    0
         I1Cent=           0 NGrid=           0.
 Symmetry not used in FoFCou.
 FoFCou:  KetSym=F NOpSet=  1 NOpAb=1 NOp=  1.
 FoFCou:  CnvScl= 1.00D+00 Thresh= 1.00D-10
 PrismS was handed  1073462700 working-precision words and  2514 shell-pairs
 FoFCou: LinMIO=F DoNuc=F BraDBF=F KetDBF=F HaveP=T PDBF=F HaveZ=T HaveW=F
         NIJTC =      10 NIJTAt=       0 NIJTCD=       0 NIJTT =      10
         IJTBeg=       1 IJTEnd=      10 KLTBeg=       1 KLTEnd=      10
         IPTBeg=       1 IPTEnd=      10 IPTBCv=       1 IPTECv=      10
         IZTBeg=       1 IZTEnd=      10 IZTBCv=       1 IZTECv=      10
         IWTBeg=      11 IWTEnd=      10 IWTBCv=      11 IWTECv=      10
         INTBeg=       1 INTEnd=       0 IFTBCv=       1 IFTECv=      10
 NCel replicated for PrismC:     1
 CoulSu:  IncDef=  1024 NBBP=        3161355 NTPThr=   100 NPartT=    8 Incr=        1024 LDynOK=F.
 CoulSu:  NPrtUS=   8 ThrOK=T IAlg=1 NPAlg=1 LenDen=           0.
 Enter PrismC: JobTyp=21 DoJE=F Cont=F.
 PrismC:  IPart=     0 DynPar=T LinDyn=F Incr=        1024 UseFst=F UseS4=T.
 PrismC was handed   134126875 working-precision words and  2514 shell-pairs
 Enter PrismC: JobTyp=21 DoJE=F Cont=F.
 PrismC was handed   134126875 working-precision words and  2514 shell-pairs
 Enter PrismC: JobTyp=21 DoJE=F Cont=F.
 Enter PrismC: JobTyp=21 DoJE=F Cont=F.
 Enter PrismC: JobTyp=21 DoJE=F Cont=F.
 PrismC was handed   134126875 working-precision words and  2514 shell-pairs
 PrismC was handed   134126875 working-precision words and  2514 shell-pairs
 Enter PrismC: JobTyp=21 DoJE=F Cont=F.
 PrismC was handed   134126875 working-precision words and  2514 shell-pairs
 PrismC was handed   134126875 working-precision words and  2514 shell-pairs
 Enter PrismC: JobTyp=21 DoJE=F Cont=F.
 Enter PrismC: JobTyp=21 DoJE=F Cont=F.
 PrismC was handed   134126875 working-precision words and  2514 shell-pairs
 PrismC was handed   134126875 working-precision words and  2514 shell-pairs
 IPart=  5 NShTot=      481650 NShNF=      481650 NShFF=           0 NBatch=        1141 AvBLen=       422.1
 IPart=  7 NShTot=      503761 NShNF=      503761 NShFF=           0 NBatch=        1135 AvBLen=       443.8
 IPart=  6 NShTot=      287170 NShNF=      287170 NShFF=           0 NBatch=         813 AvBLen=       353.2
 IPart=  3 NShTot=      461628 NShNF=      461628 NShFF=           0 NBatch=        1163 AvBLen=       396.9
 IPart=  0 NShTot=      315493 NShNF=      315493 NShFF=           0 NBatch=         769 AvBLen=       410.3
 IPart=  4 NShTot=      308876 NShNF=      308876 NShFF=           0 NBatch=         797 AvBLen=       387.5
 IPart=  1 NShTot=      285803 NShNF=      285803 NShFF=           0 NBatch=         801 AvBLen=       356.8
 IPart=  2 NShTot=      312111 NShNF=      312111 NShFF=           0 NBatch=         852 AvBLen=       366.3
 CoulSu:  NxtVal=        3363841.
 Forces at end of L703
 I=    0 X=  -2.203302080686D-06 Y=   2.831626044051D-04 Z=   1.599753792663D+00
 I=    1 X=   1.366489219609D-03 Y=   3.823225709857D-07 Z=  -7.107057979700D-03
 I=    2 X=  -9.982817602519D-05 Y=   8.341952682696D-03 Z=   1.397192197112D-03
 I=    3 X=   6.627358265672D-03 Y=  -3.885363356833D-03 Z=   1.334315295901D-03
 I=    4 X=  -7.824551255935D-03 Y=  -4.457558381366D-03 Z=   1.473546416341D-03
 I=    5 X=  -4.354272335040D-05 Y=   2.888335796634D-06 Z=   6.805267301930D-03
 I=    6 X=  -2.592532998787D-05 Y=  -2.301602870259D-06 Z=  -3.903263231776D-03
 FrcOut:
 IF    =    71 IFX   =    89 IFXYZ =   107
 IFFX  =   125 IFFFX =   125 IFLen =    18
 IFFLen=     0 IFFFLn=     0 IEDerv=   125
 LEDerv=   917 IFroze=  1046 ICStrt= 90585
 DipInt: DoE/N= T T RetVal/Mat= T F Init=T NMatP=  1 IDeriv=0 Min/MaxMlt=  1  1
 Entering OneElI...
 Multipole integrals L=1 to 1 MinM= 0 MaxM= 0.
 Requested accuracy = 0.1000D-12
 PrsmSu:  NPrtUS=   1 ThrOK=F IAlg=1 NPAlg=1 LenDen=           0.
 Prism:   IPart=     0 DynPar=F LinDyn=F Incr=          25.
 PRISM was handed  1073433310 working-precision words and  2517 shell-pairs
 IPart=  0 NShTot=        2517 NBatch=          69 AvBLen=        36.5
 PrSmSu:  NxtVal=             26.
 Computed dipole moment (without fudge factor):
 X=-0.2203302080686D-05   Y= 0.2831626044051D-03   Z= 0.1599753792663D+01
 Quadrupole    = 8.58440222D+00 8.58439924D+00-1.71688015D+01
                 1.15629192D-03-4.71284893D-03-1.07482728D-02
 -------------------------------------------------------------------
 Center     Atomic                   Forces (Hartrees/Bohr)
 Number     Number              X              Y              Z
 -------------------------------------------------------------------
      1        6          -0.001366489   -0.000000382    0.007107058
      2        1           0.000099828   -0.008341953   -0.001397192
      3        1          -0.006627358    0.003885363   -0.001334315
      4        1           0.007824551    0.004457558   -0.001473546
      5       17           0.000043543   -0.000002888   -0.006805267
      6        9           0.000025925    0.000002302    0.003903263
 -------------------------------------------------------------------
 Cartesian Forces:  Max     0.008341953 RMS     0.004278763
 Final forces over variables, Energy=-5.99319167D+02:
  1.07568150D-07-1.31708943D-06-7.22368026D-03 7.22557823D-03
 -1.21703443D-06 5.28586395D-07 2.02900900D-06-8.34236233D-03
  4.17099126D-03 4.16993115D-03-2.89508250D-06 2.30599858D-06
  7.10635621D-03-1.39720798D-03-1.40235635D-03-1.40480862D-03
 -6.80525343D-03 3.90327017D-03
 NDeriv=  18 NFrqRd=  0 LFDDif=       1
 NDeriv=  18 NFrqRd=  0 LFDDif=       1
 Re-enter D2Numr: IAtom=  1 IXYZ=1 IStep= 1.
 Standard basis: Aug-CC-pVTZ (5D, 7F)
 Integral buffers will be    131072 words long.
 Raffenetti 1 integral format.
 Two-electron integral symmetry is turned off.
   211 basis functions,   339 primitive gaussians,   244 cartesian basis functions
    18 alpha electrons       18 beta electrons
       nuclear repulsion energy        84.9842768943 Hartrees.
 NAtoms=    6 NActive=    6 NUniq=    6 SFac= 1.00D+00 NAtFMM=   50 NAOKFM=F Big=F
 One-electron integrals computed using PRISM.
 NBasis=   211 RedAO= T  NBF=   211
 NBsUse=   211 1.00D-06 NBFU=   211
 Initial guess read from the read-write file.
 B after Tr=     0.000000    0.000000    0.000000
         Rot=    1.000000    0.000000    0.000000    0.000000 Ang=   0.00 deg.
 Requested convergence on RMS density matrix=1.00D-08 within 300 cycles.
 Requested convergence on MAX density matrix=1.00D-06.
 Requested convergence on             energy=1.00D-06.
 No special actions if energy rises.
 Keep R1 ints in memory in canonical form, NReq=454348607.
 SCF Done:  E(RHF) =  -598.617122995     A.U. after    7 cycles
             Convg  =    0.3039D-08             -V/T =  2.0001
 ExpMin= 2.53D-02 ExpMax= 4.56D+05 ExpMxC= 1.44D+03 IAcc=3 IRadAn=         5 AccDes= 0.00D+00
 HarFok:  IExCor=  205 AccDes= 0.00D+00 IRadAn=         5 IDoV=-2
 ScaDFX=  1.000000  1.000000  1.000000  1.000000
 Range of M.O.s used for correlation:     8   211
 NBasis=   211 NAE=    18 NBE=    18 NFC=     7 NFV=     0
 NROrb=    204 NOA=    11 NOB=    11 NVA=   193 NVB=   193

 **** Warning!!: The largest alpha MO coefficient is  0.35239813D+02

 Semi-Direct transformation.
 ModeAB=           2 MOrb=            11 LenV=    1072528222
 LASXX=     44979418 LTotXX=    44979418 LenRXX=    44979418
 LTotAB=    45631872 MaxLAS=    67073160 LenRXY=    67073160
 NonZer=    89958836 LenScr=   135708672 LnRSAI=           0
 LnScr1=           0 LExtra=           0 Total=    247761250
 MaxDsk=          -1 SrtSym=           F ITran=            4
 JobTyp=0 Pass  1:  I=   1 to  11.
 (rs|ai) integrals will be sorted in core.
 Spin components of T(2) and E(2):
     alpha-alpha T2 =       0.2567355486D-01 E2=     -0.8208214800D-01
     alpha-beta  T2 =       0.1452558000D+00 E2=     -0.5099785195D+00
     beta-beta   T2 =       0.2567355486D-01 E2=     -0.8208214800D-01
 ANorm=    0.1093893464D+01
 E2 =    -0.6741428155D+00 EUMP2 =    -0.59929126581020D+03
 R2 and R3 integrals will be kept in memory, NReq=   900794930.
 Iterations=  50 Convergence= 0.100D-07
 Iteration Nr.   1
 **********************
 DD1Dir will call FoFMem   1 times, MxPair=       132
 NAB=    66 NAA=     0 NBB=     0.
 MP4(R+Q)=  0.14438876D-01
 E3=       -0.18701004D-01        EUMP3=      -0.59930996681D+03
 E4(DQ)=   -0.45152055D-03        UMP4(DQ)=   -0.59931041833D+03
 E4(SDQ)=  -0.98176985D-02        UMP4(SDQ)=  -0.59931978451D+03
 DE(Corr)= -0.67840494     E(Corr)=     -599.29552794    
 NORM(A)=   0.10996848D+01
 Iteration Nr.   2
 **********************
 DD1Dir will call FoFMem   1 times, MxPair=       132
 NAB=    66 NAA=     0 NBB=     0.
 DE(Corr)= -0.70060472     E(CORR)=     -599.31772772     Delta=-2.22D-02
 NORM(A)=   0.11070391D+01
 Iteration Nr.   3
 **********************
 DD1Dir will call FoFMem   1 times, MxPair=       132
 NAB=    66 NAA=     0 NBB=     0.
 DE(Corr)= -0.69820780     E(CORR)=     -599.31533079     Delta= 2.40D-03
 NORM(A)=   0.11110242D+01
 Iteration Nr.   4
 **********************
 DD1Dir will call FoFMem   1 times, MxPair=       132
 NAB=    66 NAA=     0 NBB=     0.
 DE(Corr)= -0.70126687     E(CORR)=     -599.31838986     Delta=-3.06D-03
 NORM(A)=   0.11131279D+01
 Iteration Nr.   5
 **********************
 DD1Dir will call FoFMem   1 times, MxPair=       132
 NAB=    66 NAA=     0 NBB=     0.
 DE(Corr)= -0.70186183     E(CORR)=     -599.31898483     Delta=-5.95D-04
 NORM(A)=   0.11141590D+01
 Iteration Nr.   6
 **********************
 DD1Dir will call FoFMem   1 times, MxPair=       132
 NAB=    66 NAA=     0 NBB=     0.
 DE(Corr)= -0.70200862     E(CORR)=     -599.31913161     Delta=-1.47D-04
 NORM(A)=   0.11144848D+01
 Iteration Nr.   7
 **********************
 DD1Dir will call FoFMem   1 times, MxPair=       132
 NAB=    66 NAA=     0 NBB=     0.
 DE(Corr)= -0.70203834     E(CORR)=     -599.31916133     Delta=-2.97D-05
 NORM(A)=   0.11145159D+01
 Iteration Nr.   8
 **********************
 DD1Dir will call FoFMem   1 times, MxPair=       132
 NAB=    66 NAA=     0 NBB=     0.
 DE(Corr)= -0.70205222     E(CORR)=     -599.31917521     Delta=-1.39D-05
 NORM(A)=   0.11145337D+01
 Iteration Nr.   9
 **********************
 DD1Dir will call FoFMem   1 times, MxPair=       132
 NAB=    66 NAA=     0 NBB=     0.
 DE(Corr)= -0.70202900     E(CORR)=     -599.31915199     Delta= 2.32D-05
 NORM(A)=   0.11145369D+01
 Iteration Nr.  10
 **********************
 DD1Dir will call FoFMem   1 times, MxPair=       132
 NAB=    66 NAA=     0 NBB=     0.
 DE(Corr)= -0.70204830     E(CORR)=     -599.31917129     Delta=-1.93D-05
 NORM(A)=   0.11145371D+01
 Iteration Nr.  11
 **********************
 DD1Dir will call FoFMem   1 times, MxPair=       132
 NAB=    66 NAA=     0 NBB=     0.
 DE(Corr)= -0.70203911     E(CORR)=     -599.31916210     Delta= 9.19D-06
[...]
     6   9     0.00   0.00  -0.03     0.00   0.00   0.00     0.00   0.00   0.00
                    10                     11                     12
                     A                      A                      A
 Frequencies --  3309.2268              3500.0046              3500.0267
 Red. masses --     1.0101                 1.1221                 1.1221
 Frc consts  --     6.5175                 8.0990                 8.0991
 IR Inten    --     0.0064                 0.1744                 0.1693
  Atom  AN      X      Y      Z        X      Y      Z        X      Y      Z
     1   6     0.00   0.00  -0.01     0.03  -0.10   0.00    -0.10  -0.03   0.00
     2   1     0.00   0.57   0.06     0.00   0.77   0.09    -0.01   0.23   0.03
     3   1     0.50  -0.29   0.06    -0.51   0.29  -0.07     0.47  -0.28   0.06
     4   1    -0.50  -0.29   0.06     0.17   0.08  -0.02     0.68   0.40  -0.09
     5  17     0.00   0.00   0.00     0.00   0.00   0.00     0.00   0.00   0.00
     6   9     0.00   0.00   0.00     0.00   0.00   0.00     0.00   0.00   0.00

 -------------------
 - Thermochemistry -
 -------------------
 Temperature   298.150 Kelvin.  Pressure   1.00000 Atm.
 Atom     1 has atomic number  6 and mass  12.00000
 Atom     2 has atomic number  1 and mass   1.00783
 Atom     3 has atomic number  1 and mass   1.00783
 Atom     4 has atomic number  1 and mass   1.00783
 Atom     5 has atomic number 17 and mass  34.96885
 Atom     6 has atomic number  9 and mass  18.99840
 Molecular mass:    68.99073 amu.
 Principal axes and moments of inertia in atomic units:
                           1         2         3
     Eigenvalues --    11.96151 814.88376 814.88377
           X            0.00018  -0.57058   0.82124
           Y            0.00044   0.82124   0.57058
           Z            1.00000  -0.00026  -0.00040
 This molecule is an asymmetric top.
 Rotational symmetry number  1.
 Rotational temperatures (Kelvin)      7.24104     0.10629     0.10629
 Rotational constants (GHZ):         150.87907     2.21472     2.21472
    1 imaginary frequencies ignored.
 Zero-point vibrational energy     100623.1 (Joules/Mol)
                                   24.04950 (Kcal/Mol)
 Warning -- explicit consideration of   3 degrees of freedom as
           vibrations may cause significant error
 Vibrational temperatures:    340.35   340.35   385.37  1316.20  1316.21
          (Kelvin)           1598.79  2037.17  2037.18  4761.23  5035.72
                             5035.75
 
 Zero-point correction=                           0.038325 (Hartree/Particle)
 Thermal correction to Energy=                    0.042771
 Thermal correction to Enthalpy=                  0.043715
 Thermal correction to Gibbs Free Energy=         0.011490
 Sum of electronic and zero-point Energies=           -599.280843
 Sum of electronic and thermal Energies=              -599.276397
 Sum of electronic and thermal Enthalpies=            -599.275453
 Sum of electronic and thermal Free Energies=         -599.307678
 
                     E (Thermal)             CV                S
                      KCal/Mol        Cal/Mol-Kelvin    Cal/Mol-Kelvin
 Total                   26.839             12.695             67.824
 Electronic               0.000              0.000              0.000
 Translational            0.889              2.981             38.612
 Rotational               0.889              2.981             23.589
 Vibrational             25.062              6.733              5.624
 Vibration     1          0.655              1.785              1.829
 Vibration     2          0.655              1.785              1.829
 Vibration     3          0.673              1.732              1.610
                       Q            Log10(Q)             Ln(Q)
 Total Bot       0.519008D-05         -5.284826        -12.168762
 Total V=0       0.220575D+13         12.343557         28.422090
 Vib (Bot)       0.722267D-17        -17.141302        -39.469307
 Vib (Bot)    1  0.830206D+00         -0.080814         -0.186081
 Vib (Bot)    2  0.830184D+00         -0.080826         -0.186108
 Vib (Bot)    3  0.722322D+00         -0.141269         -0.325285
 Vib (V=0)       0.306959D+01          0.487080          1.121544
 Vib (V=0)    1  0.146915D+01          0.167065          0.384681
 Vib (V=0)    2  0.146913D+01          0.167059          0.384668
 Vib (V=0)    3  0.137849D+01          0.139404          0.320990
 Electronic      0.100000D+01          0.000000          0.000000
 Translational   0.225238D+08          7.352641         16.930082
 Rotational      0.319033D+05          4.503835         10.370463
 -------------------------------------------------------------------
 Center     Atomic                   Forces (Hartrees/Bohr)
 Number     Number              X              Y              Z
 -------------------------------------------------------------------
      1        6           0.000000108    0.000002029    0.007106356
      2        1          -0.000001317   -0.008342362   -0.001397208
      3        1          -0.007223680    0.004170991   -0.001402356
      4        1           0.007225578    0.004169931   -0.001404809
      5       17          -0.000001217   -0.000002895   -0.006805253
      6        9           0.000000529    0.000002306    0.003903270
 -------------------------------------------------------------------
 Cartesian Forces:  Max     0.008342362 RMS     0.004260351
 Z-matrix is all fixed cartesians, so copy forces.
 Force constants in Cartesian coordinates: 
                1             2             3             4             5 
      1  0.723169D+00
      2  0.253219D-05  0.723168D+00
      3 -0.136997D-03 -0.338597D-03 -0.636950D-01
      4 -0.535272D-01 -0.519953D-04  0.242980D-05  0.439307D-01
      5 -0.512819D-04 -0.403875D+00 -0.409718D-01  0.536320D-04  0.411713D+00
      6  0.206555D-05 -0.415515D-01 -0.107901D-01  0.460590D-05  0.410646D-01
      7 -0.316240D+00  0.151705D+00 -0.356586D-01  0.509402D-02 -0.352561D-02
      8  0.151706D+00 -0.141129D+00  0.206238D-01  0.248452D-01 -0.722293D-02
      9 -0.361400D-01  0.208945D-01 -0.108319D-01  0.346503D-02 -0.188450D-02
     10 -0.316296D+00 -0.151656D+00  0.357735D-01  0.508830D-02  0.352190D-02
     11 -0.151657D+00 -0.141052D+00  0.206692D-01 -0.248465D-01 -0.721734D-02
     12  0.362544D-01  0.209397D-01 -0.108571D-01 -0.346623D-02 -0.188502D-02
     13 -0.236828D-01  0.000000D+00  0.117808D-04 -0.300959D-04  0.161497D-05
     14  0.000000D+00 -0.236830D-01  0.310292D-04 -0.167536D-05  0.430373D-02
     15  0.104508D-04  0.285242D-04  0.465362D-01 -0.332769D-05  0.375600D-02
     16 -0.134456D-01  0.000000D+00  0.123130D-04 -0.554316D-03  0.000000D+00
     17  0.000000D+00 -0.134457D-01  0.294576D-04  0.126008D-05  0.230545D-02
     18  0.101639D-04  0.273640D-04  0.496212D-01 -0.251963D-05 -0.111044D-03
                6             7             8             9            10 
      6  0.409619D-01
      7  0.108314D-03  0.319712D+00
      8  0.394858D-02 -0.159256D+00  0.135888D+00
      9  0.391575D-02  0.357131D-01 -0.206232D-01  0.410028D-01
     10 -0.107601D-03 -0.133729D-01 -0.141816D-01  0.337618D-02  0.319771D+00
     11  0.395744D-02  0.141873D-01  0.112481D-01 -0.207739D-02  0.159204D+00
     12  0.391684D-02 -0.337063D-02 -0.207148D-02  0.391901D-02 -0.358180D-01
     13 -0.549115D-05  0.322127D-02 -0.188445D-02 -0.108229D-01  0.322426D-02
     14 -0.125054D-01 -0.187625D-02  0.105610D-02  0.623845D-02  0.187794D-02
     15 -0.224835D-01  0.326803D-02 -0.190342D-02 -0.224887D-01 -0.327831D-02
     16 -0.192567D-05  0.159124D-02 -0.123767D-02  0.439496D-02  0.159015D-02
     17  0.507026D-02 -0.123928D-02  0.160351D-03 -0.254651D-02  0.123801D-02
     18 -0.155207D-01 -0.878226D-04  0.416388D-04 -0.155169D-01  0.817427D-04
               11            12            13            14            15 
     11  0.135807D+00
     12 -0.206710D-01  0.410274D-01
     13  0.188284D-02  0.108155D-01  0.142216D-01
     14  0.105515D-02  0.623501D-02  0.000000D+00  0.142216D-01
     15 -0.190332D-02 -0.224904D-01  0.703171D-05  0.159804D-04  0.513799D-01
     16  0.123722D-02 -0.440158D-02  0.305144D-02  0.000000D+00 -0.687378D-05
     17  0.159717D-03 -0.254587D-02  0.000000D+00  0.305145D-02 -0.153116D-04
     18  0.410562D-04 -0.155156D-01 -0.592245D-05 -0.150999D-04 -0.304485D-01
               16            17            18 
     16  0.777276D-02
     17  0.000000D+00  0.777290D-02
     18  0.310285D-05  0.797634D-05  0.273920D-01
 Final forces over variables, Energy=-5.99319168D+02:
  1.07568150D-07-1.31708943D-06-7.22368026D-03 7.22557823D-03
 -1.21703443D-06 5.28586395D-07 2.02900900D-06-8.34236233D-03
  4.17099126D-03 4.16993115D-03-2.89508250D-06 2.30599858D-06
  7.10635621D-03-1.39720798D-03-1.40235635D-03-1.40480862D-03
 -6.80525343D-03 3.90327017D-03

 GradGradGradGradGradGradGradGradGradGradGradGradGradGradGradGradGradGrad
 Berny optimization.
 Search for a local minimum.
 Step number   1 out of a maximum of    2
 All quantities printed in internal units (Hartrees-Bohrs-Radians)
 Second derivative matrix not updated -- analytic derivatives used.
 The second derivative matrix:
                          X1        Y1        Z1        X2        Y2
           X1           0.72317
           Y1           0.00000   0.72317
           Z1          -0.00014  -0.00034  -0.06369
           X2          -0.05353  -0.00005   0.00000   0.04393
           Y2          -0.00005  -0.40387  -0.04097   0.00005   0.41171
           Z2           0.00000  -0.04155  -0.01079   0.00000   0.04106
           X3          -0.31624   0.15171  -0.03566   0.00509  -0.00353
           Y3           0.15171  -0.14113   0.02062   0.02485  -0.00722
           Z3          -0.03614   0.02089  -0.01083   0.00347  -0.00188
           X4          -0.31630  -0.15166   0.03577   0.00509   0.00352
           Y4          -0.15166  -0.14105   0.02067  -0.02485  -0.00722
           Z4           0.03625   0.02094  -0.01086  -0.00347  -0.00189
           X5          -0.02368   0.00000   0.00001  -0.00003   0.00000
           Y5           0.00000  -0.02368   0.00003   0.00000   0.00430
           Z5           0.00001   0.00003   0.04654   0.00000   0.00376
           X6          -0.01345   0.00000   0.00001  -0.00055   0.00000
           Y6           0.00000  -0.01345   0.00003   0.00000   0.00231
           Z6           0.00001   0.00003   0.04962   0.00000  -0.00011
                          Z2        X3        Y3        Z3        X4
           Z2           0.04096
           X3           0.00011   0.31971
           Y3           0.00395  -0.15926   0.13589
           Z3           0.00392   0.03571  -0.02062   0.04100
           X4          -0.00011  -0.01337  -0.01418   0.00338   0.31977
           Y4           0.00396   0.01419   0.01125  -0.00208   0.15920
           Z4           0.00392  -0.00337  -0.00207   0.00392  -0.03582
           X5          -0.00001   0.00322  -0.00188  -0.01082   0.00322
           Y5          -0.01251  -0.00188   0.00106   0.00624   0.00188
           Z5          -0.02248   0.00327  -0.00190  -0.02249  -0.00328
           X6           0.00000   0.00159  -0.00124   0.00439   0.00159
           Y6           0.00507  -0.00124   0.00016  -0.00255   0.00124
           Z6          -0.01552  -0.00009   0.00004  -0.01552   0.00008
                          Y4        Z4        X5        Y5        Z5
           Y4           0.13581
           Z4          -0.02067   0.04103
           X5           0.00188   0.01082   0.01422
           Y5           0.00106   0.00624   0.00000   0.01422
           Z5          -0.00190  -0.02249   0.00001   0.00002   0.05138
           X6           0.00124  -0.00440   0.00305   0.00000  -0.00001
           Y6           0.00016  -0.00255   0.00000   0.00305  -0.00002
           Z6           0.00004  -0.01552  -0.00001  -0.00002  -0.03045
                          X6        Y6        Z6
           X6           0.00777
           Y6           0.00000   0.00777
           Z6           0.00000   0.00001   0.02739
 ITU=  0
     Eigenvalues ---   -0.11209   0.01282   0.01282   0.03874   0.03874
     Eigenvalues ---    0.06264   0.07646   0.10796   0.10796   0.42668
     Eigenvalues ---    1.05242   1.05243
 Eigenvalue     1 is  -1.12D-01 should be greater than     0.000000 Eigenvector:
                          Z1        Z6        Z5        Y2        X4
   1                    0.89164  -0.33639  -0.27431   0.07279  -0.06313
                          X3        Y3        Y4        Z2        Z3
   1                    0.06311  -0.03651  -0.03650  -0.01466  -0.01462
 Angle between quadratic step and forces=  44.35 degrees.
 Linear search not attempted -- first point.
 TrRot= -0.000003  0.000009 -0.003124  0.000000  0.000000  0.000000
 Variable       Old X    -DE/DX   Delta X   Delta X   Delta X     New X
                                 (Linear)    (Quad)   (Total)
    X1        0.00033   0.00000   0.00000   0.00002   0.00001   0.00034
    Y1        0.00005   0.00000   0.00000   0.00000   0.00001   0.00007
    Z1       -0.94053   0.00711   0.00000   0.05782   0.05470  -0.88584
    X2        0.00004   0.00000   0.00000   0.00000   0.00000   0.00003
    Y2       -1.98907  -0.00834   0.00000  -0.01451  -0.01450  -2.00357
    Z2       -1.17300  -0.00140   0.00000  -0.01110  -0.01422  -1.18722
    X3       -1.72213  -0.00722   0.00000  -0.01254  -0.01254  -1.73467
    Y3        0.99469   0.00417   0.00000   0.00721   0.00722   1.00191
    Z3       -1.17398  -0.00140   0.00000  -0.01116  -0.01428  -1.18826
    X4        1.72296   0.00723   0.00000   0.01255   0.01255   1.73550
    Y4        0.99425   0.00417   0.00000   0.00721   0.00722   1.00146
    Z4       -1.17460  -0.00140   0.00000  -0.01115  -0.01427  -1.18887
    X5        0.00105   0.00000   0.00000  -0.00002  -0.00002   0.00103
    Y5        0.00182   0.00000   0.00000  -0.00002  -0.00002   0.00180
    Z5        3.10807  -0.00681   0.00000  -0.08121  -0.08433   3.02373
    X6       -0.00035   0.00000   0.00000   0.00001   0.00000  -0.00035
    Y6       -0.00174   0.00000   0.00000   0.00006   0.00007  -0.00167
    Z6       -4.90094   0.00390   0.00000   0.07553   0.07241  -4.82854
         Item               Value     Threshold  Converged?
 Maximum Force            0.008342     0.000450     NO 
 RMS     Force            0.004260     0.000300     NO 
 Maximum Displacement     0.084332     0.001800     NO 
 RMS     Displacement     0.030355     0.001200     NO 
 Predicted change in Energy=-1.068391D-03
 GradGradGradGradGradGradGradGradGradGradGradGradGradGradGradGradGradGrad


 Test job not archived.
 1\1\GINC-TRAPISTA\Freq\RQCISD-FC\Aug-CC-pVTZ\C1H3Cl1F1(1-)\BRUNS\24-Ju
 l-2020\0\\#freq=noraman QCISD aug-cc-pvtz density=current iop(7/33=1) 
 nosym formcheck=forcecart SCF=maxcycle=300\\clch3f_ts-frequencies\\-1,
 1\C,0.000175,0.000029,-0.497709\H,0.000019,-1.05257,-0.620726\H,-0.911
 312,0.526365,-0.621245\H,0.91175,0.526132,-0.62157\Cl,0.000555,0.00096
 2,1.644718\F,-0.000186,-0.000921,-2.593468\\Version=EM64L-G09RevB.01\H
 F=-598.6171244\MP2=-599.2912671\MP3=-599.3099681\MP4D=-599.3248585\MP4
 DQ=-599.3104196\MP4SDQ=-599.3197858\QCISD=-599.3191679\RMSD=9.410e-09\
 RMSF=4.260e-03\ZeroPoint=0.0383253\Thermal=0.042771\Dipole=0.0002718,0
 .0007245,1.587292\DipoleDeriv=0.1197738,-0.000001,0.0004272,-0.0000009
 ,0.1197859,0.0012328,0.0005651,0.0014255,3.3410557,0.0673395,-0.000006
 4,-0.0000447,0.0000022,0.0243702,0.0440765,-0.0000397,-0.00773,-0.1524
 379,0.0349199,0.0187946,0.038817,0.0188189,0.0565133,-0.022791,-0.0066
 671,0.0037313,-0.1525199,0.0348998,-0.0187872,-0.038954,-0.0188201,0.0
 565231,-0.0227435,0.0066019,0.0037363,-0.1523826,-0.5326612,0.,-0.0002
 045,0.,-0.532661,-0.0006006,-0.000237,-0.0005951,-1.8807143,-0.7248195
 ,-0.0000002,-0.0003594,-0.0000002,-0.7248224,-0.0005799,-0.0002232,-0.
 000568,-2.0025285\Quadrupole=8.5844012,8.5844003,-17.1688015,-0.000002
 2,-0.0036923,-0.0107487\QuadrupoleDeriv=0.0001609,-0.0002319,0.000071,
 0.6129723,-0.5400907,-0.0001061,0.6133852,-0.613267,-0.0001182,-0.0002
 718,-0.0001061,-0.5395368,1.0489271,1.0494631,-2.0983901,-0.0001074,0.
 0012372,0.0002869,-0.0001158,0.0001554,-0.0000396,-0.6884754,-0.129768
 5,0.0000456,0.1349646,-0.4116285,0.2766639,0.0000337,0.0000656,0.01366
 41,0.1308122,0.1930064,-0.3238187,0.0000312,-0.0002038,-0.5345912,-0.5
 362422,0.2965699,0.2396724,0.0328197,-0.0224267,-0.0619749,-0.3789041,
 0.5173068,-0.1384027,-0.4162512,-0.0619497,-0.0942988,0.1776725,0.1463
 407,-0.3240132,-0.0270165,-0.4628074,0.2669981,0.5361823,-0.2965043,-0
 .239678,0.0327282,-0.0225484,0.0620375,-0.3787827,0.5172084,-0.1384256
 ,0.416495,0.0619913,-0.0944793,0.1779746,0.1465691,-0.3245438,0.027095
 2,0.4625472,0.2668476,-0.0008368,0.0002924,0.0005444,-0.0028262,-1.689
 5175,0.0000003,-0.001499,0.0002081,0.0012909,-0.0005633,0.0000001,-1.6
 895186,0.5132663,0.5132661,-1.0265324,-0.0000002,-0.0009232,-0.0007577
 ,0.0002653,-0.0004097,0.0001444,0.0128175,4.0031638,-0.0000016,0.01016
 46,-0.0096171,-0.0005475,0.0003288,-0.0000018,4.0031769,-3.1136727,-3.
 1136657,6.2273384,-0.0000023,-0.0000795,0.0014977\PG=C01 [X(C1H3Cl1F1)
 ]\NImag=1\\0.72316909,0.00000253,0.72316758,-0.00013700,-0.00033860,-0
 .06369500,-0.05352717,-0.00005200,0.00000243,0.04393072,-0.00005128,-0
 .40387493,-0.04097180,0.00005363,0.41171321,0.00000207,-0.04155146,-0.
 01079013,0.00000461,0.04106457,0.04096192,-0.31624001,0.15170509,-0.03
 565856,0.00509402,-0.00352561,0.00010831,0.31971206,0.15170561,-0.1411
 2882,0.02062381,0.02484523,-0.00722293,0.00394858,-0.15925643,0.135887
 67,-0.03614003,0.02089446,-0.01083187,0.00346503,-0.00188450,0.0039157
 5,0.03571312,-0.02062322,0.04100275,-0.31629635,-0.15165555,0.03577354
 ,0.00508830,0.00352190,-0.00010760,-0.01337286,-0.01418160,0.00337618,
 0.31977099,-0.15165681,-0.14105240,0.02066916,-0.02484645,-0.00721734,
 0.00395744,0.01418733,0.01124809,-0.00207739,0.15920447,0.13580725,0.0
 3625435,0.02093969,-0.01085705,-0.00346623,-0.00188502,0.00391684,-0.0
 0337063,-0.00207148,0.00391901,-0.03581800,-0.02067105,0.04102736,-0.0
 2368285,-0.00000002,0.00001178,-0.00003010,0.00000161,-0.00000549,0.00
 322127,-0.00188445,-0.01082290,0.00322426,0.00188284,0.01081551,0.0142
 2163,-0.00000003,-0.02368303,0.00003103,-0.00000168,0.00430373,-0.0125
 0536,-0.00187625,0.00105610,0.00623845,0.00187794,0.00105515,0.0062350
 1,0.,0.01422163,0.00001045,0.00002852,0.04653617,-0.00000333,0.0037560
 0,-0.02248353,0.00326803,-0.00190342,-0.02248866,-0.00327831,-0.001903
 32,-0.02249041,0.00000703,0.00001598,0.05137988,-0.01344564,-0.0000000
 2,0.00001231,-0.00055432,0.00000045,-0.00000193,0.00159124,-0.00123767
 ,0.00439496,0.00159015,0.00123722,-0.00440158,0.00305144,0.,-0.0000068
 7,0.00777276,-0.00000002,-0.01344571,0.00002946,0.00000126,0.00230545,
 0.00507026,-0.00123928,0.00016035,-0.00254651,0.00123801,0.00015972,-0
 .00254587,0.,0.00305145,-0.00001531,0.00000002,0.00777290,0.00001016,0
 .00002736,0.04962117,-0.00000252,-0.00011104,-0.01552072,-0.00008782,0
 .00004164,-0.01551687,0.00008174,0.00004106,-0.01551565,-0.00000592,-0
 .00001510,-0.03044850,0.00000310,0.00000798,0.02739198\\-0.00000011,-0
 .00000203,-0.00710636,0.00000132,0.00834236,0.00139721,0.00722368,-0.0
 0417099,0.00140236,-0.00722558,-0.00416993,0.00140481,0.00000122,0.000
 00290,0.00680525,-0.00000053,-0.00000231,-0.00390327\\\@


 ON INDUCTION, OR "WHY DO YOU BELIEVE THE SUN WILL RISE TOMORROW?":

 ... THE FARMER WHO HAS FED THE CHICKEN EVERY DAY THROUGHOUT ITS
 LIFE AT LAST WRINGS ITS NECK INSTEAD, SHOWING THAT MORE REFINED VIEWS
 AS TO THE UNIFORMITY OF NATURE WOULD HAVE BEEN USEFUL TO THE CHICKEN.

                               -- BERTRAND RUSSELL
 Job cpu time:  8 days 22 hours 39 minutes 34.4 seconds.
 File lengths (MBytes):  RWF=  29002 Int=      0 D2E=      0 Chk=     44 Scr=      1
 Normal termination of Gaussian 09 at Fri Jul 24 21:36:24 2020.
