 title line
GAUSSIAN            211 MOL ORBITALS    339 PRIMITIVES        6 NUCLEI
  C    1    (CENTRE  1)   0.00033070  0.00005480 -0.94053370  CHARGE =  6.0
  H    2    (CENTRE  2)   0.01893317 -1.98906904 -1.17300214  CHARGE =  1.0
  H    3    (CENTRE  3)  -1.72213010  0.99468570 -1.17398291  CHARGE =  1.0
  H    4    (CENTRE  4)   1.72295780  0.99424539 -1.17459707  CHARGE =  1.0
  Cl   5    (CENTRE  5)   0.00104880  0.00181792  3.10806659  CHARGE = 17.0
  F    6    (CENTRE  6)  -0.00035149 -0.00174044 -4.90092914  CHARGE =  9.0
CENTRE ASSIGNMENTS    1  1  1  1  1  1  1  1  1  1  1  1  1  1  1  1  1  1  1  1
CENTRE ASSIGNMENTS    1  1  1  1  1  1  1  1  1  1  1  1  1  1  1  1  1  1  1  1
CENTRE ASSIGNMENTS    1  1  1  1  1  1  1  1  1  1  1  1  1  1  1  1  1  1  1  1
CENTRE ASSIGNMENTS    1  1  1  1  1  1  1  1  1  1  1  1  2  2  2  2  2  2  2  2
CENTRE ASSIGNMENTS    2  2  2  2  2  2  2  2  2  2  2  2  2  2  2  2  2  2  2  3
CENTRE ASSIGNMENTS    3  3  3  3  3  3  3  3  3  3  3  3  3  3  3  3  3  3  3  3
CENTRE ASSIGNMENTS    3  3  3  3  3  3  4  4  4  4  4  4  4  4  4  4  4  4  4  4
CENTRE ASSIGNMENTS    4  4  4  4  4  4  4  4  4  4  4  4  4  5  5  5  5  5  5  5
CENTRE ASSIGNMENTS    5  5  5  5  5  5  5  5  5  5  5  5  5  5  5  5  5  5  5  5
CENTRE ASSIGNMENTS    5  5  5  5  5  5  5  5  5  5  5  5  5  5  5  5  5  5  5  5
CENTRE ASSIGNMENTS    5  5  5  5  5  5  5  5  5  5  5  5  5  5  5  5  5  5  5  5
CENTRE ASSIGNMENTS    5  5  5  5  5  5  5  5  5  5  5  5  5  5  5  5  5  5  5  5
CENTRE ASSIGNMENTS    5  5  5  5  5  5  5  5  5  5  5  5  5  5  5  5  5  5  5  5
CENTRE ASSIGNMENTS    5  5  5  5  5  5  5  6  6  6  6  6  6  6  6  6  6  6  6  6
CENTRE ASSIGNMENTS    6  6  6  6  6  6  6  6  6  6  6  6  6  6  6  6  6  6  6  6
CENTRE ASSIGNMENTS    6  6  6  6  6  6  6  6  6  6  6  6  6  6  6  6  6  6  6  6
CENTRE ASSIGNMENTS    6  6  6  6  6  6  6  6  6  6  6  6  6  6  6  6  6  6  6
TYPE ASSIGNMENTS      1  1  1  1  1  1  1  1  1  1  1  1  1  1  1  1  2  2  2  3
TYPE ASSIGNMENTS      3  3  4  4  4  2  3  4  2  3  4  2  3  4  5  6  7  8  9 10
TYPE ASSIGNMENTS      5  6  7  8  9 10  5  6  7  8  9 10 11 12 13 17 14 15 18 19
TYPE ASSIGNMENTS     16 20 11 12 13 17 14 15 18 19 16 20  1  1  1  1  1  1  2  3
TYPE ASSIGNMENTS      4  2  3  4  2  3  4  5  6  7  8  9 10  5  6  7  8  9 10  1
TYPE ASSIGNMENTS      1  1  1  1  1  2  3  4  2  3  4  2  3  4  5  6  7  8  9 10
TYPE ASSIGNMENTS      5  6  7  8  9 10  1  1  1  1  1  1  2  3  4  2  3  4  2  3
TYPE ASSIGNMENTS      4  5  6  7  8  9 10  5  6  7  8  9 10  1  1  1  1  1  1  1
TYPE ASSIGNMENTS      1  1  1  1  1  1  1  1  1  1  1  1  1  1  1  1  1  1  1  1
TYPE ASSIGNMENTS      1  1  1  1  2  2  2  2  2  2  3  3  3  3  3  3  4  4  4  4
TYPE ASSIGNMENTS      4  4  2  2  2  2  2  2  3  3  3  3  3  3  4  4  4  4  4  4
TYPE ASSIGNMENTS      2  3  4  2  3  4  2  3  4  5  6  7  8  9 10  5  6  7  8  9
TYPE ASSIGNMENTS     10  5  6  7  8  9 10 11 12 13 17 14 15 18 19 16 20 11 12 13
TYPE ASSIGNMENTS     17 14 15 18 19 16 20  1  1  1  1  1  1  1  1  1  1  1  1  1
TYPE ASSIGNMENTS      1  1  1  2  2  2  3  3  3  4  4  4  2  3  4  2  3  4  2  3
TYPE ASSIGNMENTS      4  5  6  7  8  9 10  5  6  7  8  9 10  5  6  7  8  9 10 11
TYPE ASSIGNMENTS     12 13 17 14 15 18 19 16 20 11 12 13 17 14 15 18 19 16 20
EXPONENTS  0.8236000D+04 0.1235000D+04 0.2808000D+03 0.7927000D+02 0.2559000D+02
EXPONENTS  0.8997000D+01 0.3319000D+01 0.2808000D+03 0.7927000D+02 0.2559000D+02
EXPONENTS  0.8997000D+01 0.3319000D+01 0.3643000D+00 0.9059000D+00 0.1285000D+00
EXPONENTS  0.4402000D-01 0.1871000D+02 0.4133000D+01 0.1200000D+01 0.1871000D+02
EXPONENTS  0.4133000D+01 0.1200000D+01 0.1871000D+02 0.4133000D+01 0.1200000D+01
EXPONENTS  0.3827000D+00 0.3827000D+00 0.3827000D+00 0.1209000D+00 0.1209000D+00
EXPONENTS  0.1209000D+00 0.3569000D-01 0.3569000D-01 0.3569000D-01 0.1097000D+01
EXPONENTS  0.1097000D+01 0.1097000D+01 0.1097000D+01 0.1097000D+01 0.1097000D+01
EXPONENTS  0.3180000D+00 0.3180000D+00 0.3180000D+00 0.3180000D+00 0.3180000D+00
EXPONENTS  0.3180000D+00 0.1000000D+00 0.1000000D+00 0.1000000D+00 0.1000000D+00
EXPONENTS  0.1000000D+00 0.1000000D+00 0.7610000D+00 0.7610000D+00 0.7610000D+00
EXPONENTS  0.7610000D+00 0.7610000D+00 0.7610000D+00 0.7610000D+00 0.7610000D+00
EXPONENTS  0.7610000D+00 0.7610000D+00 0.2680000D+00 0.2680000D+00 0.2680000D+00
EXPONENTS  0.2680000D+00 0.2680000D+00 0.2680000D+00 0.2680000D+00 0.2680000D+00
EXPONENTS  0.2680000D+00 0.2680000D+00 0.3387000D+02 0.5095000D+01 0.1159000D+01
EXPONENTS  0.3258000D+00 0.1027000D+00 0.2526000D-01 0.1407000D+01 0.1407000D+01
EXPONENTS  0.1407000D+01 0.3880000D+00 0.3880000D+00 0.3880000D+00 0.1020000D+00
EXPONENTS  0.1020000D+00 0.1020000D+00 0.1057000D+01 0.1057000D+01 0.1057000D+01
EXPONENTS  0.1057000D+01 0.1057000D+01 0.1057000D+01 0.2470000D+00 0.2470000D+00
EXPONENTS  0.2470000D+00 0.2470000D+00 0.2470000D+00 0.2470000D+00 0.3387000D+02
EXPONENTS  0.5095000D+01 0.1159000D+01 0.3258000D+00 0.1027000D+00 0.2526000D-01
EXPONENTS  0.1407000D+01 0.1407000D+01 0.1407000D+01 0.3880000D+00 0.3880000D+00
EXPONENTS  0.3880000D+00 0.1020000D+00 0.1020000D+00 0.1020000D+00 0.1057000D+01
EXPONENTS  0.1057000D+01 0.1057000D+01 0.1057000D+01 0.1057000D+01 0.1057000D+01
EXPONENTS  0.2470000D+00 0.2470000D+00 0.2470000D+00 0.2470000D+00 0.2470000D+00
EXPONENTS  0.2470000D+00 0.3387000D+02 0.5095000D+01 0.1159000D+01 0.3258000D+00
EXPONENTS  0.1027000D+00 0.2526000D-01 0.1407000D+01 0.1407000D+01 0.1407000D+01
EXPONENTS  0.3880000D+00 0.3880000D+00 0.3880000D+00 0.1020000D+00 0.1020000D+00
EXPONENTS  0.1020000D+00 0.1057000D+01 0.1057000D+01 0.1057000D+01 0.1057000D+01
EXPONENTS  0.1057000D+01 0.1057000D+01 0.2470000D+00 0.2470000D+00 0.2470000D+00
EXPONENTS  0.2470000D+00 0.2470000D+00 0.2470000D+00 0.4561000D+06 0.6833000D+05
EXPONENTS  0.1555000D+05 0.4405000D+04 0.1439000D+04 0.5204000D+03 0.2031000D+03
EXPONENTS  0.8396000D+02 0.3620000D+02 0.1583000D+02 0.6334000D+01 0.4405000D+04
EXPONENTS  0.1439000D+04 0.5204000D+03 0.2031000D+03 0.8396000D+02 0.3620000D+02
EXPONENTS  0.1583000D+02 0.6334000D+01 0.2694000D+01 0.1439000D+04 0.2031000D+03
EXPONENTS  0.8396000D+02 0.3620000D+02 0.1583000D+02 0.6334000D+01 0.2694000D+01
EXPONENTS  0.4313000D+00 0.9768000D+00 0.1625000D+00 0.5910000D-01 0.6633000D+03
EXPONENTS  0.1568000D+03 0.4998000D+02 0.1842000D+02 0.7240000D+01 0.2922000D+01
EXPONENTS  0.6633000D+03 0.1568000D+03 0.4998000D+02 0.1842000D+02 0.7240000D+01
EXPONENTS  0.2922000D+01 0.6633000D+03 0.1568000D+03 0.4998000D+02 0.1842000D+02
EXPONENTS  0.7240000D+01 0.2922000D+01 0.1568000D+03 0.4998000D+02 0.1842000D+02
EXPONENTS  0.7240000D+01 0.2922000D+01 0.3818000D+00 0.1568000D+03 0.4998000D+02
EXPONENTS  0.1842000D+02 0.7240000D+01 0.2922000D+01 0.3818000D+00 0.1568000D+03
EXPONENTS  0.4998000D+02 0.1842000D+02 0.7240000D+01 0.2922000D+01 0.3818000D+00
EXPONENTS  0.1022000D+01 0.1022000D+01 0.1022000D+01 0.1301000D+00 0.1301000D+00
EXPONENTS  0.1301000D+00 0.4190000D-01 0.4190000D-01 0.4190000D-01 0.1046000D+01
EXPONENTS  0.1046000D+01 0.1046000D+01 0.1046000D+01 0.1046000D+01 0.1046000D+01
EXPONENTS  0.3440000D+00 0.3440000D+00 0.3440000D+00 0.3440000D+00 0.3440000D+00
EXPONENTS  0.3440000D+00 0.1350000D+00 0.1350000D+00 0.1350000D+00 0.1350000D+00
EXPONENTS  0.1350000D+00 0.1350000D+00 0.7060000D+00 0.7060000D+00 0.7060000D+00
EXPONENTS  0.7060000D+00 0.7060000D+00 0.7060000D+00 0.7060000D+00 0.7060000D+00
EXPONENTS  0.7060000D+00 0.7060000D+00 0.3120000D+00 0.3120000D+00 0.3120000D+00
EXPONENTS  0.3120000D+00 0.3120000D+00 0.3120000D+00 0.3120000D+00 0.3120000D+00
EXPONENTS  0.3120000D+00 0.3120000D+00 0.1950000D+05 0.2923000D+04 0.6645000D+03
EXPONENTS  0.1875000D+03 0.6062000D+02 0.2142000D+02 0.7950000D+01 0.6645000D+03
EXPONENTS  0.1875000D+03 0.6062000D+02 0.2142000D+02 0.7950000D+01 0.8815000D+00
EXPONENTS  0.2257000D+01 0.3041000D+00 0.9158000D-01 0.4388000D+02 0.9926000D+01
EXPONENTS  0.2930000D+01 0.4388000D+02 0.9926000D+01 0.2930000D+01 0.4388000D+02
EXPONENTS  0.9926000D+01 0.2930000D+01 0.9132000D+00 0.9132000D+00 0.9132000D+00
EXPONENTS  0.2672000D+00 0.2672000D+00 0.2672000D+00 0.7361000D-01 0.7361000D-01
EXPONENTS  0.7361000D-01 0.3107000D+01 0.3107000D+01 0.3107000D+01 0.3107000D+01
EXPONENTS  0.3107000D+01 0.3107000D+01 0.8550000D+00 0.8550000D+00 0.8550000D+00
EXPONENTS  0.8550000D+00 0.8550000D+00 0.8550000D+00 0.2920000D+00 0.2920000D+00
EXPONENTS  0.2920000D+00 0.2920000D+00 0.2920000D+00 0.2920000D+00 0.1917000D+01
EXPONENTS  0.1917000D+01 0.1917000D+01 0.1917000D+01 0.1917000D+01 0.1917000D+01
EXPONENTS  0.1917000D+01 0.1917000D+01 0.1917000D+01 0.1917000D+01 0.7240000D+00
EXPONENTS  0.7240000D+00 0.7240000D+00 0.7240000D+00 0.7240000D+00 0.7240000D+00
EXPONENTS  0.7240000D+00 0.7240000D+00 0.7240000D+00 0.7240000D+00
MO    1     MO 0.0        OCC NO =    2.0000300  ORB. ENERGY =    0.000000
 -0.11976990D-04 -0.22327523D-04 -0.37736555D-04 -0.56725081D-04 -0.69676602D-04
 -0.58804594D-04 -0.22112063D-04  0.76069015D-08  0.56856876D-07  0.21248713D-06
  0.59280600D-06  0.79419660D-06 -0.93779810D-06 -0.32268508D-05  0.20035234D-04
  0.59949582D-06  0.77420093D-04  0.72586258D-04  0.51685740D-04  0.78661994D-04
  0.73750619D-04  0.52514834D-04  0.32806271D-06  0.30757964D-06  0.21901503D-06
  0.25162312D-03  0.25569453D-03 -0.26500640D-06  0.32333210D-03  0.32860707D-03
 -0.11165965D-05  0.66691757D-05  0.67768730D-05 -0.14386194D-07  0.44745202D-04
 -0.46183506D-04  0.14383042D-05  0.90868557D-04 -0.35737803D-03 -0.36311879D-03
  0.13784148D-03 -0.13498524D-03 -0.28562404D-05  0.27349470D-03  0.68815177D-04
  0.70170909D-04  0.28491310D-04 -0.29218250D-04  0.72693952D-06  0.57773522D-04
 -0.46166509D-04 -0.46862740D-04  0.65781293D-04  0.65789886D-04  0.23975259D-06
  0.61506472D-04  0.65663278D-04  0.18347265D-04 -0.25885035D-03 -0.26303294D-03
 -0.19066523D-04  0.36968709D-04 -0.18079576D-04 -0.20185342D-04 -0.32529875D-07
 -0.20378223D-04 -0.15327360D-04  0.35702572D-04  0.74616950D-04  0.75883387D-04
 -0.35604983D-04  0.71608916D-04 -0.28499851D-04 -0.51400655D-04 -0.75790236D-04
  0.24860987D-03  0.79397635D-03 -0.84484918D-05  0.30682069D-05  0.49755322D-04
  0.16583188D-04  0.57825209D-04  0.20224614D-03  0.19229477D-03  0.51211430D-04
  0.12141496D-03  0.16126971D-04 -0.77897786D-04  0.29941401D-04  0.47956384D-04
  0.19972821D-04 -0.35339110D-04  0.21099660D-03 -0.30197571D-04 -0.81407495D-05
  0.38338321D-04  0.19894689D-04  0.42620038D-04  0.22554248D-04 -0.10238933D-04
 -0.18466337D-04 -0.27228603D-04  0.82428510D-04  0.28252285D-03 -0.30355287D-05
  0.17527756D-04 -0.43993673D-05  0.57519591D-05  0.99745308D-04  0.30609600D-04
  0.68293672D-04  0.72905694D-04  0.40958581D-04  0.58860812D-05  0.12417027D-04
 -0.29413122D-04  0.16996095D-04 -0.20061676D-04  0.42379733D-04 -0.77075516D-04
  0.72221994D-05 -0.20327907D-04  0.13105707D-04  0.72976951D-05  0.36247576D-04
  0.46977369D-04  0.38500637D-04  0.69437484D-04  0.10238553D-03 -0.36098788D-03
 -0.10820727D-02  0.11401740D-04  0.58941218D-04  0.35541027D-04 -0.23268476D-04
  0.22831143D-03  0.15911223D-03 -0.26279939D-03  0.13410430D-03  0.10009131D-03
 -0.21543522D-04  0.48597235D-06  0.65555848D-04 -0.66041821D-04 -0.13095775D-03
  0.25553603D-03  0.13281846D-03  0.22810317D-04  0.31355080D-04 -0.54165397D-04
 -0.30150550D-04  0.17935840D-04  0.28851257D-04  0.19220604D-04  0.35959699D-04
  0.62130384D-04  0.10072065D-03  0.15295398D-03  0.21259163D-03  0.25275516D-03
  0.22516308D-03  0.11182075D-03  0.18002194D-04  0.18993378D-06  0.89286442D-07
  0.29784462D-05  0.10379289D-04  0.37377500D-04  0.82394046D-04  0.11598422D-03
 -0.55328255D-05 -0.15178550D-03 -0.89749816D-04  0.35004531D-08  0.42399035D-07
  0.88418717D-07  0.25356949D-06  0.13167510D-07 -0.10935146D-05 -0.28254317D-05
  0.23020288D-05 -0.58262123D-05 -0.27532045D-05 -0.67418165D-06  0.81435566D+01
  0.10726969D+02  0.11833526D+02  0.98286700D+01  0.52192965D+01  0.13466058D+01
  0.82759868D+01  0.10901411D+02  0.12025962D+02  0.99885034D+01  0.53041725D+01
  0.13685042D+01 -0.42274041D-02 -0.55684801D-02 -0.61429052D-02 -0.51021637D-02
 -0.27093905D-02 -0.69903692D-03 -0.32227703D-03  0.31155670D-02  0.43932746D-02
  0.62835449D-02 -0.31818987D-04 -0.57626033D-02 -0.32751766D-03  0.31662300D-02
  0.44647148D-02  0.63857232D-02 -0.32336403D-04 -0.58563105D-02  0.20351641D-06
 -0.19674657D-05 -0.27743321D-05 -0.39680288D-05  0.20093539D-07  0.36390566D-05
  0.53761196D-01  0.54635457D-01 -0.28356658D-04 -0.45181059D-03 -0.45916002D-03
  0.10088064D-05 -0.40688298D-04 -0.41349852D-04  0.64970843D-07  0.90708400D-05
 -0.90463145D-05 -0.24525534D-07  0.17562501D-04 -0.68760190D-03 -0.69876844D-03
 -0.31606822D-05  0.31464280D-05  0.14254121D-07 -0.61023340D-05  0.24937894D-03
  0.25342648D-03  0.91472722D-06 -0.92300572D-06  0.82785064D-08  0.18044884D-05
 -0.42640530D-04 -0.43331368D-04  0.15118994D-05  0.16827754D-05  0.32116277D-07
  0.16296378D-05  0.11696024D-05  0.24744337D-04 -0.61653359D-05 -0.62179285D-05
 -0.24840686D-04  0.49668452D-04  0.10303871D-04  0.10429549D-04 -0.88549648D-07
  0.10303278D-04  0.10605367D-04 -0.49248616D-05 -0.41214890D-04 -0.41894013D-04
  0.51905105D-05 -0.10225685D-04  0.57289814D-06  0.10678831D-05  0.18102998D-05
  0.27410387D-05  0.34269021D-05  0.29477503D-05  0.11305257D-05 -0.48268923D-08
 -0.63899015D-07 -0.23209285D-06 -0.68849907D-06 -0.79335611D-06  0.96364917D-06
 -0.95556867D-07 -0.23097233D-05 -0.11847731D-05 -0.20393323D-03 -0.19944224D-03
 -0.13177992D-03 -0.20727182D-03 -0.20270731D-03 -0.13393729D-03 -0.74858437D-06
 -0.73209916D-06 -0.48372887D-06 -0.57827447D-05 -0.58886853D-05 -0.59468837D-06
 -0.46734049D-04 -0.47489433D-04 -0.69711518D-06 -0.13762985D-04 -0.13986876D-04
 -0.95868418D-07  0.49827459D-04 -0.50329264D-04  0.50180545D-06  0.10027026D-03
 -0.94144247D-04 -0.95584740D-04 -0.24925950D-04  0.25316970D-04 -0.39102037D-06
 -0.50275406D-04  0.71999513D-04  0.73123938D-04  0.12608953D-04 -0.12865409D-04
  0.25645538D-06  0.25475838D-04 -0.51984865D-04 -0.52801435D-04 -0.50089289D-04
 -0.50231089D-04 -0.12187818D-05 -0.49328221D-04 -0.51877059D-04 -0.13183679D-03
  0.19959609D-03  0.20257033D-03  0.13549313D-03 -0.26736468D-03  0.17765734D-04
  0.17851420D-04  0.43447556D-06  0.17537373D-04  0.18343996D-04  0.41791347D-04
 -0.70834575D-04 -0.71898257D-04 -0.43094773D-04  0.84879830D-04
MO    2     MO 0.0        OCC NO =    2.0000300  ORB. ENERGY =    0.000000
  0.11969332D-04  0.22313246D-04  0.37712426D-04  0.56688810D-04  0.69632050D-04
  0.58766994D-04  0.22097924D-04 -0.77442264D-08 -0.57883294D-07 -0.21632309D-06
 -0.60350773D-06 -0.80853397D-06  0.95472786D-06  0.32341234D-05 -0.19942958D-04
 -0.57806842D-06 -0.79664819D-04 -0.74690831D-04 -0.53184321D-04  0.78373383D-04
  0.73480029D-04  0.52322158D-04 -0.38557187D-06 -0.36149814D-06 -0.25740821D-06
 -0.26187702D-03  0.25766569D-03  0.50071380D-07 -0.33238308D-03  0.32708145D-03
  0.85554145D-06 -0.65314478D-05  0.64262087D-05  0.93491887D-08  0.46238417D-04
 -0.45117212D-04 -0.11212050D-05 -0.90912002D-04  0.36357628D-03 -0.35769150D-03
  0.13662103D-03 -0.13941326D-03  0.27922350D-05 -0.27554742D-03 -0.69291070D-04
  0.68424905D-04  0.29656858D-04 -0.28955060D-04 -0.70179797D-06 -0.58430589D-04
  0.47459129D-04 -0.46647274D-04 -0.65366018D-04  0.65331397D-04 -0.18749413D-07
 -0.69742004D-04  0.65569593D-04  0.16822855D-04  0.26584006D-03 -0.26156379D-03
 -0.16766607D-04 -0.32984022D-04  0.19875123D-04 -0.17759191D-04 -0.32134217D-07
  0.17366219D-04 -0.22533714D-04  0.35596491D-04 -0.76991588D-04  0.75811287D-04
 -0.35500089D-04 -0.71090676D-04 -0.28201905D-04 -0.50863296D-04 -0.74997901D-04
  0.27096353D-03  0.79723566D-03 -0.86920681D-05 -0.33232679D-05  0.51762965D-04
  0.17508734D-04 -0.60358802D-04  0.20574442D-03  0.19061689D-03 -0.55573767D-04
  0.12256652D-03  0.15280796D-04 -0.78147106D-04  0.30391835D-04  0.47755271D-04
 -0.23235033D-04  0.30979345D-04  0.20997888D-03 -0.31334059D-04 -0.88335911D-05
  0.40167650D-04 -0.21135202D-04 -0.43996862D-04  0.21587854D-04  0.38956623D-04
  0.70259874D-04  0.10359814D-03 -0.34888480D-03 -0.10917322D-02  0.12011375D-04
 -0.59957325D-04  0.35845376D-04 -0.23411809D-04 -0.23272818D-03  0.15647220D-03
 -0.26066439D-03 -0.13496882D-03  0.10040113D-03 -0.21591306D-04 -0.20269244D-05
  0.67098716D-04 -0.65071792D-04  0.13242873D-03 -0.25473151D-03  0.13342543D-03
  0.22098270D-04  0.31014386D-04 -0.53112656D-04  0.30008864D-04 -0.18361798D-04
  0.28565159D-04 -0.10524410D-04 -0.18981207D-04 -0.27987779D-04  0.10777253D-03
  0.29988644D-03 -0.32396791D-05 -0.18976294D-04 -0.66015613D-05  0.67694566D-05
 -0.11030038D-03  0.34530353D-04  0.71864703D-04 -0.77402231D-04  0.40731899D-04
  0.56022706D-05  0.15387719D-04 -0.33555070D-04  0.18167351D-04  0.18945757D-04
 -0.45811059D-04 -0.78255056D-04  0.67243098D-05 -0.22317379D-04  0.15593069D-04
 -0.66038881D-05 -0.36913141D-04  0.47542775D-04 -0.18706640D-04 -0.34998127D-04
 -0.60469000D-04 -0.98027354D-04 -0.14886394D-03 -0.20690688D-03 -0.24599642D-03
 -0.21914216D-03 -0.10883063D-03 -0.17520811D-04 -0.18485490D-06 -0.86874144D-07
 -0.28979760D-05 -0.10098866D-04 -0.36367653D-04 -0.80167964D-04 -0.11285062D-03
  0.53833423D-05  0.14768463D-03  0.87324999D-04 -0.34537786D-08 -0.41833693D-07
 -0.87239756D-07 -0.25018843D-06 -0.12991937D-07  0.10789338D-05  0.27877579D-05
 -0.22713339D-05  0.56769168D-05  0.27984310D-05  0.67161497D-06 -0.82759749D+01
 -0.10901395D+02 -0.12025945D+02 -0.99884890D+01 -0.53041648D+01 -0.13685023D+01
  0.81435436D+01  0.10726952D+02  0.11833507D+02  0.98286543D+01  0.52192882D+01
  0.13466036D+01 -0.28721754D-02 -0.37833268D-02 -0.41736017D-02 -0.34665030D-02
 -0.18408093D-02 -0.47493842D-03  0.32756881D-03 -0.31667245D-02 -0.44654121D-02
 -0.63867206D-02  0.32341454D-04  0.58572252D-02 -0.32232690D-03  0.31160490D-02
  0.43939544D-02  0.62845172D-02 -0.31823910D-04 -0.57634950D-02  0.76972624D-07
 -0.74412180D-06 -0.10492894D-05 -0.15007614D-05  0.75996447D-08  0.13763398D-05
 -0.54638849D-01  0.53764523D-01 -0.18506708D-04  0.45826344D-03 -0.45093314D-03
 -0.61482282D-06  0.41274900D-04 -0.40614352D-04 -0.29706874D-07  0.84620036D-05
 -0.90902129D-05  0.62820928D-06 -0.16922675D-04  0.69976815D-03 -0.68855525D-03
 -0.29886910D-05  0.32232895D-05 -0.23459854D-06  0.59802705D-05 -0.25455939D-03
  0.25047798D-03  0.86759045D-06 -0.89488302D-06  0.27292570D-07 -0.17213770D-05
  0.43737404D-04 -0.43034993D-04 -0.18249286D-05  0.16236957D-05 -0.29136328D-07
 -0.17411606D-05  0.21828646D-05  0.24716937D-04  0.72159465D-05 -0.70539518D-05
 -0.24629528D-04 -0.49220495D-04 -0.10450914D-04  0.10331007D-04  0.12603971D-06
 -0.10445549D-04  0.10144503D-04 -0.51782909D-05  0.41798290D-04 -0.41137525D-04
  0.48001717D-05  0.10046402D-04 -0.61516186D-06 -0.11466628D-05 -0.19438488D-05
 -0.29432500D-05 -0.36797108D-05 -0.31652111D-05 -0.12139266D-05  0.49689169D-08
  0.65779156D-07  0.23892186D-06  0.70875721D-06  0.81669952D-06 -0.99200322D-06
  0.96316479D-07  0.23589005D-05  0.12197416D-05  0.20772251D-03  0.20314808D-03
  0.13422853D-03 -0.20441937D-03 -0.19991768D-03 -0.13209406D-03  0.96850879D-06
  0.94718045D-06  0.62584217D-06  0.63550421D-05 -0.62645074D-05  0.59845199D-06
  0.47713967D-04 -0.46945221D-04  0.76817973D-06  0.13890680D-04 -0.13668372D-04
  0.11251324D-06  0.50382425D-04 -0.49942112D-04 -0.44031258D-06 -0.10001836D-03
  0.92881545D-04 -0.91307416D-04 -0.25341226D-04  0.25003979D-04  0.33724715D-06
  0.50166995D-04 -0.71956920D-04  0.70760696D-04  0.12832444D-04 -0.12623138D-04
 -0.20930612D-06 -0.25349874D-04  0.52797415D-04 -0.51924859D-04  0.51001433D-04
 -0.50715470D-04  0.10400479D-05  0.52012987D-04 -0.49330780D-04 -0.13449212D-03
 -0.20501729D-03  0.20147719D-03  0.13137197D-03  0.26476862D-03 -0.18139577D-04
  0.18006349D-04 -0.36970818D-06 -0.18446800D-04  0.17596422D-04  0.42748960D-04
  0.72865531D-04 -0.71615470D-04 -0.41639835D-04 -0.84023342D-04
MO    3     MO 0.0        OCC NO =    2.0000210  ORB. ENERGY =    0.000000
 -0.14454366D-01 -0.26945851D-01 -0.45542159D-01 -0.68458359D-01 -0.84088832D-01
 -0.70968008D-01 -0.26685824D-01 -0.38141749D-05 -0.28508594D-04 -0.10654313D-03
 -0.29723873D-03 -0.39821795D-03  0.47022115D-03 -0.87196388D-03 -0.19343331D-02
 -0.82064354D-04 -0.10016267D-06 -0.93908870D-07 -0.66868710D-07  0.53444574D-06
  0.50107685D-06  0.35679657D-06  0.11672785D-02  0.10943978D-02  0.77927642D-03
 -0.16292066D-05  0.19297496D-06  0.60720673D-03 -0.40485091D-05 -0.21114867D-06
 -0.37925187D-03  0.74173854D-07  0.98992643D-09  0.46678851D-05 -0.10557282D-03
 -0.10556465D-03  0.21113747D-03  0.44267302D-06 -0.43721237D-06  0.27727663D-06
 -0.24093637D-04 -0.24039938D-04  0.48133575D-04  0.55032064D-06  0.11998519D-05
  0.75883345D-07  0.11425662D-04  0.11431262D-04 -0.22856925D-04 -0.68017691D-06
 -0.54622571D-06 -0.28332049D-07  0.20548836D-06  0.36267447D-04  0.77245984D-05
 -0.11183763D-05 -0.10883493D-03 -0.11531345D-04  0.50191124D-06  0.32585972D-07
 -0.11642450D-04 -0.56361015D-06  0.56091085D-06  0.51873491D-04 -0.85675396D-04
 -0.13294036D-05 -0.15539312D-03  0.12858083D-03 -0.35332894D-06 -0.22735726D-06
  0.12844536D-03  0.75746787D-07 -0.48381858D-05 -0.87258673D-05 -0.12866286D-04
  0.75258842D-03  0.23579709D-03  0.50609408D-05  0.36369175D-06  0.95843516D-04
  0.28411689D-04 -0.65253032D-05  0.19927738D-03 -0.42635535D-05 -0.15136480D-05
  0.44015033D-04  0.38737545D-04 -0.73888477D-04  0.54224371D-04  0.19664105D-04
 -0.40134357D-05 -0.23406590D-05  0.75978023D-04 -0.96429039D-05 -0.12049192D-04
  0.21692096D-04 -0.58047525D-06  0.35666312D-06 -0.34558350D-04 -0.47233649D-05
 -0.85187831D-05 -0.12560941D-04  0.75072503D-03  0.22902105D-03  0.51657563D-05
  0.83049225D-04 -0.47223852D-04  0.28613214D-04  0.17097779D-03 -0.10144288D-03
 -0.40122181D-05  0.36991833D-04 -0.21990937D-04  0.38085482D-04  0.21743805D-04
 -0.41524875D-04  0.19781069D-04 -0.11120107D-03  0.65597956D-04 -0.38748652D-04
 -0.11529580D-04 -0.10042438D-04  0.21572018D-04  0.19170350D-05 -0.29807592D-04
  0.17258576D-04 -0.49340778D-05 -0.88988125D-05 -0.13121294D-04  0.75474343D-03
  0.24292511D-03  0.49650906D-05 -0.82971741D-04 -0.48608109D-04  0.28374794D-04
 -0.17430830D-03 -0.97927756D-04 -0.42637686D-05 -0.39257815D-04 -0.22013967D-04
  0.39443667D-04  0.22618783D-04 -0.42289851D-04  0.19671069D-04  0.11068825D-03
 -0.66195064D-04 -0.37188047D-04 -0.11339506D-04 -0.10433226D-04  0.21772732D-04
 -0.21588540D-05  0.30111153D-04  0.17387020D-04 -0.15460163D+00 -0.28924315D+00
 -0.49974801D+00 -0.81015024D+00 -0.12302909D+01 -0.17099886D+01 -0.20330454D+01
 -0.18111075D+01 -0.89943426D+00 -0.14480131D+00 -0.15277393D-02 -0.72283754D-03
 -0.24112650D-01 -0.84027759D-01 -0.30259756D+00 -0.66703867D+00 -0.93897517D+00
  0.44792176D-01  0.12288121D+01  0.72658888D+00 -0.15531655D-04 -0.18812627D-03
 -0.39231750D-03 -0.11250983D-02 -0.58424788D-04  0.48519695D-02  0.12536557D-01
 -0.10214197D-01  0.46599752D-01 -0.38425443D-03 -0.13194807D-03  0.19183669D-02
  0.25269380D-02  0.27876081D-02  0.23153268D-02  0.12295028D-02  0.31721815D-03
  0.26045034D-02  0.34307403D-02  0.37846436D-02  0.31434428D-02  0.16692554D-02
  0.43067661D-03  0.59414950D+01  0.78263388D+01  0.86336768D+01  0.71709446D+01
  0.38079706D+01  0.98247631D+00 -0.55284390D-07  0.53445392D-06  0.75363581D-06
  0.10778986D-05 -0.54583266D-08 -0.98853465D-06 -0.92373355D-07  0.89300616D-06
  0.12592319D-05  0.18010347D-05 -0.91201864D-08 -0.16517187D-05 -0.21080143D-03
  0.20378926D-02  0.28736413D-02  0.41100672D-02 -0.20812802D-04 -0.37693193D-02
  0.12764961D-04  0.18251458D-04  0.41654713D-01  0.13336204D-06 -0.21118888D-06
 -0.48397281D-03 -0.45840605D-07 -0.43360917D-08 -0.98427136D-05 -0.71228143D-05
 -0.71269651D-05  0.14249779D-04 -0.15563386D-06  0.71117482D-06  0.18952199D-07
 -0.11142816D-03 -0.11142736D-03  0.22285552D-03  0.57145516D-07 -0.38439958D-06
  0.28885053D-06 -0.14325521D-04 -0.14325083D-04  0.28650604D-04  0.55091135D-07
 -0.36690314D-07  0.36694345D-07 -0.54754849D-07 -0.72119832D-05  0.54410987D-05
  0.20843958D-06  0.21622852D-04 -0.81761578D-05 -0.44175033D-07  0.13097382D-07
 -0.81471384D-05  0.66675938D-06 -0.35113170D-08  0.20724769D-05 -0.33741617D-04
 -0.78411309D-07 -0.61308034D-05  0.50616978D-04  0.88945260D-07 -0.86627284D-07
  0.50607873D-04 -0.26264548D-06 -0.87949933D-03 -0.16393883D-02 -0.27791283D-02
 -0.42079761D-02 -0.52608970D-02 -0.45253148D-02 -0.17355556D-02 -0.68426989D-06
 -0.90584522D-05 -0.32901946D-04 -0.97603004D-04 -0.11246775D-03  0.13660883D-03
 -0.95968586D-04 -0.15941967D-03  0.12429104D-04  0.10489097D-05  0.10258108D-05
  0.67779657D-06  0.17847180D-05  0.17454152D-05  0.11532696D-05  0.39019258D-02
  0.38159982D-02  0.25213914D-02  0.80306717D-06  0.40312964D-06  0.87920010D-03
 -0.18076392D-06  0.95889173D-08  0.21374950D-04 -0.43424157D-07  0.42572343D-08
  0.93390878D-05 -0.35647094D-04 -0.35642626D-04  0.71289719D-04  0.37795833D-06
 -0.10540983D-05  0.97601414D-07  0.21098185D-04  0.21095689D-04 -0.42193874D-04
 -0.18303124D-06  0.47494757D-06 -0.56697888D-07  0.18118213D-04  0.18119515D-04
 -0.36237728D-04  0.10047473D-06 -0.96925820D-07 -0.50788030D-07  0.24220645D-06
 -0.30032249D-05  0.46412167D-04  0.34947299D-06  0.88689134D-05 -0.69610542D-04
 -0.10760924D-05  0.14076133D-06 -0.69625960D-04 -0.16697815D-05 -0.88437555D-07
  0.95395983D-06 -0.25392041D-04 -0.12226586D-06 -0.27878539D-05  0.38085873D-04
  0.38757853D-06 -0.74025607D-07  0.38090250D-04  0.49353110D-06
MO    4     MO 0.0        OCC NO =    2.0000123  ORB. ENERGY =    0.000000
  0.26822175D-01  0.50001938D-01  0.84510087D-01  0.12703442D+00  0.15603904D+00
  0.13169144D+00  0.49519421D-01 -0.14576242D-05 -0.10894838D-04 -0.40716497D-04
 -0.11359269D-03 -0.15218288D-03  0.17969961D-03  0.26459510D-02 -0.36106719D-02
 -0.42274466D-04  0.14182010D-06  0.13296536D-06  0.94679256D-07  0.15668205D-05
  0.14689938D-05  0.10460111D-05  0.36696815D-02  0.34405596D-02  0.24498834D-02
  0.19958459D-06  0.47477608D-06  0.13052664D-02 -0.46392684D-05 -0.26383010D-06
 -0.41708193D-03  0.72022184D-07  0.93055410D-09  0.37027823D-05 -0.31920066D-03
 -0.31921738D-03  0.63841803D-03 -0.35604720D-06 -0.71885357D-06  0.83510962D-06
  0.95650599D-05  0.96705968D-05 -0.19235657D-04  0.49080440D-05  0.15132912D-05
 -0.81209401D-08 -0.17872430D-04 -0.17849604D-04  0.35722034D-04  0.42986250D-06
 -0.59050034D-06  0.46533320D-07 -0.43870493D-06 -0.42193769D-04  0.22571367D-04
  0.10995143D-05  0.12651905D-03 -0.33906842D-04  0.21660045D-06  0.62258796D-07
 -0.33807258D-04 -0.47845621D-06  0.94416420D-06  0.82067588D-04 -0.16374446D-03
 -0.20462288D-05 -0.24576974D-03  0.24573107D-03 -0.78626375D-06 -0.43302643D-06
  0.24550232D-03 -0.13226842D-05 -0.90316979D-04 -0.16289039D-03 -0.24018179D-03
  0.10227908D-02  0.68406200D-03  0.42653136D-05  0.26976983D-05 -0.57755100D-04
  0.33529347D-04 -0.78020159D-05  0.30459272D-03 -0.43259147D-04 -0.11845815D-05
  0.11102216D-03  0.75808512D-04 -0.14236962D-03  0.24253417D-04  0.11811621D-03
 -0.20879003D-05 -0.37701846D-05  0.14260200D-03 -0.14779212D-04 -0.21042790D-04
  0.35822002D-04 -0.22656899D-06  0.19743135D-06 -0.62800457D-04 -0.90346294D-04
 -0.16294326D-03 -0.24025975D-03  0.10235020D-02  0.68068723D-03  0.43485134D-05
 -0.49688622D-04  0.29954910D-04  0.33934722D-04  0.26319881D-03 -0.15490772D-03
 -0.43420099D-04  0.95406451D-04 -0.55171629D-04  0.75201890D-04 -0.17305090D-04
 -0.10089087D-03  0.11819596D-03 -0.14374123D-03  0.12315309D-03 -0.72303951D-04
 -0.19424163D-04 -0.16203553D-04  0.35627716D-04  0.51759308D-05 -0.54342287D-04
  0.31202724D-04 -0.90286262D-04 -0.16283499D-03 -0.24010010D-03  0.10224734D-02
  0.68805537D-03  0.41905385D-05  0.50346793D-04  0.27827572D-04  0.33116363D-04
 -0.26451863D-03 -0.14986624D-03 -0.42711824D-04 -0.96883440D-04 -0.55824466D-04
  0.76574521D-04 -0.17584969D-04 -0.10065389D-03  0.11823886D-03  0.14474927D-03
 -0.12393295D-03 -0.69900047D-04 -0.19491845D-04 -0.16451628D-04  0.35943473D-04
 -0.55433260D-05  0.54527583D-04  0.31744132D-04  0.91315427D-01  0.17084142D+00
  0.29517608D+00  0.47851511D+00  0.72667111D+00  0.10100045D+01  0.12008179D+01
  0.10697303D+01  0.53125070D+00  0.85526869D-01  0.90235898D-03  0.42753755D-03
  0.14261937D-01  0.49699995D-01  0.17897773D+00  0.39453413D+00  0.55537673D+00
 -0.26493280D-01 -0.72680689D+00 -0.42975637D+00  0.62781169D-05  0.76043327D-04
  0.15858034D-03  0.45478081D-03  0.23616134D-04 -0.19612354D-02 -0.50674557D-02
  0.41287244D-02 -0.28545612D-01  0.14182917D-02 -0.18172008D-03 -0.36695566D-04
 -0.48336644D-04 -0.53322885D-04 -0.44288831D-04 -0.23518598D-04 -0.60679213D-05
  0.42747723D-02  0.56308751D-02  0.62117367D-02  0.51593337D-02  0.27397494D-02
  0.70686965D-03  0.99145972D+01  0.13059844D+02  0.14407052D+02  0.11966185D+02
  0.63543762D+01  0.16394623D+01  0.21411321D-07 -0.20699088D-06 -0.29187874D-06
 -0.41746382D-06  0.21139780D-08  0.38285369D-06 -0.14515173D-06  0.14032335D-05
  0.19787057D-05  0.28300726D-05 -0.14331089D-07 -0.25954435D-05 -0.33686861D-03
  0.32566290D-02  0.45921868D-02  0.65680419D-02 -0.33259640D-04 -0.60235139D-02
 -0.80723017D-06  0.31282797D-04  0.72557030D-01  0.24865559D-06 -0.13276371D-06
 -0.30643192D-03 -0.47500096D-07 -0.18323005D-08 -0.39580481D-05  0.45444217D-03
  0.45444058D-03 -0.90888275D-03  0.75223375D-07  0.11031405D-05 -0.11709432D-05
 -0.30967276D-03 -0.30967220D-03  0.61934495D-03  0.49213560D-07 -0.65469149D-06
  0.79957149D-06  0.43303531D-05  0.43306032D-05 -0.86609564D-05  0.32230492D-07
 -0.21106265D-07 -0.11175289D-07 -0.12094924D-06 -0.14491217D-04 -0.46954175D-04
  0.40908540D-06  0.43597214D-04  0.70405590D-04 -0.46237689D-07 -0.12356364D-06
  0.70456935D-04  0.88766600D-06  0.21305311D-08  0.42120466D-05 -0.62584207D-04
 -0.15018576D-06 -0.12475056D-04  0.93884523D-04  0.14379416D-06 -0.16108375D-06
  0.93868097D-04 -0.40155088D-06 -0.63569734D-02 -0.11849409D-01 -0.20087389D-01