 Entering Gaussian System, Link 0=g09
 Input=GAUSSIAN-ZH_3.com
 Output=GAUSSIAN-ZH_3.log
 Initial command:
 /home/bruns/programas/chemistry/gaussian/g09/l1.exe /home/bruns/programas/chemistry/gaussian/work/Gau-17297.inp -scrdir=/home/bruns/programas/chemistry/gaussian/work/
 Entering Link 1 = /home/bruns/programas/chemistry/gaussian/g09/l1.exe PID=     17299.
  
 Copyright (c) 1988,1990,1992,1993,1995,1998,2003,2009,2010,
            Gaussian, Inc.  All Rights Reserved.
  
 This is part of the Gaussian(R) 09 program.  It is based on
 the Gaussian(R) 03 system (copyright 2003, Gaussian, Inc.),
 the Gaussian(R) 98 system (copyright 1998, Gaussian, Inc.),
 the Gaussian(R) 94 system (copyright 1995, Gaussian, Inc.),
 the Gaussian 92(TM) system (copyright 1992, Gaussian, Inc.),
 the Gaussian 90(TM) system (copyright 1990, Gaussian, Inc.),
 the Gaussian 88(TM) system (copyright 1988, Gaussian, Inc.),
 the Gaussian 86(TM) system (copyright 1986, Carnegie Mellon
 University), and the Gaussian 82(TM) system (copyright 1983,
 Carnegie Mellon University). Gaussian is a federally registered
 trademark of Gaussian, Inc.
  
 This software contains proprietary and confidential information,
 including trade secrets, belonging to Gaussian, Inc.
  
 This software is provided under written license and may be
 used, copied, transmitted, or stored only in accord with that
 written license.
  
 The following legend is applicable only to US Government
 contracts under FAR:
  
                    RESTRICTED RIGHTS LEGEND
  
 Use, reproduction and disclosure by the US Government is
 subject to restrictions as set forth in subparagraphs (a)
 and (c) of the Commercial Computer Software - Restricted
 Rights clause in FAR 52.227-19.
  
 Gaussian, Inc.
 340 Quinnipiac St., Bldg. 40, Wallingford CT 06492
  
  
 ---------------------------------------------------------------
 Warning -- This program may not be used in any manner that
 competes with the business of Gaussian, Inc. or will provide
 assistance to any competitor of Gaussian, Inc.  The licensee
 of this program is prohibited from giving any competitor of
 Gaussian, Inc. access to this program.  By using this program,
 the user acknowledges that Gaussian, Inc. is engaged in the
 business of creating and licensing software in the field of
 computational chemistry and represents and warrants to the
 licensee that it is not a competitor of Gaussian, Inc. and that
 it will not use this program in any manner prohibited above.
 ---------------------------------------------------------------
  

 Cite this work as:
 Gaussian 09, Revision B.01,
 M. J. Frisch, G. W. Trucks, H. B. Schlegel, G. E. Scuseria, 
 M. A. Robb, J. R. Cheeseman, G. Scalmani, V. Barone, B. Mennucci, 
 G. A. Petersson, H. Nakatsuji, M. Caricato, X. Li, H. P. Hratchian, 
 A. F. Izmaylov, J. Bloino, G. Zheng, J. L. Sonnenberg, M. Hada, 
 M. Ehara, K. Toyota, R. Fukuda, J. Hasegawa, M. Ishida, T. Nakajima, 
 Y. Honda, O. Kitao, H. Nakai, T. Vreven, J. A. Montgomery, Jr., 
 J. E. Peralta, F. Ogliaro, M. Bearpark, J. J. Heyd, E. Brothers, 
 K. N. Kudin, V. N. Staroverov, T. Keith, R. Kobayashi, J. Normand, 
 K. Raghavachari, A. Rendell, J. C. Burant, S. S. Iyengar, J. Tomasi, 
 M. Cossi, N. Rega, J. M. Millam, M. Klene, J. E. Knox, J. B. Cross, 
 V. Bakken, C. Adamo, J. Jaramillo, R. Gomperts, R. E. Stratmann, 
 O. Yazyev, A. J. Austin, R. Cammi, C. Pomelli, J. W. Ochterski, 
 R. L. Martin, K. Morokuma, V. G. Zakrzewski, G. A. Voth, 
 P. Salvador, J. J. Dannenberg, S. Dapprich, A. D. Daniels, 
 O. Farkas, J. B. Foresman, J. V. Ortiz, J. Cioslowski, 
 and D. J. Fox, Gaussian, Inc., Wallingford CT, 2010.
 
 ******************************************
 Gaussian 09:  EM64L-G09RevB.01 12-Aug-2010
                10-Aug-2021 
 ******************************************
 %nproc=8
 Will use up to    8 processors via shared memory.
 %mem=8GB
 -----------------------------------------------------
 # QCISD aug-cc-pvtz nosymm density=current output=wfn
 -----------------------------------------------------
 1/30=1,38=1/1;
 2/12=2,15=1,17=6,18=5,40=1/2;
 3/5=16,6=1,7=10,11=9,16=1,25=1,30=1,71=1/1,2,3;
 4//1;
 5/5=2,38=5/2;
 8/6=4,9=120000,10=1/1,4;
 9/5=8,15=1/13;
 11/28=-7,31=1,32=3,42=3/11;
 10/5=6,13=10,31=1/2;
 6/7=2,8=2,9=2,10=2,22=-1,31=1/1;
 99/5=1,6=1100,9=1/99;
 ----------
 title line
 ----------
 Symbolic Z-matrix:
 Charge = -1 Multiplicity = 1
 C                     0.00018   0.00003  -0.49771 
 H                     0.00002  -1.05257  -0.62073 
 H                    -0.91131   0.52637  -0.63125 
 H                     0.91175   0.52613  -0.62157 
 Cl                    0.00056   0.00096   1.64472 
 F                    -0.00019  -0.00092  -2.59346 
 
                          Input orientation:                          
 ---------------------------------------------------------------------
 Center     Atomic      Atomic             Coordinates (Angstroms)
 Number     Number       Type             X           Y           Z
 ---------------------------------------------------------------------
      1          6           0        0.000175    0.000029   -0.497709
      2          1           0        0.000019   -1.052570   -0.620726
      3          1           0       -0.911312    0.526365   -0.631245
      4          1           0        0.911750    0.526132   -0.621570
      5         17           0        0.000555    0.000962    1.644718
      6          9           0       -0.000186   -0.000921   -2.593460
 ---------------------------------------------------------------------
                    Distance matrix (angstroms):
                    1          2          3          4          5
     1  C    0.000000
     2  H    1.059763   0.000000
     3  H    1.060976   1.823094   0.000000
     4  H    1.059762   1.823062   1.823088   0.000000
     5  Cl   2.142427   2.498433   2.507500   2.498428   0.000000
     6  F    2.095751   2.235541   2.226762   2.235568   4.238178
                    6
     6  F    0.000000
 Symmetry turned off by external request.
 This structure is nearly, but not quite of a higher symmetry.
 Consider Symm=Loose if the higher symmetry is desired.
 Stoichiometry    CH3ClF(1-)
 Framework group  C1[X(CH3ClF)]
 Deg. of freedom    12
 Full point group                 C1      NOp   1
 Rotational constants (GHZ):    150.8790204      2.2146064      2.2146062
 Standard basis: Aug-CC-pVTZ (5D, 7F)
 Integral buffers will be    131072 words long.
 Raffenetti 1 integral format.
 Two-electron integral symmetry is turned off.
   211 basis functions,   339 primitive gaussians,   244 cartesian basis functions
    18 alpha electrons       18 beta electrons
       nuclear repulsion energy        84.9763631295 Hartrees.
 NAtoms=    6 NActive=    6 NUniq=    6 SFac= 1.00D+00 NAtFMM=   50 NAOKFM=F Big=F
 One-electron integrals computed using PRISM.
 NBasis=   211 RedAO= T  NBF=   211
 NBsUse=   211 1.00D-06 NBFU=   211
 Harris functional with IExCor=  205 diagonalized for initial guess.
 ExpMin= 2.53D-02 ExpMax= 4.56D+05 ExpMxC= 1.44D+03 IAcc=3 IRadAn=         0 AccDes= 0.00D+00
 HarFok:  IExCor=  205 AccDes= 0.00D+00 IRadAn=         0 IDoV= 1
 ScaDFX=  1.000000  1.000000  1.000000  1.000000
 FoFCou: FMM=F IPFlag=           0 FMFlag=      100000 FMFlg1=           0
         NFxFlg=           0 DoJE=T BraDBF=F KetDBF=T FulRan=T
         Omega=  0.000000  0.000000  1.000000  0.000000  0.000000 ICntrl=     500 IOpCl=  0
         NMat0=    1 NMatS0=    1 NMatT0=    0 NMatD0=    1 NMtDS0=    0 NMtDT0=    0
         I1Cent=           4 NGrid=           0.
 Symmetry not used in FoFCou.
 Requested convergence on RMS density matrix=1.00D-08 within 128 cycles.
 Requested convergence on MAX density matrix=1.00D-06.
 Requested convergence on             energy=1.00D-06.
 No special actions if energy rises.
 Keep R1 ints in memory in canonical form, NReq=454274131.
 SCF Done:  E(RHF) =  -598.617114815     A.U. after   12 cycles
             Convg  =    0.9359D-08             -V/T =  2.0001
 ExpMin= 2.53D-02 ExpMax= 4.56D+05 ExpMxC= 1.44D+03 IAcc=3 IRadAn=         5 AccDes= 0.00D+00
 HarFok:  IExCor=  205 AccDes= 0.00D+00 IRadAn=         5 IDoV=-2
 ScaDFX=  1.000000  1.000000  1.000000  1.000000
 DSYEVD returned Info=         101 IAlg= 4 N=    50 NDim=    50 NE2=    21472034 trying DSYEV.
 Range of M.O.s used for correlation:     8   211
 NBasis=   211 NAE=    18 NBE=    18 NFC=     7 NFV=     0
 NROrb=    204 NOA=    11 NOB=    11 NVA=   193 NVB=   193

 **** Warning!!: The largest alpha MO coefficient is  0.34631927D+02

 Semi-Direct transformation.
 ModeAB=           2 MOrb=            11 LenV=    1072528222
 LASXX=     44979418 LTotXX=    44979418 LenRXX=    44979418
 LTotAB=    45631872 MaxLAS=    67073160 LenRXY=    67073160
 NonZer=    89958836 LenScr=   135708672 LnRSAI=           0
 LnScr1=           0 LExtra=           0 Total=    247761250
 MaxDsk=          -1 SrtSym=           F ITran=            4
 JobTyp=0 Pass  1:  I=   1 to  11.
 (rs|ai) integrals will be sorted in core.
 Spin components of T(2) and E(2):
     alpha-alpha T2 =       0.2567470362D-01 E2=     -0.8208400471D-01
     alpha-beta  T2 =       0.1452772823D+00 E2=     -0.5099983627D+00
     beta-beta   T2 =       0.2567470362D-01 E2=     -0.8208400471D-01
 ANorm=    0.1093904333D+01
 E2 =    -0.6741663721D+00 EUMP2 =    -0.59929128118762D+03
 R2 and R3 integrals will be kept in memory, NReq=   900794930.
 Iterations=  50 Convergence= 0.100D-07
 Iteration Nr.   1
 **********************
 DD1Dir will call FoFMem   1 times, MxPair=       132
 NAB=    66 NAA=     0 NBB=     0.
 MP4(R+Q)=  0.14441165D-01
 E3=       -0.18708257D-01        EUMP3=      -0.59930998944D+03
 E4(DQ)=   -0.45178724D-03        UMP4(DQ)=   -0.59931044123D+03
 E4(SDQ)=  -0.98165501D-02        UMP4(SDQ)=  -0.59931980599D+03
 DE(Corr)= -0.67843346     E(Corr)=     -599.29554828    
 NORM(A)=   0.10997005D+01
 Iteration Nr.   2
 **********************
 DD1Dir will call FoFMem   1 times, MxPair=       132
 NAB=    66 NAA=     0 NBB=     0.
 DE(Corr)= -0.70063264     E(CORR)=     -599.31774746     Delta=-2.22D-02
 NORM(A)=   0.11070542D+01
 Iteration Nr.   3
 **********************
 DD1Dir will call FoFMem   1 times, MxPair=       132
 NAB=    66 NAA=     0 NBB=     0.
 DE(Corr)= -0.69823586     E(CORR)=     -599.31535067     Delta= 2.40D-03
 NORM(A)=   0.11110386D+01
 Iteration Nr.   4
 **********************
 DD1Dir will call FoFMem   1 times, MxPair=       132
 NAB=    66 NAA=     0 NBB=     0.
 DE(Corr)= -0.70129499     E(CORR)=     -599.31840980     Delta=-3.06D-03
 NORM(A)=   0.11131412D+01
 Iteration Nr.   5
 **********************
 DD1Dir will call FoFMem   1 times, MxPair=       132
 NAB=    66 NAA=     0 NBB=     0.
 DE(Corr)= -0.70189002     E(CORR)=     -599.31900483     Delta=-5.95D-04
 NORM(A)=   0.11141739D+01
 Iteration Nr.   6
 **********************
 DD1Dir will call FoFMem   1 times, MxPair=       132
 NAB=    66 NAA=     0 NBB=     0.
 DE(Corr)= -0.70203710     E(CORR)=     -599.31915192     Delta=-1.47D-04
 NORM(A)=   0.11145011D+01
 Iteration Nr.   7
 **********************
 DD1Dir will call FoFMem   1 times, MxPair=       132
 NAB=    66 NAA=     0 NBB=     0.
 DE(Corr)= -0.70206695     E(CORR)=     -599.31918176     Delta=-2.98D-05
 NORM(A)=   0.11145324D+01
 Iteration Nr.   8
 **********************
 DD1Dir will call FoFMem   1 times, MxPair=       132
 NAB=    66 NAA=     0 NBB=     0.
 DE(Corr)= -0.70208094     E(CORR)=     -599.31919575     Delta=-1.40D-05
 NORM(A)=   0.11145504D+01
 Iteration Nr.   9
 **********************
 DD1Dir will call FoFMem   1 times, MxPair=       132
 NAB=    66 NAA=     0 NBB=     0.
 DE(Corr)= -0.70205760     E(CORR)=     -599.31917241     Delta= 2.33D-05
 NORM(A)=   0.11145537D+01
 Iteration Nr.  10
 **********************
 DD1Dir will call FoFMem   1 times, MxPair=       132
 NAB=    66 NAA=     0 NBB=     0.
 DE(Corr)= -0.70207700     E(CORR)=     -599.31919181     Delta=-1.94D-05
 NORM(A)=   0.11145539D+01
 Iteration Nr.  11
 **********************
 DD1Dir will call FoFMem   1 times, MxPair=       132
 NAB=    66 NAA=     0 NBB=     0.
 DE(Corr)= -0.70206777     E(CORR)=     -599.31918258     Delta= 9.23D-06
 NORM(A)=   0.11145568D+01
 Iteration Nr.  12
 **********************
 DD1Dir will call FoFMem   1 times, MxPair=       132
 NAB=    66 NAA=     0 NBB=     0.
 DE(Corr)= -0.70207153     E(CORR)=     -599.31918635     Delta=-3.76D-06
 NORM(A)=   0.11145572D+01
 Iteration Nr.  13
 **********************
 DD1Dir will call FoFMem   1 times, MxPair=       132
 NAB=    66 NAA=     0 NBB=     0.
 DE(Corr)= -0.70207209     E(CORR)=     -599.31918691     Delta=-5.61D-07
 NORM(A)=   0.11145579D+01
 Iteration Nr.  14
 **********************
 DD1Dir will call FoFMem   1 times, MxPair=       132
 NAB=    66 NAA=     0 NBB=     0.
 DE(Corr)= -0.70207232     E(CORR)=     -599.31918713     Delta=-2.27D-07
 NORM(A)=   0.11145580D+01
 Iteration Nr.  15
 **********************
 DD1Dir will call FoFMem   1 times, MxPair=       132
 NAB=    66 NAA=     0 NBB=     0.
 DE(Corr)= -0.70207222     E(CORR)=     -599.31918704     Delta= 9.28D-08
 NORM(A)=   0.11145579D+01
 Iteration Nr.  16
 **********************
 DD1Dir will call FoFMem   1 times, MxPair=       132
 NAB=    66 NAA=     0 NBB=     0.
 DE(Corr)= -0.70207243     E(CORR)=     -599.31918724     Delta=-2.03D-07
 NORM(A)=   0.11145578D+01
 Iteration Nr.  17
 **********************
 DD1Dir will call FoFMem   1 times, MxPair=       132
 NAB=    66 NAA=     0 NBB=     0.
 DE(Corr)= -0.70207230     E(CORR)=     -599.31918711     Delta= 1.32D-07
 NORM(A)=   0.11145577D+01
 Iteration Nr.  18
 **********************
 DD1Dir will call FoFMem   1 times, MxPair=       132
 NAB=    66 NAA=     0 NBB=     0.
 DE(Corr)= -0.70207233     E(CORR)=     -599.31918715     Delta=-3.70D-08
 NORM(A)=   0.11145575D+01
 Iteration Nr.  19
 **********************
 DD1Dir will call FoFMem   1 times, MxPair=       132
 NAB=    66 NAA=     0 NBB=     0.
 DE(Corr)= -0.70207228     E(CORR)=     -599.31918709     Delta= 5.41D-08
 NORM(A)=   0.11145574D+01
 Iteration Nr.  20
 **********************
 DD1Dir will call FoFMem   1 times, MxPair=       132
 NAB=    66 NAA=     0 NBB=     0.
 DE(Corr)= -0.70207228     E(CORR)=     -599.31918710     Delta=-3.01D-09
 NORM(A)=   0.11145574D+01
 Iteration Nr.  21
 **********************
 DD1Dir will call FoFMem   1 times, MxPair=       132
 NAB=    66 NAA=     0 NBB=     0.
 DE(Corr)= -0.70207226     E(CORR)=     -599.31918708     Delta= 1.99D-08
 NORM(A)=   0.11145573D+01
 Iteration Nr.  22
 **********************
 DD1Dir will call FoFMem   1 times, MxPair=       132
 NAB=    66 NAA=     0 NBB=     0.
 DE(Corr)= -0.70207226     E(CORR)=     -599.31918707     Delta= 2.43D-09
 NORM(A)=   0.11145573D+01
 Iteration Nr.  23
 **********************
 DD1Dir will call FoFMem   1 times, MxPair=       132
 NAB=    66 NAA=     0 NBB=     0.
 DE(Corr)= -0.70207225     E(CORR)=     -599.31918707     Delta= 4.91D-09
 NORM(A)=   0.11145573D+01
 Iteration Nr.  24
 **********************
 DD1Dir will call FoFMem   1 times, MxPair=       132
 NAB=    66 NAA=     0 NBB=     0.
 DE(Corr)= -0.70207225     E(CORR)=     -599.31918707     Delta=-7.20D-10
 NORM(A)=   0.11145573D+01
 Iteration Nr.  25
 **********************
 DD1Dir will call FoFMem   1 times, MxPair=       132
 NAB=    66 NAA=     0 NBB=     0.
 DE(Corr)= -0.70207225     E(CORR)=     -599.31918706     Delta= 5.10D-09
 NORM(A)=   0.11145573D+01
 Iteration Nr.  26
 **********************
 DD1Dir will call FoFMem   1 times, MxPair=       132
 NAB=    66 NAA=     0 NBB=     0.
 DE(Corr)= -0.70207225     E(CORR)=     -599.31918707     Delta=-4.70D-09
 NORM(A)=   0.11145573D+01
 Iteration Nr.  27
 **********************
 DD1Dir will call FoFMem   1 times, MxPair=       132
 NAB=    66 NAA=     0 NBB=     0.
 DE(Corr)= -0.70207225     E(CORR)=     -599.31918706     Delta= 5.50D-09
 NORM(A)=   0.11145573D+01
 Iteration Nr.  28
 **********************
 DD1Dir will call FoFMem   1 times, MxPair=       132
 NAB=    66 NAA=     0 NBB=     0.
 DE(Corr)= -0.70207225     E(CORR)=     -599.31918707     Delta=-5.66D-09
 NORM(A)=   0.11145573D+01
 Iteration Nr.  29
 **********************
 DD1Dir will call FoFMem   1 times, MxPair=       132
 NAB=    66 NAA=     0 NBB=     0.
 DE(Corr)= -0.70207226     E(CORR)=     -599.31918708     Delta=-7.09D-09
 NORM(A)=   0.11145573D+01
 Iteration Nr.  30
 **********************
 DD1Dir will call FoFMem   1 times, MxPair=       132
 NAB=    66 NAA=     0 NBB=     0.
 DE(Corr)= -0.70207226     E(CORR)=     -599.31918707     Delta= 5.06D-09
 NORM(A)=   0.11145573D+01
 Iteration Nr.  31
 **********************
 DD1Dir will call FoFMem   1 times, MxPair=       132
 NAB=    66 NAA=     0 NBB=     0.
 DE(Corr)= -0.70207225     E(CORR)=     -599.31918707     Delta= 4.81D-09
 NORM(A)=   0.11145573D+01
 Largest amplitude= 6.60D-02

 Z-AMPLITUDE ITERATIONS

 Iteration Nr.   1
 **********************
 DD1Dir will call FoFMem   1 times, MxPair=       132
 NAB=    66 NAA=     0 NBB=     0.
 DE(Z)  -0.68267620D+00          E(Z)=    -0.59929979102D+03
 NORM(A)=   0.11143342D+01
 Iteration Nr.   2
 **********************
 DD1Dir will call FoFMem   1 times, MxPair=       132
 NAB=    66 NAA=     0 NBB=     0.
 DE(Z)  -0.68265170D+00          E(Z)=    -0.59929976651D+03
 NORM(A)=   0.11149776D+01
 Iteration Nr.   3
 **********************
 DD1Dir will call FoFMem   1 times, MxPair=       132
 NAB=    66 NAA=     0 NBB=     0.
 DE(Z)  -0.68271613D+00          E(Z)=    -0.59929983094D+03
 NORM(A)=   0.11137416D+01
 Iteration Nr.   4
 **********************
 DD1Dir will call FoFMem   1 times, MxPair=       132
 NAB=    66 NAA=     0 NBB=     0.
 DE(Z)  -0.68259452D+00          E(Z)=    -0.59929970933D+03
 NORM(A)=   0.10951655D+01
 Iteration Nr.   5
 **********************
 DD1Dir will call FoFMem   1 times, MxPair=       132
 NAB=    66 NAA=     0 NBB=     0.
 DE(Z)  -0.68065121D+00          E(Z)=    -0.59929776603D+03
 NORM(A)=   0.11079002D+01
 Iteration Nr.   6
 **********************
 DD1Dir will call FoFMem   1 times, MxPair=       132
 NAB=    66 NAA=     0 NBB=     0.
 DE(Z)  -0.68200691D+00          E(Z)=    -0.59929912173D+03
 NORM(A)=   0.11078935D+01
 Iteration Nr.   7
 **********************
 DD1Dir will call FoFMem   1 times, MxPair=       132
 NAB=    66 NAA=     0 NBB=     0.
 DE(Z)  -0.68200873D+00          E(Z)=    -0.59929912355D+03
 NORM(A)=   0.11078889D+01
 Iteration Nr.   8
 **********************
 DD1Dir will call FoFMem   1 times, MxPair=       132
 NAB=    66 NAA=     0 NBB=     0.
 DE(Z)  -0.68200794D+00          E(Z)=    -0.59929912276D+03
 NORM(A)=   0.11078864D+01
 Iteration Nr.   9
 **********************
 DD1Dir will call FoFMem   1 times, MxPair=       132
 NAB=    66 NAA=     0 NBB=     0.
 DE(Z)  -0.68200678D+00          E(Z)=    -0.59929912159D+03
 NORM(A)=   0.11078851D+01
 Iteration Nr.  10
 **********************
 DD1Dir will call FoFMem   1 times, MxPair=       132
 NAB=    66 NAA=     0 NBB=     0.
 DE(Z)  -0.68200734D+00          E(Z)=    -0.59929912215D+03
 NORM(A)=   0.11078847D+01
 Iteration Nr.  11
 **********************
 DD1Dir will call FoFMem   1 times, MxPair=       132
 NAB=    66 NAA=     0 NBB=     0.
 DE(Z)  -0.68200726D+00          E(Z)=    -0.59929912208D+03
 NORM(A)=   0.11078846D+01
 Iteration Nr.  12
 **********************
 DD1Dir will call FoFMem   1 times, MxPair=       132
 NAB=    66 NAA=     0 NBB=     0.
 DE(Z)  -0.68200711D+00          E(Z)=    -0.59929912192D+03
 NORM(A)=   0.11078847D+01
 Iteration Nr.  13
 **********************
 DD1Dir will call FoFMem   1 times, MxPair=       132
 NAB=    66 NAA=     0 NBB=     0.
 DE(Z)  -0.68200725D+00          E(Z)=    -0.59929912206D+03
 NORM(A)=   0.11078847D+01
 Iteration Nr.  14
 **********************
 DD1Dir will call FoFMem   1 times, MxPair=       132
 NAB=    66 NAA=     0 NBB=     0.
 DE(Z)  -0.68200724D+00          E(Z)=    -0.59929912206D+03
 NORM(A)=   0.11078847D+01
 Iteration Nr.  15
 **********************
 DD1Dir will call FoFMem   1 times, MxPair=       132
 NAB=    66 NAA=     0 NBB=     0.
 DE(Z)  -0.68200723D+00          E(Z)=    -0.59929912205D+03
 NORM(A)=   0.11078847D+01
 Iteration Nr.  16
 **********************
 DD1Dir will call FoFMem   1 times, MxPair=       132
 NAB=    66 NAA=     0 NBB=     0.
 DE(Z)  -0.68200725D+00          E(Z)=    -0.59929912206D+03
 NORM(A)=   0.11078847D+01
 Iteration Nr.  17
 **********************
 DD1Dir will call FoFMem   1 times, MxPair=       132
 NAB=    66 NAA=     0 NBB=     0.
 DE(Z)  -0.68200725D+00          E(Z)=    -0.59929912207D+03
 NORM(A)=   0.11078847D+01
 Iteration Nr.  18
 **********************
 DD1Dir will call FoFMem   1 times, MxPair=       132
 NAB=    66 NAA=     0 NBB=     0.
 DE(Z)  -0.68200725D+00          E(Z)=    -0.59929912206D+03
 NORM(A)=   0.11078847D+01
 Iteration Nr.  19
 **********************
 DD1Dir will call FoFMem   1 times, MxPair=       132
 NAB=    66 NAA=     0 NBB=     0.
 DE(Z)  -0.68200725D+00          E(Z)=    -0.59929912206D+03
 NORM(A)=   0.11078847D+01
 Iteration Nr.  20
 **********************
 DD1Dir will call FoFMem   1 times, MxPair=       132
 NAB=    66 NAA=     0 NBB=     0.
 DE(Z)  -0.68200725D+00          E(Z)=    -0.59929912206D+03
 NORM(A)=   0.11078847D+01
 Discarding MO integrals.
          Differentiating once with respect to electric field.
                with respect to dipole field.
          Electric field/nuclear overlap derivatives assumed to be zero.
          Keep R1 ints in memory in canonical form, NReq=448662239.
          There are     1 degrees of freedom in the 1st order CPHF.  IDoFFX=0.
 LinEq1:  Iter=  0 NonCon=     1 RMS=3.11D-03 Max=1.20D-01
 AX will form     1 AO Fock derivatives at one time.
 LinEq1:  Iter=  1 NonCon=     1 RMS=6.94D-04 Max=9.45D-03
 LinEq1:  Iter=  2 NonCon=     1 RMS=2.29D-04 Max=5.73D-03
 LinEq1:  Iter=  3 NonCon=     1 RMS=9.48D-05 Max=1.45D-03
 LinEq1:  Iter=  4 NonCon=     1 RMS=3.84D-05 Max=4.10D-04
 LinEq1:  Iter=  5 NonCon=     1 RMS=1.06D-05 Max=2.27D-04
 LinEq1:  Iter=  6 NonCon=     1 RMS=2.42D-06 Max=4.23D-05
 LinEq1:  Iter=  7 NonCon=     1 RMS=6.07D-07 Max=9.17D-06
 LinEq1:  Iter=  8 NonCon=     1 RMS=1.50D-07 Max=1.80D-06
 LinEq1:  Iter=  9 NonCon=     1 RMS=3.04D-08 Max=7.48D-07
 LinEq1:  Iter= 10 NonCon=     1 RMS=6.55D-09 Max=8.90D-08
 LinEq1:  Iter= 11 NonCon=     1 RMS=1.05D-09 Max=1.16D-08
 LinEq1:  Iter= 12 NonCon=     1 RMS=1.69D-10 Max=2.86D-09
 LinEq1:  Iter= 13 NonCon=     0 RMS=2.41D-11 Max=3.22D-10
 Linear equations converged to 1.000D-10 1.000D-09 after    13 iterations.
 End of Minotr Frequency-dependent properties file   721 does not exist.
 End of Minotr Frequency-dependent properties file   722 does not exist.

 **********************************************************************

            Population analysis using the QCI/CC density.

 **********************************************************************

     Natural Orbital Coefficients:
                           1         2         3         4         5
     Eigenvalues --     2.00003   2.00003   2.00002   2.00001   2.00001
   1 1   C  1S          0.00000  -0.00017  -0.04338   0.07940   0.97626
   2        2S          0.00000  -0.00001   0.00131   0.00051  -0.01332
   3        3S          0.00000  -0.00001  -0.00132   0.00396   0.03984
   4        4S          0.00000   0.00021  -0.01259  -0.02352   0.00332
   5        5S          0.00000   0.00002  -0.00119  -0.00059  -0.00058
   6        6PX         0.00003   0.00004   0.00000   0.00000   0.00000
   7        6PY         0.00004  -0.00002   0.00000   0.00000   0.00000
   8        6PZ         0.00000   0.00000   0.00053   0.00168   0.00088
   9        7PX         0.00042   0.00072   0.00000   0.00000   0.00000
  10        7PY         0.00073  -0.00042   0.00000   0.00000   0.00000
  11        7PZ         0.00000   0.00000   0.00141   0.00305  -0.00092
  12        8PX         0.00227   0.00392  -0.00003  -0.00005   0.00000
  13        8PY         0.00393  -0.00226   0.00001   0.00003   0.00000
  14        8PZ         0.00000   0.00007  -0.00370  -0.00406  -0.00313
  15        9PX         0.00021   0.00037   0.00000   0.00000   0.00000
  16        9PY         0.00037  -0.00021   0.00000   0.00000   0.00000
  17        9PZ         0.00000   0.00000   0.00021   0.00017  -0.00049
  18       10D 0        0.00000   0.00000   0.00011   0.00033  -0.00057
  19       10D+1       -0.00008  -0.00013   0.00000   0.00000   0.00001
  20       10D-1       -0.00013   0.00008   0.00000   0.00000   0.00000
  21       10D+2        0.00003  -0.00002   0.00000   0.00000   0.00000
  22       10D-2        0.00002   0.00003   0.00000   0.00000   0.00000
  23       11D 0        0.00000  -0.00001   0.00021  -0.00010  -0.00031
  24       11D+1        0.00013   0.00020  -0.00001  -0.00002  -0.00001
  25       11D-1        0.00022  -0.00012   0.00000   0.00001   0.00001
  26       11D+2        0.00086  -0.00050   0.00000   0.00000   0.00000
  27       11D-2        0.00050   0.00086   0.00000   0.00000   0.00000
  28       12D 0        0.00000   0.00000  -0.00078   0.00124  -0.00235
  29       12D+1       -0.00066  -0.00115  -0.00001  -0.00002   0.00001
  30       12D-1       -0.00113   0.00067   0.00000   0.00001  -0.00001
  31       12D+2        0.00138  -0.00080   0.00001   0.00001   0.00000
  32       12D-2        0.00080   0.00138  -0.00001  -0.00002   0.00000
  33       13F 0        0.00000   0.00000   0.00001   0.00003   0.00020
  34       13F+1       -0.00010  -0.00016   0.00000   0.00000   0.00000
  35       13F-1       -0.00017   0.00009   0.00000   0.00000   0.00000
  36       13F+2        0.00001  -0.00001   0.00000   0.00000   0.00000
  37       13F-2        0.00001   0.00001   0.00000   0.00000   0.00000
  38       13F+3        0.00000   0.00000   0.00000   0.00000   0.00000
  39       13F-3        0.00000   0.00000  -0.00006   0.00007   0.00090
  40       14F 0        0.00000   0.00001  -0.00112  -0.00215  -0.00020
  41       14F+1        0.00029   0.00049   0.00000   0.00001   0.00000
  42       14F-1        0.00050  -0.00029   0.00000  -0.00001   0.00000
  43       14F+2        0.00030  -0.00017   0.00000   0.00001   0.00001
  44       14F-2        0.00017   0.00029   0.00000  -0.00001  -0.00002
  45       14F+3        0.00000   0.00000   0.00000   0.00000   0.00000
  46       14F-3        0.00000   0.00002  -0.00086  -0.00134  -0.00188
  47 2   H  1S         -0.00014   0.00008  -0.00002  -0.00036  -0.00135
  48        2S          0.00102  -0.00063   0.00244   0.00330  -0.00072
  49        3S          0.00748  -0.00435   0.00185   0.00534  -0.00438
  50        4S         -0.00023   0.00013   0.00011   0.00010  -0.00014
  51        5PX         0.00000   0.00000   0.00000   0.00000   0.00000
  52        5PY         0.00003  -0.00002   0.00004  -0.00003  -0.00048
  53        5PZ         0.00001  -0.00001   0.00001   0.00002  -0.00009
  54        6PX         0.00009   0.00016   0.00000   0.00000   0.00000
  55        6PY         0.00057  -0.00033   0.00046   0.00069  -0.00081
  56        6PZ         0.00054  -0.00031  -0.00001  -0.00010   0.00025
  57        7PX         0.00045   0.00078  -0.00001  -0.00001   0.00000
  58        7PY         0.00181  -0.00105   0.00054   0.00136  -0.00103
  59        7PZ         0.00023  -0.00013   0.00047   0.00093  -0.00006
  60        8D 0        0.00003  -0.00002   0.00001   0.00006   0.00014
  61        8D+1       -0.00001  -0.00001   0.00000   0.00000   0.00000
  62        8D-1        0.00008  -0.00005   0.00002   0.00005  -0.00004
  63        8D+2       -0.00004   0.00002  -0.00004  -0.00005   0.00028
  64        8D-2        0.00000   0.00001   0.00000   0.00000   0.00000
  65        9D 0        0.00034  -0.00020   0.00015   0.00025   0.00062
  66        9D+1        0.00013   0.00021   0.00000   0.00000  -0.00001
  67        9D-1        0.00011  -0.00006  -0.00014  -0.00025   0.00001
  68        9D+2       -0.00011   0.00006   0.00001   0.00003  -0.00010
  69        9D-2        0.00006   0.00010   0.00000   0.00000   0.00000
  70 3   H  1S          0.00000  -0.00016  -0.00002  -0.00035  -0.00134
  71        2S          0.00000   0.00113   0.00243   0.00331  -0.00071
  72        3S          0.00000   0.00859   0.00176   0.00518  -0.00438
  73        4S          0.00000  -0.00026   0.00011   0.00008  -0.00013
  74        5PX         0.00000   0.00003   0.00004  -0.00002  -0.00041
  75        5PY         0.00000  -0.00002  -0.00002   0.00001   0.00024
  76        5PZ         0.00000   0.00001   0.00001   0.00001  -0.00009
  77        6PX         0.00009   0.00056   0.00040   0.00061  -0.00070
  78        6PY         0.00016  -0.00032  -0.00023  -0.00035   0.00040
  79        6PZ         0.00000   0.00060   0.00000  -0.00010   0.00022
  80        7PX         0.00045   0.00180   0.00045   0.00115  -0.00089
  81        7PY         0.00078  -0.00104  -0.00026  -0.00066   0.00051
  82        7PZ         0.00000   0.00026   0.00046   0.00091  -0.00008
  83        8D 0        0.00000   0.00004   0.00001   0.00006   0.00014
  84        8D+1       -0.00001   0.00008   0.00002   0.00004  -0.00004
  85        8D-1       -0.00001  -0.00005  -0.00001  -0.00002   0.00002
  86        8D+2        0.00001   0.00002   0.00002   0.00003  -0.00014
  87        8D-2        0.00000  -0.00004  -0.00004  -0.00005   0.00024
  88        9D 0        0.00000   0.00039   0.00015   0.00024   0.00062
  89        9D+1        0.00013   0.00011  -0.00012  -0.00022   0.00000
  90        9D-1        0.00022  -0.00006   0.00007   0.00013   0.00000
  91        9D+2        0.00010   0.00006   0.00000  -0.00001   0.00005
  92        9D-2        0.00006  -0.00011   0.00001   0.00002  -0.00008
  93 4   H  1S          0.00014   0.00008  -0.00002  -0.00036  -0.00135
  94        2S         -0.00102  -0.00063   0.00244   0.00330  -0.00072
  95        3S         -0.00748  -0.00435   0.00185   0.00534  -0.00438
  96        4S          0.00023   0.00013   0.00011   0.00010  -0.00014
  97        5PX         0.00002   0.00002  -0.00004   0.00002   0.00042
  98        5PY         0.00002   0.00001  -0.00002   0.00001   0.00024
  99        5PZ        -0.00001  -0.00001   0.00001   0.00002  -0.00009
 100        6PX         0.00045   0.00037  -0.00039  -0.00060   0.00070
 101        6PY         0.00036   0.00003  -0.00023  -0.00035   0.00040
 102        6PZ        -0.00054  -0.00031  -0.00001  -0.00010   0.00025
 103        7PX         0.00134   0.00130  -0.00047  -0.00118   0.00089
 104        7PY         0.00129  -0.00015  -0.00026  -0.00067   0.00051
 105        7PZ        -0.00023  -0.00013   0.00047   0.00093  -0.00006
 106        8D 0       -0.00003  -0.00002   0.00001   0.00006   0.00014
 107        8D+1        0.00007   0.00003  -0.00002  -0.00004   0.00003
 108        8D-1        0.00003   0.00004  -0.00001  -0.00002   0.00002
 109        8D+2       -0.00002  -0.00002   0.00002   0.00003  -0.00014
 110        8D-2       -0.00004  -0.00002   0.00004   0.00005  -0.00024
 111        9D 0       -0.00034  -0.00020   0.00015   0.00025   0.00062
 112        9D+1        0.00003   0.00016   0.00012   0.00022  -0.00001
 113        9D-1        0.00016  -0.00016   0.00007   0.00013   0.00000
 114        9D+2       -0.00001  -0.00012   0.00000  -0.00001   0.00005
 115        9D-2       -0.00012  -0.00001  -0.00001  -0.00002   0.00008
 116 5   Cl 1S          0.00000   0.00001  -0.25074   0.14777  -0.02270
 117        2S          0.00000  -0.00003   0.84640  -0.49951   0.07781
 118        3S          0.00000   0.00001  -0.02310   0.00931  -0.00238
 119        4S          0.00000   0.00000   0.06658  -0.04070   0.00639
 120        5S          0.00000  -0.00003  -0.00213   0.00774   0.00351
 121        6S          0.00000   0.00000  -0.00154  -0.00214   0.00301
 122        7PX         0.48973   0.84755   0.00107   0.00176   0.00005
 123        7PY         0.84755  -0.48973  -0.00035  -0.00057  -0.00005
 124        7PZ        -0.00046  -0.00211   0.50005   0.83642  -0.04641
 125        8PX        -0.00958  -0.01658  -0.00002  -0.00002   0.00000
 126        8PY        -0.01658   0.00958   0.00000   0.00001   0.00000
 127        8PZ         0.00001   0.00005  -0.00876  -0.01403   0.00010
 128        9PX         0.02618   0.04531   0.00006   0.00010   0.00000
 129        9PY         0.04531  -0.02618  -0.00002  -0.00003   0.00000
 130        9PZ        -0.00002  -0.00012   0.02839   0.04957  -0.00263
 131       10PX        -0.00289  -0.00500  -0.00001  -0.00001  -0.00001
 132       10PY        -0.00500   0.00289   0.00000   0.00000   0.00000
 133       10PZ         0.00000   0.00003  -0.00433  -0.00273  -0.00347
 134       11PX        -0.00107  -0.00186   0.00000   0.00000   0.00000
 135       11PY        -0.00186   0.00107   0.00000   0.00000   0.00000
 136       11PZ         0.00000   0.00000  -0.00036  -0.00014  -0.00053
 137       12D 0        0.00000   0.00000   0.00001  -0.00051  -0.00017
 138       12D+1       -0.00016  -0.00028   0.00000   0.00000   0.00000
 139       12D-1       -0.00028   0.00016   0.00000   0.00000   0.00000
 140       12D+2        0.00001   0.00000   0.00000   0.00000   0.00000
 141       12D-2        0.00000   0.00001   0.00000   0.00000   0.00000
 142       13D 0        0.00000  -0.00001   0.00087   0.00244   0.00042
 143       13D+1        0.00041   0.00070   0.00000   0.00000   0.00000
 144       13D-1        0.00070  -0.00040   0.00000   0.00000   0.00000
 145       13D+2       -0.00002   0.00001   0.00000   0.00000   0.00000
 146       13D-2       -0.00001  -0.00002   0.00000   0.00000   0.00000
 147       14D 0        0.00000   0.00000   0.00058  -0.00018   0.00080
 148       14D+1       -0.00036  -0.00062   0.00000   0.00000   0.00001
 149       14D-1       -0.00062   0.00036   0.00000   0.00000   0.00000
 150       14D+2        0.00002  -0.00001   0.00000   0.00000   0.00000
 151       14D-2        0.00001   0.00002   0.00000   0.00000   0.00000
 152       15F 0        0.00000   0.00000   0.00001  -0.00007  -0.00003
 153       15F+1        0.00000   0.00000   0.00000   0.00000   0.00000
 154       15F-1       -0.00001   0.00000   0.00000   0.00000   0.00000
 155       15F+2        0.00002  -0.00001   0.00000   0.00000   0.00000
 156       15F-2        0.00001   0.00002   0.00000   0.00000   0.00000
 157       15F+3        0.00000   0.00000   0.00000   0.00000   0.00000
 158       15F-3        0.00000   0.00000   0.00001   0.00003   0.00000
 159       16F 0        0.00000   0.00000  -0.00031  -0.00059  -0.00032
 160       16F+1       -0.00011  -0.00019   0.00000   0.00000   0.00000
 161       16F-1       -0.00019   0.00011   0.00000   0.00000   0.00000
 162       16F+2       -0.00003   0.00002   0.00000   0.00000   0.00000
 163       16F-2       -0.00002  -0.00003   0.00000   0.00000   0.00000
 164       16F+3        0.00000   0.00000   0.00000   0.00000   0.00000
 165       16F-3        0.00000   0.00000  -0.00002  -0.00005   0.00002
 166 6   F  1S          0.00000   0.00000  -0.00145  -0.01046  -0.04986
 167        2S          0.00000   0.00000   0.00020   0.00043   0.00081
 168        3S          0.00000   0.00000  -0.00007  -0.00045  -0.00203
 169        4S          0.00000   0.00000  -0.00054  -0.00105   0.00055
 170        5S          0.00000  -0.00001   0.00011  -0.00169   0.00176
 171        6PX        -0.00002  -0.00004   0.00000   0.00000   0.00000
 172        6PY        -0.00004   0.00002   0.00000   0.00000   0.00000
 173        6PZ         0.00000   0.00000   0.00058   0.00111   0.00011
 174        7PX         0.00000  -0.00001   0.00000   0.00000   0.00000
 175        7PY        -0.00001   0.00000   0.00000   0.00000   0.00000
 176        7PZ         0.00000   0.00000   0.00069   0.00132   0.00002
 177        8PX        -0.00012  -0.00021   0.00000   0.00000   0.00000
 178        8PY        -0.00021   0.00012   0.00000   0.00000   0.00000
 179        8PZ         0.00000   0.00000   0.00008   0.00017   0.00047
 180        9PX        -0.00018  -0.00031   0.00000   0.00000   0.00000
 181        9PY        -0.00031   0.00018   0.00000   0.00000   0.00000
 182        9PZ         0.00000   0.00000   0.00017  -0.00009   0.00071
 183       10D 0        0.00000   0.00000   0.00001   0.00001  -0.00002
 184       10D+1        0.00000  -0.00001   0.00000   0.00000   0.00000
 185       10D-1       -0.00001   0.00000   0.00000   0.00000   0.00000
 186       10D+2        0.00001   0.00000   0.00000   0.00000   0.00000
 187       10D-2        0.00000   0.00001   0.00000   0.00000   0.00000
 188       11D 0        0.00000   0.00000  -0.00003  -0.00010   0.00001
 189       11D+1        0.00002   0.00004   0.00000   0.00000   0.00000
 190       11D-1        0.00004  -0.00002   0.00000   0.00000   0.00000
 191       11D+2       -0.00003   0.00002   0.00000   0.00000   0.00000
 192       11D-2       -0.00002  -0.00003   0.00000   0.00000   0.00000
 193       12D 0        0.00000   0.00000  -0.00019  -0.00012   0.00011
 194       12D+1       -0.00011  -0.00019   0.00000   0.00000   0.00000
 195       12D-1       -0.00019   0.00011   0.00000   0.00000   0.00000
 196       12D+2        0.00009  -0.00006   0.00000   0.00000   0.00000
 197       12D-2        0.00005   0.00010   0.00000   0.00000   0.00000
 198       13F 0        0.00000   0.00000   0.00001  -0.00001  -0.00004
 199       13F+1        0.00001   0.00002   0.00000   0.00000   0.00000
 200       13F-1        0.00002  -0.00001   0.00000   0.00000   0.00000
 201       13F+2       -0.00001   0.00001   0.00000   0.00000   0.00000
 202       13F-2       -0.00001  -0.00001   0.00000   0.00000   0.00000
 203       13F+3        0.00000   0.00000   0.00000   0.00000   0.00000
 204       13F-3        0.00000   0.00000   0.00000   0.00000   0.00000
 205       14F 0        0.00000   0.00000  -0.00004   0.00002   0.00013
 206       14F+1       -0.00003  -0.00005   0.00000   0.00000   0.00000
 207       14F-1       -0.00005   0.00003   0.00000   0.00000   0.00000
 208       14F+2        0.00004  -0.00002   0.00000   0.00000   0.00000
 209       14F-2        0.00002   0.00004   0.00000   0.00000   0.00000
 210       14F+3        0.00000   0.00000   0.00000   0.00000   0.00000
 211       14F-3        0.00000   0.00000   0.00000  -0.00001  -0.00001
                           6         7         8         9        10
     Eigenvalues --     2.00000   2.00000   1.98361   1.97542   1.96949
   1 1   C  1S          0.05048  -0.00046   0.01543  -0.07325  -0.14370
   2        2S         -0.00013  -0.00001  -0.04203   0.19877   0.39720
   3        3S          0.00230  -0.00003  -0.01040   0.04611   0.09610
   4        4S         -0.00682   0.00016   0.00537   0.07893   0.19082
   5        5S         -0.00014   0.00010   0.00780  -0.00689  -0.02881
   6        6PX         0.00000   0.00000   0.00003   0.00026   0.00031
   7        6PY         0.00000   0.00000  -0.00002  -0.00014  -0.00019
   8        6PZ         0.00004   0.00000   0.00651   0.01020  -0.02762
   9        7PX        -0.00001   0.00000   0.00010   0.00028   0.00037
  10        7PY         0.00001   0.00000  -0.00005  -0.00015  -0.00023
  11        7PZ        -0.00075   0.00000   0.00711   0.01774  -0.03295
  12        8PX        -0.00001   0.00000   0.00022   0.00011   0.00012
  13        8PY         0.00001   0.00000  -0.00012  -0.00006  -0.00008
  14        8PZ         0.00520   0.00009   0.01668   0.00583  -0.02290
  15        9PX         0.00000   0.00000   0.00001   0.00001   0.00000
  16        9PY         0.00000   0.00000   0.00000  -0.00001  -0.00001
  17        9PZ         0.00011   0.00001  -0.00070   0.00035  -0.00404
  18       10D 0        0.00004   0.00000   0.00051  -0.00212  -0.00954
  19       10D+1        0.00000   0.00000  -0.00001   0.00004   0.00008
  20       10D-1        0.00000   0.00000   0.00001  -0.00002  -0.00006
  21       10D+2        0.00000   0.00000   0.00000  -0.00001  -0.00002
  22       10D-2        0.00000   0.00000   0.00000   0.00002   0.00003
  23       11D 0       -0.00024  -0.00002  -0.00528   0.00466  -0.01874
  24       11D+1        0.00000   0.00000  -0.00007   0.00008   0.00021
  25       11D-1        0.00000   0.00000   0.00003  -0.00004  -0.00014
  26       11D+2        0.00001   0.00000  -0.00004  -0.00002  -0.00001
  27       11D-2       -0.00001   0.00000   0.00007   0.00003   0.00002
  28       12D 0        0.00028   0.00008   0.00202  -0.00842  -0.01659
  29       12D+1       -0.00001   0.00000   0.00000  -0.00001   0.00002
  30       12D-1        0.00000   0.00000   0.00000   0.00000  -0.00003
  31       12D+2        0.00001   0.00000  -0.00005   0.00001   0.00003
  32       12D-2       -0.00001   0.00000   0.00008  -0.00002  -0.00005
  33       13F 0       -0.00007   0.00000   0.00000   0.00244   0.00067
  34       13F+1        0.00000   0.00000   0.00000  -0.00001  -0.00001
  35       13F-1        0.00000   0.00000   0.00000   0.00001   0.00001
  36       13F+2        0.00000   0.00000   0.00000  -0.00001  -0.00002
  37       13F-2        0.00000   0.00000  -0.00001   0.00002   0.00003
  38       13F+3        0.00000   0.00000   0.00000   0.00000   0.00000
  39       13F-3        0.00001   0.00000  -0.00014   0.00194   0.00397
  40       14F 0        0.00127  -0.00001   0.00473   0.00259  -0.00202
  41       14F+1        0.00000   0.00000   0.00001  -0.00002  -0.00002
  42       14F-1        0.00000   0.00000   0.00000   0.00001   0.00001
  43       14F+2        0.00000   0.00000   0.00002  -0.00001  -0.00004
  44       14F-2        0.00000   0.00000  -0.00004   0.00003   0.00006
  45       14F+3        0.00000   0.00000   0.00000   0.00000   0.00000
  46       14F-3       -0.00042   0.00003   0.00185  -0.00102   0.00406
  47 2   H  1S         -0.00008   0.00000  -0.00857   0.03720   0.08063
  48        2S          0.00095  -0.00006  -0.01532   0.04385   0.08382
  49        3S          0.00179   0.00004  -0.00106  -0.00489  -0.01196
  50        4S          0.00003   0.00000  -0.00047   0.00050   0.00039
  51        5PX         0.00000   0.00000   0.00000   0.00000   0.00000
  52        5PY         0.00001   0.00000  -0.00109   0.00399   0.00864
  53        5PZ        -0.00004   0.00000   0.00028   0.00095   0.00034
  54        6PX         0.00000   0.00000   0.00003   0.00001   0.00000
  55        6PY         0.00007   0.00000  -0.00075   0.00081   0.00120
  56        6PZ         0.00032  -0.00001   0.00011   0.00240  -0.00058
  57        7PX        -0.00001   0.00000   0.00005  -0.00002  -0.00003
  58        7PY         0.00043   0.00001   0.00131  -0.00497  -0.01035
  59        7PZ        -0.00055   0.00001  -0.00282  -0.00175  -0.00134
  60        8D 0        0.00006   0.00000   0.00014  -0.00035  -0.00091
  61        8D+1        0.00000   0.00000   0.00000   0.00000   0.00000
  62        8D-1       -0.00001   0.00000  -0.00014   0.00049   0.00023
  63        8D+2       -0.00002   0.00000   0.00003  -0.00054  -0.00137
  64        8D-2        0.00000   0.00000   0.00000   0.00000   0.00000
  65        9D 0        0.00008  -0.00001  -0.00005   0.00122   0.00099
  66        9D+1        0.00000   0.00000  -0.00001   0.00000   0.00001
  67        9D-1        0.00014   0.00000  -0.00005   0.00003  -0.00040
  68        9D+2        0.00004   0.00000  -0.00098   0.00225   0.00416
  69        9D-2        0.00000   0.00000   0.00001   0.00000   0.00000
  70 3   H  1S         -0.00008   0.00000  -0.00865   0.03681   0.08034
  71        2S          0.00092  -0.00006  -0.01519   0.04344   0.08358
  72        3S          0.00177   0.00004  -0.00043  -0.00485  -0.01209
  73        4S          0.00003   0.00000  -0.00045   0.00053   0.00038
  74        5PX         0.00001   0.00000  -0.00094   0.00341   0.00745
  75        5PY        -0.00001   0.00000   0.00055  -0.00197  -0.00430
  76        5PZ        -0.00004   0.00000   0.00027   0.00098   0.00042
  77        6PX         0.00005   0.00000  -0.00059   0.00068   0.00108
  78        6PY        -0.00003   0.00000   0.00034  -0.00039  -0.00062
  79        6PZ         0.00032  -0.00001  -0.00003   0.00250  -0.00042
  80        7PX         0.00037   0.00001   0.00127  -0.00425  -0.00890
  81        7PY        -0.00021   0.00000  -0.00073   0.00245   0.00514
  82        7PZ        -0.00055   0.00001  -0.00283  -0.00178  -0.00141
  83        8D 0        0.00006   0.00000   0.00015  -0.00034  -0.00091
  84        8D+1       -0.00001   0.00000  -0.00014   0.00044   0.00023
  85        8D-1        0.00000   0.00000   0.00008  -0.00025  -0.00013
  86        8D+2        0.00001   0.00000  -0.00001   0.00027   0.00068
  87        8D-2       -0.00001   0.00000   0.00003  -0.00046  -0.00118
  88        9D 0        0.00008  -0.00001  -0.00006   0.00122   0.00096
  89        9D+1        0.00012   0.00000  -0.00007   0.00002  -0.00036
  90        9D-1       -0.00007   0.00000   0.00004  -0.00001   0.00021
  91        9D+2       -0.00002   0.00000   0.00050  -0.00112  -0.00207
  92        9D-2        0.00003   0.00000  -0.00086   0.00194   0.00359
  93 4   H  1S         -0.00008   0.00000  -0.00857   0.03720   0.08063
  94        2S          0.00095  -0.00006  -0.01532   0.04385   0.08382
  95        3S          0.00179   0.00004  -0.00106  -0.00489  -0.01196
  96        4S          0.00003   0.00000  -0.00047   0.00050   0.00039
  97        5PX        -0.00001   0.00000   0.00094  -0.00345  -0.00748
  98        5PY        -0.00001   0.00000   0.00054  -0.00200  -0.00432
  99        5PZ        -0.00004   0.00000   0.00028   0.00096   0.00035
 100        6PX        -0.00007   0.00000   0.00066  -0.00070  -0.00104
 101        6PY        -0.00003   0.00000   0.00035  -0.00041  -0.00060
 102        6PZ         0.00032  -0.00001   0.00011   0.00240  -0.00058
 103        7PX        -0.00037  -0.00001  -0.00111   0.00430   0.00895
 104        7PY        -0.00021   0.00000  -0.00070   0.00250   0.00520
 105        7PZ        -0.00055   0.00001  -0.00282  -0.00175  -0.00135
 106        8D 0        0.00006   0.00000   0.00014  -0.00035  -0.00091
 107        8D+1        0.00001   0.00000   0.00012  -0.00043  -0.00020
 108        8D-1        0.00000   0.00000   0.00007  -0.00025  -0.00012
 109        8D+2        0.00001   0.00000  -0.00002   0.00027   0.00069
 110        8D-2        0.00001   0.00000  -0.00003   0.00047   0.00119
 111        9D 0        0.00008  -0.00001  -0.00005   0.00122   0.00099
 112        9D+1       -0.00012   0.00000   0.00004  -0.00002   0.00035
 113        9D-1       -0.00007   0.00000   0.00003  -0.00002   0.00019
 114        9D+2       -0.00002   0.00000   0.00048  -0.00112  -0.00208
 115        9D-2       -0.00003   0.00000   0.00086  -0.00195  -0.00360
 116 5   Cl 1S          0.00008   0.99708  -0.00064   0.06652  -0.03471
 117        2S         -0.00009   0.01040   0.00292  -0.25208   0.13046
 118        3S          0.00006   0.00017  -0.00390   0.52503  -0.27762
 119        4S          0.00008   0.00026  -0.00025   0.06433  -0.03741
 120        5S         -0.00182  -0.00020  -0.01229   0.35116  -0.17010
 121        6S         -0.00052  -0.00011  -0.00461   0.02451   0.01133
 122        7PX         0.00002   0.00000   0.00000  -0.00003  -0.00005
 123        7PY        -0.00001   0.00000   0.00000   0.00002   0.00004
 124        7PZ         0.00740   0.00016   0.00152   0.00453   0.02869
 125        8PX         0.00000   0.00000  -0.00001   0.00008   0.00011
 126        8PY         0.00000   0.00000   0.00001  -0.00005  -0.00010
 127        8PZ         0.00051  -0.00003  -0.00224  -0.00587  -0.07186
 128        9PX         0.00000   0.00000   0.00000   0.00004   0.00006
 129        9PY         0.00000   0.00000   0.00000  -0.00002  -0.00005
 130        9PZ         0.00032   0.00003  -0.00263   0.00075  -0.03129
 131       10PX         0.00000   0.00000   0.00000   0.00005   0.00004
 132       10PY         0.00000   0.00000   0.00000  -0.00003  -0.00005
 133       10PZ         0.00097   0.00015   0.00273   0.00308  -0.05226
 134       11PX         0.00000   0.00000   0.00000   0.00000   0.00000
 135       11PY         0.00000   0.00000   0.00000   0.00000   0.00000
 136       11PZ         0.00003   0.00002  -0.00040   0.00263  -0.00873
 137       12D 0       -0.00003   0.00001  -0.00035   0.00447   0.00452
 138       12D+1        0.00000   0.00000   0.00000  -0.00001  -0.00001
 139       12D-1        0.00000   0.00000   0.00000   0.00001   0.00001
 140       12D+2        0.00000   0.00000   0.00000   0.00000   0.00000
 141       12D-2        0.00000   0.00000   0.00000   0.00000   0.00000
 142       13D 0       -0.00022   0.00000  -0.00163   0.00819   0.00969
 143       13D+1        0.00000   0.00000   0.00000   0.00000   0.00000
 144       13D-1        0.00000   0.00000   0.00000   0.00001   0.00001
 145       13D+2        0.00000   0.00000   0.00000   0.00000   0.00000
 146       13D-2        0.00000   0.00000   0.00000   0.00000   0.00000
 147       14D 0       -0.00014  -0.00004  -0.00184  -0.00019   0.00539
 148       14D+1        0.00000   0.00000   0.00000  -0.00001   0.00002
 149       14D-1        0.00000   0.00000   0.00000   0.00000  -0.00001
 150       14D+2        0.00000   0.00000   0.00000   0.00000   0.00000
 151       14D-2        0.00000   0.00000   0.00000   0.00000  -0.00001
 152       15F 0        0.00005   0.00000   0.00023  -0.00180  -0.00191
 153       15F+1        0.00000   0.00000   0.00000   0.00000   0.00000
 154       15F-1        0.00000   0.00000   0.00000   0.00000   0.00000
 155       15F+2        0.00000   0.00000   0.00000   0.00000   0.00000
 156       15F-2        0.00000   0.00000   0.00000   0.00000   0.00000
 157       15F+3        0.00000   0.00000   0.00000   0.00000   0.00000
 158       15F-3       -0.00001   0.00000  -0.00001   0.00002   0.00009
 159       16F 0       -0.00005   0.00001   0.00005  -0.00093  -0.00172
 160       16F+1        0.00000   0.00000   0.00000  -0.00001  -0.00001
 161       16F-1        0.00000   0.00000   0.00000   0.00000   0.00001
 162       16F+2        0.00000   0.00000   0.00000   0.00000  -0.00001
 163       16F-2        0.00000   0.00000  -0.00001   0.00000   0.00001
 164       16F+3        0.00000   0.00000   0.00000   0.00000   0.00000
 165       16F-3        0.00003   0.00000   0.00002  -0.00001  -0.00021
 166 6   F  1S          0.97742  -0.00002   0.21188   0.01315   0.02169
 167        2S         -0.01503   0.00000  -0.53158  -0.03404  -0.05749
 168        3S          0.04206   0.00000  -0.16469  -0.01081  -0.01859
 169        4S          0.00193  -0.00001  -0.36873  -0.02365  -0.04411
 170        5S         -0.00085  -0.00006  -0.04531   0.00416   0.00766
 171        6PX         0.00000   0.00000   0.00005  -0.00003  -0.00043
 172        6PY         0.00000   0.00000  -0.00002   0.00003   0.00029
 173        6PZ         0.00048   0.00000   0.01343   0.01270   0.08783
 174        7PX         0.00000   0.00000   0.00006  -0.00004  -0.00051
 175        7PY         0.00000   0.00000  -0.00002   0.00003   0.00035
 176        7PZ        -0.00013   0.00000   0.01465   0.01551   0.10568
 177        8PX         0.00000   0.00000   0.00005  -0.00002  -0.00039
 178        8PY         0.00000   0.00000  -0.00002   0.00002   0.00027
 179        8PZ         0.00240  -0.00001   0.01240   0.01221   0.08399
 180        9PX         0.00000   0.00000   0.00002  -0.00001  -0.00012
 181        9PY         0.00000   0.00000  -0.00001   0.00001   0.00008
 182        9PZ        -0.00008  -0.00002   0.00217   0.00313   0.02429
 183       10D 0       -0.00002   0.00000  -0.00013   0.00017   0.00060
 184       10D+1        0.00000   0.00000   0.00000   0.00000   0.00000
 185       10D-1        0.00000   0.00000   0.00000   0.00000   0.00000
 186       10D+2        0.00000   0.00000   0.00000   0.00000   0.00000
 187       10D-2        0.00000   0.00000   0.00000   0.00000   0.00000
 188       11D 0       -0.00003   0.00000  -0.00104   0.00090   0.00275
 189       11D+1        0.00000   0.00000   0.00000   0.00000   0.00000
 190       11D-1        0.00000   0.00000   0.00000   0.00000   0.00000
 191       11D+2        0.00000   0.00000   0.00000   0.00000   0.00000
 192       11D-2        0.00000   0.00000   0.00000   0.00000   0.00000
 193       12D 0        0.00080   0.00000  -0.00055   0.00034   0.00386
 194       12D+1        0.00000   0.00000   0.00000   0.00001   0.00001
 195       12D-1        0.00000   0.00000   0.00000  -0.00001   0.00000
 196       12D+2        0.00000   0.00000   0.00000   0.00000   0.00000
 197       12D-2        0.00000   0.00000   0.00000   0.00000   0.00000
 198       13F 0       -0.00006   0.00000  -0.00002   0.00013   0.00027
 199       13F+1        0.00000   0.00000   0.00000   0.00000   0.00000
 200       13F-1        0.00000   0.00000   0.00000   0.00000   0.00000
 201       13F+2        0.00000   0.00000   0.00000   0.00000   0.00000
 202       13F-2        0.00000   0.00000   0.00000   0.00000   0.00000
 203       13F+3        0.00000   0.00000   0.00000   0.00000   0.00000
 204       13F-3        0.00001   0.00000   0.00001   0.00002   0.00003
 205       14F 0        0.00020   0.00000  -0.00039  -0.00007   0.00062
 206       14F+1        0.00000   0.00000   0.00000   0.00000   0.00001
 207       14F-1        0.00000   0.00000   0.00000   0.00000   0.00000
 208       14F+2        0.00000   0.00000   0.00000   0.00000   0.00000
 209       14F-2        0.00000   0.00000   0.00000   0.00000   0.00000
 210       14F+3        0.00000   0.00000   0.00000   0.00000   0.00000
 211       14F-3       -0.00001   0.00000  -0.00007  -0.00006  -0.00009
                          11        12        13        14        15
     Eigenvalues --     1.96437   1.96436   1.95923   1.95918   1.94911
   1 1   C  1S         -0.00026   0.00000   0.00000   0.00017  -0.00176
   2        2S          0.00077   0.00000   0.00000  -0.00051   0.00502
   3        3S          0.00023   0.00000   0.00000  -0.00014   0.00121
   4        4S         -0.00044   0.00000   0.00000   0.00184   0.00865
   5        5S         -0.00007   0.00000   0.00000   0.00025   0.00191
   6        6PX         0.08414   0.04917   0.11557   0.20016   0.05891
   7        6PY        -0.04891   0.08460   0.20003  -0.11565  -0.03382
   8        6PZ         0.00046  -0.00004  -0.00011   0.00123   0.00174
   9        7PX         0.11268   0.06586   0.15319   0.26529   0.08190
  10        7PY        -0.06549   0.11332   0.26513  -0.15328  -0.04701
  11        7PZ         0.00057  -0.00006  -0.00014   0.00160   0.00248
  12        8PX         0.08275   0.04820   0.11822   0.20462   0.06326
  13        8PY        -0.04809   0.08294   0.20462  -0.11822  -0.03631
  14        8PZ         0.00057  -0.00004  -0.00011   0.00129   0.00233
  15        9PX        -0.00192  -0.00109   0.00947   0.01646   0.01066
  16        9PY         0.00112  -0.00187   0.01639  -0.00951  -0.00612
  17        9PZ        -0.00004   0.00000  -0.00001   0.00010   0.00008
  18       10D 0       -0.00004   0.00000   0.00000  -0.00004  -0.00031
  19       10D+1       -0.00240  -0.00136  -0.00064  -0.00125  -0.00328
  20       10D-1        0.00139  -0.00234  -0.00110   0.00071   0.00188
  21       10D+2       -0.00311   0.00539   0.01284  -0.00740  -0.00250
  22       10D-2        0.00535   0.00313   0.00741   0.01281   0.00435
  23       11D 0       -0.00005   0.00001  -0.00001  -0.00020  -0.00157
  24       11D+1       -0.01123  -0.00639   0.00382   0.00610  -0.01359
  25       11D-1        0.00651  -0.01098   0.00665  -0.00355   0.00779
  26       11D+2       -0.01035   0.01779   0.03926  -0.02259  -0.00852
  27       11D-2        0.01781   0.01032   0.02267   0.03914   0.01483
  28       12D 0       -0.00012   0.00000  -0.00001  -0.00008  -0.00079
  29       12D+1       -0.00529  -0.00306   0.00291   0.00455   0.00096
  30       12D-1        0.00306  -0.00525   0.00506  -0.00265  -0.00056
  31       12D+2       -0.01016   0.01730   0.03116  -0.01786  -0.00509
  32       12D-2        0.01749   0.01004   0.01799   0.03094   0.00888
  33       13F 0       -0.00001   0.00000   0.00000  -0.00003   0.00005
  34       13F+1        0.00023   0.00013  -0.00100  -0.00173  -0.00193
  35       13F-1       -0.00013   0.00022  -0.00174   0.00100   0.00111
  36       13F+2        0.00033  -0.00055  -0.00010   0.00008   0.00017
  37       13F-2       -0.00057  -0.00032  -0.00006  -0.00015  -0.00030
  38       13F+3        0.00000   0.00001   0.00000   0.00000   0.00000
  39       13F-3        0.00000   0.00000   0.00000   0.00001   0.00010
  40       14F 0        0.00005   0.00000   0.00001  -0.00002   0.00013
  41       14F+1        0.00041   0.00019  -0.00292  -0.00502  -0.00627
  42       14F-1       -0.00023   0.00032  -0.00505   0.00290   0.00360
  43       14F+2        0.00199  -0.00332  -0.00014   0.00017   0.00164
  44       14F-2       -0.00343  -0.00193  -0.00008  -0.00031  -0.00286
  45       14F+3        0.00000   0.00003  -0.00001   0.00000   0.00000
  46       14F-3       -0.00008   0.00000   0.00000   0.00015   0.00045
  47 2   H  1S          0.03380  -0.05820  -0.13124   0.07574   0.02438
  48        2S          0.03069  -0.05258  -0.13373   0.07691   0.02313
  49        3S         -0.02891   0.04992   0.10317  -0.05968  -0.00337
  50        4S          0.00293  -0.00498   0.01504  -0.00872  -0.00058
  51        5PX         0.00180   0.00105   0.00218   0.00379   0.00092
  52        5PY         0.00265  -0.00457  -0.01073   0.00618   0.00186
  53        5PZ        -0.00001   0.00003  -0.00242   0.00142   0.00000
  54        6PX         0.00696   0.00405   0.00682   0.01181   0.00325
  55        6PY        -0.00356   0.00620   0.00974  -0.00569  -0.00295
  56        6PZ         0.00149  -0.00239   0.00033  -0.00008   0.00064
  57        7PX         0.00807   0.00463   0.00669   0.01142   0.00250
  58        7PY        -0.00695   0.01212   0.03948  -0.02288  -0.00519
  59        7PZ        -0.00035   0.00055   0.00665  -0.00372  -0.00169
  60        8D 0       -0.00021   0.00035   0.00118  -0.00068  -0.00021
  61        8D+1        0.00001   0.00001   0.00016   0.00027  -0.00003
  62        8D-1        0.00038  -0.00064  -0.00021   0.00013   0.00015
  63        8D+2       -0.00031   0.00052   0.00167  -0.00096  -0.00028
  64        8D-2        0.00091   0.00053   0.00112   0.00194   0.00052
  65        9D 0        0.00029  -0.00047   0.00126  -0.00074   0.00004
  66        9D+1       -0.00134  -0.00077   0.00048   0.00083  -0.00102
  67        9D-1        0.00169  -0.00288   0.00297  -0.00169   0.00017
  68        9D+2        0.00080  -0.00139  -0.00231   0.00133   0.00051
  69        9D-2        0.00143   0.00082   0.00144   0.00248   0.00098
  70 3   H  1S         -0.06695  -0.00018  -0.00003  -0.15153  -0.04579
  71        2S         -0.06023  -0.00016  -0.00003  -0.15535  -0.04589
  72        3S          0.05799   0.00016   0.00002   0.11792   0.00515
  73        4S         -0.00579  -0.00002   0.00000   0.01739   0.00116
  74        5PX        -0.00452   0.00103   0.00217  -0.01072  -0.00304
  75        5PY         0.00260   0.00182   0.00377   0.00619   0.00176
  76        5PZ        -0.00002   0.00000   0.00000  -0.00294   0.00021
  77        6PX         0.00624   0.00402   0.00681   0.00958   0.00477
  78        6PY        -0.00363   0.00692   0.01179  -0.00554  -0.00274
  79        6PZ        -0.00270  -0.00001  -0.00001   0.00024  -0.00115
  80        7PX         0.01210   0.00464   0.00669   0.03932   0.00825
  81        7PY        -0.00702   0.00795   0.01157  -0.02270  -0.00475
  82        7PZ         0.00104   0.00000   0.00000   0.00788   0.00281
  83        8D 0        0.00040   0.00000   0.00000   0.00137   0.00039
  84        8D+1       -0.00066   0.00001   0.00017  -0.00026  -0.00026
  85        8D-1        0.00038   0.00003   0.00029   0.00015   0.00015
  86        8D+2       -0.00030   0.00090   0.00194  -0.00096  -0.00025
  87        8D-2        0.00052   0.00052   0.00112   0.00167   0.00044
  88        9D 0       -0.00051   0.00000   0.00000   0.00149  -0.00023
  89        9D+1       -0.00286  -0.00076   0.00051   0.00300  -0.00043
  90        9D-1        0.00166  -0.00130   0.00089  -0.00173   0.00024
  91        9D+2        0.00080   0.00141   0.00250   0.00134   0.00056
  92        9D-2       -0.00139   0.00081   0.00144  -0.00231  -0.00096
  93 4   H  1S          0.03347   0.05839   0.13127   0.07570   0.02459
  94        2S          0.03039   0.05275   0.13376   0.07686   0.02334
  95        3S         -0.02863  -0.05007  -0.10320  -0.05964  -0.00340
  96        4S          0.00290   0.00500  -0.01504  -0.00871  -0.00058
  97        5PX        -0.00137  -0.00449  -0.01038  -0.00345  -0.00117
  98        5PY        -0.00288  -0.00139  -0.00347  -0.00637  -0.00173
  99        5PZ        -0.00001  -0.00002   0.00243   0.00142   0.00000
 100        6PX         0.00654   0.00339   0.00503   0.01083   0.00420
 101        6PY        -0.00428   0.00658   0.01077  -0.00739  -0.00132
 102        6PZ         0.00148   0.00239  -0.00034  -0.00008   0.00065
 103        7PX         0.01001   0.00824   0.03086   0.02552   0.00577
 104        7PY        -0.00357   0.01005   0.02552   0.00153   0.00045
 105        7PZ        -0.00035  -0.00057  -0.00669  -0.00373  -0.00171
 106        8D 0       -0.00020  -0.00035  -0.00118  -0.00067  -0.00021
 107        8D+1       -0.00032  -0.00057  -0.00026   0.00002  -0.00015
 108        8D-1       -0.00020  -0.00031   0.00003  -0.00030  -0.00006
 109        8D+2       -0.00064   0.00072   0.00180  -0.00121  -0.00031
 110        8D-2        0.00072   0.00019   0.00088   0.00180   0.00050
 111        9D 0        0.00029   0.00047  -0.00127  -0.00074   0.00005
 112        9D+1       -0.00212  -0.00212   0.00233   0.00188  -0.00066
 113        9D-1        0.00033  -0.00210   0.00190   0.00012   0.00080
 114        9D+2       -0.00164   0.00001   0.00009  -0.00281  -0.00111
 115        9D-2        0.00003  -0.00162  -0.00272   0.00009   0.00005
 116 5   Cl 1S         -0.00009   0.00000   0.00000  -0.00009  -0.00034
 117        2S          0.00036   0.00000   0.00000   0.00034   0.00132
 118        3S         -0.00075   0.00000   0.00000  -0.00068  -0.00272
 119        4S         -0.00010   0.00000   0.00000  -0.00010  -0.00042
 120        5S         -0.00058   0.00000   0.00000  -0.00075  -0.00240
 121        6S         -0.00004   0.00000   0.00000  -0.00016  -0.00080
 122        7PX        -0.00754  -0.00443  -0.02184  -0.03791   0.19380
 123        7PY         0.00438  -0.00762  -0.03779   0.02190  -0.11124
 124        7PZ         0.00006   0.00000   0.00002   0.00010  -0.00099
 125        8PX         0.01786   0.01049   0.05160   0.08958  -0.44337
 126        8PY        -0.01038   0.01804   0.08931  -0.05176   0.25450
 127        8PZ        -0.00010  -0.00001  -0.00005  -0.00016   0.00234
 128        9PX         0.00828   0.00486   0.02387   0.04143  -0.21418
 129        9PY        -0.00481   0.00837   0.04131  -0.02394   0.12294
 130        9PZ        -0.00006   0.00000  -0.00002  -0.00011   0.00117
 131       10PX         0.00886   0.00523   0.02792   0.04858  -0.31860
 132       10PY        -0.00515   0.00900   0.04833  -0.02807   0.18288
 133       10PZ         0.00005   0.00000  -0.00003   0.00018   0.00263
 134       11PX         0.00185   0.00107   0.00170   0.00296  -0.05380
 135       11PY        -0.00108   0.00183   0.00294  -0.00171   0.03088
 136       11PZ         0.00003   0.00000   0.00000   0.00008   0.00086
 137       12D 0        0.00003   0.00000   0.00000   0.00005   0.00018
 138       12D+1       -0.00161  -0.00095  -0.00309  -0.00533   0.00020
 139       12D-1        0.00094  -0.00163  -0.00535   0.00308  -0.00011
 140       12D+2       -0.00006   0.00010   0.00047  -0.00027  -0.00012
 141       12D-2        0.00009   0.00006   0.00027   0.00046   0.00021
 142       13D 0        0.00003   0.00000   0.00001   0.00003   0.00028
 143       13D+1       -0.00248  -0.00146  -0.00548  -0.00951   0.00058
 144       13D-1        0.00144  -0.00251  -0.00949   0.00549  -0.00034
 145       13D+2       -0.00016   0.00028   0.00057  -0.00033  -0.00028
 146       13D-2        0.00028   0.00016   0.00032   0.00056   0.00050
 147       14D 0        0.00000   0.00000   0.00000  -0.00004   0.00000
 148       14D+1        0.00009   0.00003   0.00003   0.00004   0.00289
 149       14D-1       -0.00005   0.00006   0.00005  -0.00002  -0.00166
 150       14D+2        0.00033  -0.00057  -0.00006   0.00005  -0.00004
 151       14D-2       -0.00057  -0.00033  -0.00003  -0.00008   0.00008
 152       15F 0       -0.00001   0.00000   0.00000  -0.00001  -0.00003
 153       15F+1        0.00076   0.00044   0.00131   0.00228  -0.00122
 154       15F-1       -0.00044   0.00077   0.00228  -0.00131   0.00070
 155       15F+2        0.00006  -0.00010  -0.00029   0.00017   0.00005
 156       15F-2       -0.00009  -0.00006  -0.00017  -0.00029  -0.00009
 157       15F+3        0.00000   0.00000   0.00000   0.00000   0.00000
 158       15F-3        0.00000   0.00000   0.00000   0.00000   0.00000
 159       16F 0        0.00000   0.00000   0.00000   0.00001  -0.00005
 160       16F+1        0.00050   0.00030   0.00100   0.00176  -0.00156
 161       16F-1       -0.00029   0.00051   0.00174  -0.00102   0.00089
 162       16F+2        0.00000   0.00001   0.00016  -0.00009   0.00010
 163       16F-2        0.00001   0.00001   0.00009   0.00015  -0.00018
 164       16F+3        0.00000   0.00000   0.00000   0.00000   0.00000
 165       16F-3        0.00000   0.00000   0.00000   0.00001  -0.00001
 166 6   F  1S         -0.00005   0.00000   0.00000  -0.00014   0.00033
 167        2S          0.00012   0.00000   0.00000   0.00037  -0.00072
 168        3S          0.00004   0.00000   0.00000   0.00013  -0.00022
 169        4S          0.00020   0.00000   0.00000   0.00040  -0.00043
 170        5S          0.00008   0.00000   0.00000   0.00019  -0.00012
 171        6PX         0.28741   0.16692  -0.08103  -0.13980  -0.01977
 172        6PY        -0.16705   0.28719  -0.14025   0.08077   0.01135
 173        6PZ        -0.00068  -0.00016   0.00008  -0.00093  -0.01084
 174        7PX         0.34285   0.19911  -0.09608  -0.16575  -0.02340
 175        7PY        -0.19926   0.34258  -0.16630   0.09577   0.01343
 176        7PZ        -0.00081  -0.00020   0.00009  -0.00112  -0.01293
 177        8PX         0.27721   0.16099  -0.08083  -0.13952  -0.02007
 178        8PY        -0.16112   0.27700  -0.13990   0.08061   0.01152
 179        8PZ        -0.00059  -0.00016   0.00008  -0.00080  -0.01062
 180        9PX         0.08716   0.05062  -0.02852  -0.04929  -0.00976
 181        9PY        -0.05066   0.08710  -0.04937   0.02848   0.00560
 182        9PZ        -0.00016  -0.00005   0.00003  -0.00015  -0.00330
 183       10D 0        0.00000   0.00000   0.00000  -0.00001  -0.00003
 184       10D+1        0.00052   0.00030   0.00005   0.00008   0.00010
 185       10D-1       -0.00030   0.00052   0.00008  -0.00005  -0.00006
 186       10D+2       -0.00001   0.00002   0.00003  -0.00002  -0.00001
 187       10D-2        0.00002   0.00001   0.00002   0.00003   0.00001
 188       11D 0        0.00000   0.00000   0.00000  -0.00002  -0.00006
 189       11D+1        0.00209   0.00122   0.00061   0.00106   0.00052
 190       11D-1       -0.00122   0.00210   0.00106  -0.00062  -0.00030
 191       11D+2       -0.00002   0.00004   0.00022  -0.00012  -0.00009
 192       11D-2        0.00004   0.00002   0.00013   0.00022   0.00015
 193       12D 0        0.00001   0.00000   0.00000  -0.00003  -0.00030
 194       12D+1        0.00514   0.00299  -0.00178  -0.00309   0.00025
 195       12D-1       -0.00299   0.00514  -0.00308   0.00179  -0.00014
 196       12D+2       -0.00003   0.00002  -0.00024   0.00014   0.00018
 197       12D-2        0.00005   0.00001  -0.00014  -0.00025  -0.00032
 198       13F 0        0.00000   0.00000   0.00000   0.00000  -0.00001
 199       13F+1        0.00019   0.00011   0.00013   0.00022   0.00005
 200       13F-1       -0.00011   0.00019   0.00022  -0.00013  -0.00003
 201       13F+2       -0.00003   0.00005   0.00010  -0.00006  -0.00003
 202       13F-2        0.00005   0.00003   0.00006   0.00010   0.00006
 203       13F+3        0.00000   0.00000   0.00000   0.00000   0.00000
 204       13F-3        0.00000   0.00000   0.00000   0.00000   0.00000
 205       14F 0        0.00000   0.00000   0.00000   0.00000  -0.00005
 206       14F+1        0.00125   0.00073  -0.00044  -0.00076   0.00000
 207       14F-1       -0.00073   0.00126  -0.00076   0.00044   0.00000
 208       14F+2        0.00006  -0.00011  -0.00021   0.00012   0.00008
 209       14F-2       -0.00011  -0.00007  -0.00012  -0.00021  -0.00014
 210       14F+3        0.00000   0.00000   0.00000   0.00000   0.00000
 211       14F-3        0.00000   0.00000   0.00000   0.00000   0.00000
                          16        17        18        19        20
     Eigenvalues --     1.94911   1.94881   1.93534   0.06020   0.02497
   1 1   C  1S          0.00000   0.05355  -0.01548  -0.02464   0.00132
   2        2S          0.00000  -0.15249   0.05009   0.06870  -0.00501
   3        3S          0.00000  -0.03603   0.01655   0.02516  -0.00283
   4        4S          0.00001  -0.29059   0.08569  -0.22475   0.01159
   5        5S          0.00000  -0.05712   0.03910  -0.03024   0.00226
   6        6PX         0.03387   0.00276   0.00074  -0.00134   0.13732
   7        6PY         0.05901  -0.00161  -0.00050   0.00093  -0.07952
   8        6PZ        -0.00003  -0.04542  -0.12883   0.27920   0.00097
   9        7PX         0.04707   0.00374   0.00102  -0.00179   0.25506
  10        7PY         0.08200  -0.00218  -0.00069   0.00128  -0.14771
  11        7PZ        -0.00004  -0.06435  -0.18077   0.44303   0.00169
  12        8PX         0.03622   0.00242   0.00093  -0.00080   0.11486
  13        8PY         0.06310  -0.00142  -0.00058   0.00057  -0.06652
  14        8PZ        -0.00003  -0.06401  -0.07655   0.20210   0.00077
  15        9PX         0.00610   0.00040   0.00013  -0.00019   0.02576
  16        9PY         0.01062  -0.00023  -0.00008   0.00011  -0.01492
  17        9PZ        -0.00001  -0.00120  -0.00165  -0.00016   0.00034
  18       10D 0        0.00000   0.00935  -0.01105  -0.00886   0.00013
  19       10D+1       -0.00186  -0.00015   0.00003   0.00000   0.02205
  20       10D-1       -0.00323   0.00010  -0.00003  -0.00001  -0.01277
  21       10D+2        0.00436  -0.00010  -0.00001  -0.00003  -0.00181
  22       10D-2        0.00250   0.00018   0.00002   0.00006   0.00314
  23       11D 0        0.00001   0.04965  -0.04566   0.06723  -0.00162
  24       11D+1       -0.00771  -0.00047   0.00011  -0.00027   0.05100
  25       11D-1       -0.01341   0.00032  -0.00011   0.00021  -0.02957
  26       11D+2        0.01483  -0.00024  -0.00005  -0.00018  -0.03524
  27       11D-2        0.00850   0.00041   0.00009   0.00031   0.06096
  28       12D 0        0.00000   0.02840  -0.00366  -0.01764   0.00038
  29       12D+1        0.00063  -0.00008   0.00002   0.00002   0.01587
  30       12D-1        0.00110   0.00007  -0.00001  -0.00003  -0.00920
  31       12D+2        0.00884  -0.00003  -0.00006  -0.00008  -0.00722
  32       12D-2        0.00507   0.00005   0.00010   0.00013   0.01250
  33       13F 0        0.00000  -0.00209  -0.00328  -0.00582  -0.00012
  34       13F+1       -0.00111  -0.00007  -0.00001   0.00006  -0.00844
  35       13F-1       -0.00194   0.00004   0.00000  -0.00005   0.00489
  36       13F+2       -0.00028   0.00001   0.00000   0.00000  -0.00157
  37       13F-2       -0.00016  -0.00001   0.00000   0.00001   0.00269
  38       13F+3        0.00000   0.00000   0.00000   0.00000   0.00000
  39       13F-3        0.00000  -0.00308   0.00114  -0.00054   0.00006
  40       14F 0        0.00001  -0.00555  -0.00086   0.01179  -0.00032
  41       14F+1       -0.00361  -0.00026   0.00002   0.00006  -0.00245
  42       14F-1       -0.00630   0.00014  -0.00001  -0.00002   0.00142
  43       14F+2       -0.00283   0.00005  -0.00003   0.00012   0.00128
  44       14F-2       -0.00163  -0.00007   0.00003  -0.00016  -0.00222
  45       14F+3        0.00003  -0.00001   0.00000  -0.00001   0.00000
  46       14F-3        0.00000  -0.01486   0.00914  -0.03831   0.00142
  47 2   H  1S         -0.04061  -0.03283   0.02896  -0.00708  -0.02010
  48        2S         -0.03998  -0.00246   0.02305   0.08057  -0.13356
  49        3S          0.00476   0.02193   0.02042   0.06906  -0.08504
  50        4S          0.00094   0.00007   0.00189   0.00731  -0.03637
  51        5PX         0.00053   0.00005   0.00002  -0.00007   0.00260
  52        5PY        -0.00313  -0.00208   0.00249  -0.00201   0.00436
  53        5PZ         0.00016  -0.00267  -0.00321   0.01427   0.00616
  54        6PX         0.00189   0.00010   0.00006   0.00004   0.00667
  55        6PY         0.00487   0.00536  -0.00155   0.00990  -0.03068
  56        6PZ        -0.00103  -0.00105  -0.01030   0.02841   0.00260
  57        7PX         0.00144  -0.00008   0.00004   0.00017  -0.00170
  58        7PY         0.00846   0.01084  -0.00164   0.01284  -0.02603
  59        7PZ         0.00260   0.00807   0.00320  -0.01404  -0.00262
  60        8D 0        0.00035   0.00014  -0.00085   0.00060  -0.00128
  61        8D+1       -0.00002   0.00000   0.00000   0.00000   0.00158
  62        8D-1       -0.00025  -0.00020  -0.00171   0.00674   0.00199
  63        8D+2        0.00045   0.00052  -0.00061   0.00187  -0.00126
  64        8D-2        0.00030   0.00002   0.00001  -0.00003   0.00191
  65        9D 0       -0.00013   0.00077  -0.00283   0.00615   0.00145
  66        9D+1       -0.00060  -0.00003   0.00002  -0.00003   0.00378
  67        9D-1       -0.00040   0.00201  -0.00055  -0.00583  -0.00781
  68        9D+2       -0.00093   0.00111   0.00036  -0.00116   0.00493
  69        9D-2        0.00057   0.00001   0.00001   0.00008   0.00091
  70 3   H  1S          0.00012  -0.03571   0.02874  -0.00797   0.04455
  71        2S          0.00012  -0.00598   0.02287   0.08010   0.26523
  72        3S         -0.00002   0.02083   0.02071   0.07031   0.16380
  73        4S          0.00000   0.00008   0.00198   0.00742   0.07220
  74        5PX         0.00054  -0.00198   0.00218  -0.00192  -0.00767
  75        5PY         0.00092   0.00114  -0.00126   0.00112   0.00442
  76        5PZ         0.00000  -0.00271  -0.00315   0.01425  -0.01230
  77        6PX         0.00187   0.00484  -0.00121   0.00863   0.05218
  78        6PY         0.00327  -0.00280   0.00070  -0.00497  -0.03015
  79        6PZ         0.00000  -0.00081  -0.01029   0.02888  -0.00498
  80        7PX         0.00144   0.00977  -0.00129   0.01141   0.04338
  81        7PY         0.00254  -0.00564   0.00075  -0.00660  -0.02505
  82        7PZ        -0.00001   0.00833   0.00311  -0.01365   0.00567
  83        8D 0        0.00000   0.00014  -0.00086   0.00080   0.00250
  84        8D+1       -0.00001  -0.00016  -0.00146   0.00583  -0.00348
  85        8D-1       -0.00002   0.00009   0.00084  -0.00337   0.00201
  86        8D+2        0.00052  -0.00027   0.00031  -0.00095  -0.00132
  87        8D-2        0.00030   0.00048  -0.00054   0.00165   0.00227
  88        9D 0        0.00000   0.00076  -0.00283   0.00625  -0.00397
  89        9D+1       -0.00059   0.00180  -0.00049  -0.00502   0.01377
  90        9D-1       -0.00102  -0.00104   0.00028   0.00291  -0.00796
  91        9D+2        0.00098  -0.00053  -0.00017   0.00064   0.00488
  92        9D-2        0.00057   0.00093   0.00030  -0.00112  -0.00844
  93 4   H  1S          0.04049  -0.03282   0.02896  -0.00708  -0.02001
  94        2S          0.03986  -0.00245   0.02305   0.08057  -0.13301
  95        3S         -0.00475   0.02193   0.02042   0.06905  -0.08470
  96        4S         -0.00094   0.00007   0.00189   0.00731  -0.03622
  97        5PX        -0.00297   0.00182  -0.00215   0.00171  -0.00245
  98        5PY        -0.00110   0.00099  -0.00126   0.00108  -0.00442
  99        5PZ        -0.00015  -0.00267  -0.00321   0.01427   0.00614
 100        6PX         0.00325  -0.00460   0.00137  -0.00854   0.02980
 101        6PY         0.00408  -0.00277   0.00072  -0.00496   0.00949
 102        6PZ         0.00102  -0.00105  -0.01030   0.02842   0.00257
 103        7PX         0.00657  -0.00942   0.00144  -0.01104   0.02160
 104        7PY         0.00547  -0.00534   0.00079  -0.00658   0.01443
 105        7PZ        -0.00260   0.00807   0.00319  -0.01403  -0.00263
 106        8D 0       -0.00035   0.00014  -0.00085   0.00061  -0.00127
 107        8D+1       -0.00021   0.00017   0.00148  -0.00583  -0.00093
 108        8D-1       -0.00014   0.00010   0.00085  -0.00337  -0.00237
 109        8D+2        0.00049  -0.00028   0.00030  -0.00091  -0.00103
 110        8D-2        0.00024  -0.00044   0.00053  -0.00164   0.00204
 111        9D 0        0.00013   0.00078  -0.00283   0.00614   0.00143
 112        9D+1       -0.00004  -0.00176   0.00048   0.00504   0.00863
 113        9D-1       -0.00072  -0.00098   0.00026   0.00295   0.00060
 114        9D+2        0.00003  -0.00056  -0.00019   0.00051  -0.00324
 115        9D-2       -0.00109  -0.00096  -0.00031   0.00104  -0.00379
 116 5   Cl 1S          0.00000   0.01022   0.00052  -0.01681   0.00000
 117        2S          0.00000  -0.03899  -0.00176   0.05632   0.00004
 118        3S          0.00000   0.08064   0.01145  -0.15699   0.00014
 119        4S          0.00000   0.01244   0.00456  -0.03986  -0.00003
 120        5S          0.00000   0.06889   0.01236  -0.04572  -0.00063
 121        6S          0.00000   0.02020  -0.01251   0.01624  -0.00077
 122        7PX         0.11131   0.00599  -0.00016  -0.00025   0.01836
 123        7PY         0.19392  -0.00342  -0.00002   0.00006  -0.01063
 124        7PZ        -0.00010   0.02654  -0.21009  -0.16359   0.00024
 125        8PX        -0.25466  -0.01369   0.00035   0.00053  -0.02858
 126        8PY        -0.44364   0.00781   0.00005  -0.00011   0.01655
 127        8PZ         0.00024  -0.06198   0.46454   0.36115  -0.00048
 128        9PX        -0.12302  -0.00663   0.00016   0.00032  -0.03051
 129        9PY        -0.21431   0.00378   0.00003  -0.00008   0.01767
 130        9PZ         0.00011  -0.03092   0.21824   0.20667  -0.00036
 131       10PX        -0.18301  -0.00988   0.00014   0.00006   0.01479
 132       10PY        -0.31883   0.00563   0.00009  -0.00002  -0.00856
 133       10PZ         0.00017  -0.07191   0.31756   0.02929   0.00074
 134       11PX        -0.03091  -0.00172  -0.00003   0.00012   0.00512
 135       11PY        -0.05385   0.00097   0.00004  -0.00006  -0.00297
 136       11PZ         0.00003  -0.02392   0.04608   0.00726   0.00029
 137       12D 0        0.00000  -0.00472  -0.01243   0.06754  -0.00062
 138       12D+1        0.00011  -0.00001  -0.00005   0.00013  -0.05020
 139       12D-1        0.00018   0.00000   0.00001  -0.00001   0.02907
 140       12D+2        0.00021   0.00000   0.00000   0.00000  -0.00038
 141       12D-2        0.00012   0.00001   0.00000   0.00001   0.00060
 142       13D 0        0.00000  -0.00754  -0.01946   0.09797  -0.00090
 143       13D+1        0.00033  -0.00005  -0.00006   0.00028  -0.07504
 144       13D-1        0.00057   0.00002   0.00002  -0.00007   0.04345
 145       13D+2        0.00047  -0.00001   0.00000   0.00000  -0.00061
 146       13D-2        0.00027   0.00002   0.00000   0.00000   0.00097
 147       14D 0        0.00000   0.00150  -0.01322   0.03016  -0.00021
 148       14D+1        0.00166   0.00007   0.00000   0.00004  -0.00816
 149       14D-1        0.00288  -0.00004  -0.00001   0.00001   0.00472
 150       14D+2        0.00004   0.00000   0.00000  -0.00001  -0.00011
[...]
  80        7PX        -0.55462  -8.26320  -5.33389  -1.60392   6.48207
  81        7PY         0.31457   4.77047  -9.23645   0.92661  -3.74261
  82        7PZ        -2.17267  -3.04642   0.00574   0.06490   0.88191
  83        8D 0       -0.03408   0.01767   0.00004   0.02543  -0.01797
  84        8D+1        0.00830  -0.02424  -0.02064   0.00760  -0.01366
  85        8D-1       -0.00477   0.01399  -0.03563  -0.00434   0.00789
  86        8D+2        0.06303  -0.01807   0.10255   0.02356   0.01928
  87        8D-2       -0.10915   0.03129   0.05920  -0.04082  -0.03343
  88        9D 0       -0.39123   0.57143  -0.00017  -0.13754  -0.26540
  89        9D+1       -0.25301  -0.13315   0.18378  -0.03532   0.24742
  90        9D-1        0.14563   0.07676   0.31632   0.01989  -0.14297
  91        9D+2       -0.24902  -0.63417  -1.59915  -0.34656   0.14411
  92        9D-2        0.42999   1.09887  -0.92273   0.60065  -0.24937
  93 4   H  1S         -0.03580   0.00284  -0.00935  -0.00773   0.01313
  94        2S          0.57380   1.65825   2.95771  -0.55453  -1.09747
  95        3S          9.90536  12.13479  24.07037  -3.48730 -13.00128
  96        4S          1.31020  -1.23907  -1.61823  -1.98834  -5.57015
  97        5PX        -0.00913   0.09647   0.05193  -0.08077  -0.02861
  98        5PY        -0.02605  -0.05101   0.09054  -0.04564  -0.06767
  99        5PZ         0.05985  -0.00674   0.00651   0.03073   0.00529
 100        6PX        -0.87210  -1.52237  -1.39993   0.64520   0.34925
 101        6PY        -0.21430   0.58799  -1.64453   0.35882   0.71365
 102        6PZ        -0.32542   0.07638   0.04359  -0.16445  -0.08247
 103        7PX        -2.76256  -8.33655  -4.43245   1.81012   1.72752
 104        7PY         0.55655   5.65240  -8.70191   0.95690   4.47087
 105        7PZ        -1.16786   1.91436   3.01177  -0.00047  -0.40523
 106        8D 0       -0.03701   0.00361  -0.00880   0.02735   0.00889
 107        8D+1       -0.01610  -0.02671  -0.00751  -0.00817  -0.00396
 108        8D-1       -0.00070   0.02586  -0.02852  -0.00465  -0.00816
 109        8D+2        0.04377  -0.09971   0.05353   0.02215  -0.03179
 110        8D-2        0.11763   0.02962  -0.02625   0.03772  -0.00518
 111        9D 0       -0.52275  -0.12254  -0.40286  -0.13301   0.13860
 112        9D+1        0.24047   0.04327  -0.25531   0.04165   0.07775
 113        9D-1        0.05574  -0.35256   0.08139   0.02269   0.13847
 114        9D+2        0.22283   1.72124  -0.21305  -0.36649   0.35757
 115        9D-2       -0.24620  -0.17312   1.46233  -0.61033  -0.36284
 116 5   Cl 1S          0.01986  -0.00419  -0.00001   0.01156  -0.00008
 117        2S          0.27453  -0.05850  -0.00010   0.16017  -0.00116
 118        3S          0.76594  -0.16200  -0.00027   0.45134  -0.00304
 119        4S         -0.04067   0.01030   0.00002  -0.01250   0.00042
 120        5S         -4.25805   0.89743   0.00151  -2.97883   0.02945
 121        6S         -9.71895   1.86173   0.00317 -13.26566   0.04695
 122        7PX        -0.00011   0.00049   0.00021  -0.00011  -0.00270
 123        7PY         0.00006  -0.00028   0.00037   0.00005   0.00156
 124        7PZ        -0.00488   0.00056   0.00000  -0.02303   0.00009
 125        8PX        -0.00013   0.01251   0.00651  -0.00188  -0.05264
 126        8PY         0.00004  -0.00722   0.01127   0.00091   0.03041
 127        8PZ        -0.06959   0.00740   0.00001  -0.32212   0.00075
 128        9PX         0.00027  -0.00268  -0.00129   0.00040   0.00911
 129        9PY        -0.00015   0.00155  -0.00223  -0.00019  -0.00526
 130        9PZ         0.00324   0.00101   0.00000   0.08074  -0.00042
 131       10PX         0.00827  -0.02944  -0.01170   0.01036   0.37091
 132       10PY        -0.00161   0.01636  -0.02026  -0.00326  -0.21427
 133       10PZ         5.82311  -1.16684  -0.00197   5.06856  -0.02232
 134       11PX        -0.19724  -0.96760  -0.57618   0.00906  -0.21949
 135       11PY         0.11387   0.55871  -0.99785  -0.00341   0.12680
 136       11PZ         0.80059  -0.13155   0.00032   3.36859  -0.00505
 137       12D 0        0.06665  -0.01376  -0.00005   0.00154   0.00009
 138       12D+1        0.00521   0.02619   0.01572  -0.00032  -0.00315
 139       12D-1       -0.00293  -0.01514   0.02721   0.00018   0.00181
 140       12D+2        0.00084   0.00406  -0.00714  -0.00005  -0.00608
 141       12D-2       -0.00147  -0.00702  -0.00410   0.00009   0.01053
 142       13D 0       -0.37955   0.07865   0.00023  -0.06854  -0.00017
 143       13D+1       -0.01875  -0.09642  -0.05736   0.00147   0.02192
 144       13D-1        0.01043   0.05575  -0.09932  -0.00091  -0.01264
 145       13D+2       -0.00186  -0.00920   0.01648   0.00017   0.02188
 146       13D-2        0.00322   0.01585   0.00945  -0.00030  -0.03788
 147       14D 0       -1.37565   0.27177   0.00023  -1.24357  -0.00037
 148       14D+1        0.04242   0.24353   0.14448  -0.00939  -0.28343
 149       14D-1       -0.02566  -0.14035   0.25016   0.00426   0.16361
 150       14D+2        0.00519   0.02865  -0.05192  -0.00012  -0.10080
 151       14D-2       -0.00899  -0.04941  -0.02981   0.00020   0.17436
 152       15F 0       -0.04214   0.00841   0.00001   0.00119  -0.00043
 153       15F+1        0.00047   0.00309   0.00159  -0.00040  -0.01591
 154       15F-1       -0.00032  -0.00177   0.00274   0.00023   0.00918
 155       15F+2        0.00069   0.00419  -0.00774  -0.00001  -0.00523
 156       15F-2       -0.00118  -0.00726  -0.00447  -0.00001   0.00904
 157       15F+3        0.00000   0.00000   0.00069   0.00001  -0.00001
 158       15F-3       -0.00910   0.00131   0.00000   0.02259   0.00030
 159       16F 0        0.22944  -0.04549  -0.00007   0.08923   0.00156
 160       16F+1       -0.00161  -0.00900  -0.00541   0.00175   0.05468
 161       16F-1        0.00121   0.00510  -0.00931  -0.00089  -0.03154
 162       16F+2       -0.00400  -0.02095   0.03743   0.00008   0.02142
 163       16F-2        0.00693   0.03631   0.02159  -0.00009  -0.03702
 164       16F+3        0.00000  -0.00002  -0.00156  -0.00002   0.00002
 165       16F-3        0.01892  -0.00266   0.00002  -0.04209  -0.00061
 166 6   F  1S          0.03840  -0.00846  -0.00001  -0.02341  -0.00018
 167        2S          0.13439  -0.02998  -0.00005  -0.08925  -0.00086
 168        3S         -0.06953   0.01498   0.00003   0.03752   0.00010
 169        4S         -0.35730   0.08549   0.00014  -0.00741   0.00440
 170        5S         -0.06797  -0.00031  -0.00004  -5.90921   0.04434
 171        6PX        -0.00135  -0.00618  -0.00375   0.00005   0.00144
 172        6PY         0.00078   0.00357  -0.00649  -0.00003  -0.00083
 173        6PZ         0.00539  -0.00107   0.00000   0.00229   0.00004
 174        7PX         0.00697   0.03171   0.01931   0.00001  -0.00527
 175        7PY        -0.00405  -0.01831   0.03344   0.00000   0.00304
 176        7PZ        -0.06288   0.01304   0.00000   0.00231  -0.00034
 177        8PX        -0.04809  -0.22023  -0.13374  -0.00153   0.00131
 178        8PY         0.02800   0.12711  -0.23162   0.00074  -0.00075
 179        8PZ         0.62339  -0.12912  -0.00010  -0.24110   0.00616
 180        9PX        -0.14121  -0.69443  -0.40938  -0.00298  -0.19604
 181        9PY         0.08078   0.40110  -0.70898   0.00035   0.11326
 182        9PZ        -0.86470   0.15719   0.00065  -2.48566   0.01837
 183       10D 0        0.01094  -0.00246   0.00001  -0.00813   0.00003
 184       10D+1       -0.00255  -0.01200  -0.00709   0.00001   0.00188
 185       10D-1        0.00148   0.00693  -0.01227  -0.00001  -0.00109
 186       10D+2       -0.00062  -0.00248   0.00407   0.00002  -0.00142
 187       10D-2        0.00107   0.00429   0.00234  -0.00004   0.00247
 188       11D 0       -0.04057   0.00906  -0.00002   0.01631  -0.00006
 189       11D+1        0.00822   0.03862   0.02283   0.00007  -0.00327
 190       11D-1       -0.00477  -0.02229   0.03953  -0.00002   0.00189
 191       11D+2        0.00206   0.00852  -0.01405  -0.00007   0.00504
 192       11D-2       -0.00358  -0.01472  -0.00808   0.00013  -0.00874
 193       12D 0        0.40754  -0.08714  -0.00004  -0.01259   0.00123
 194       12D+1       -0.02557  -0.11094  -0.06809  -0.00184  -0.02777
 195       12D-1        0.01509   0.06395  -0.11786   0.00104   0.01604
 196       12D+2       -0.00711  -0.03202   0.05329   0.00047  -0.00947
 197       12D-2        0.01235   0.05536   0.03066  -0.00082   0.01638
 198       13F 0       -0.02668   0.00527   0.00003  -0.00748   0.00003
 199       13F+1       -0.00303  -0.01570  -0.00883  -0.00002   0.00707
 200       13F-1        0.00171   0.00908  -0.01530   0.00000  -0.00408
 201       13F+2        0.00086   0.00452  -0.00762  -0.00005  -0.00135
 202       13F-2       -0.00151  -0.00786  -0.00441   0.00009   0.00235
 203       13F+3        0.00001   0.00001  -0.00071   0.00000   0.00000
 204       13F-3        0.01242  -0.00215  -0.00001  -0.00150  -0.00018
 205       14F 0        0.06626  -0.01337  -0.00007   0.01159  -0.00005
 206       14F+1        0.00649   0.03444   0.01918  -0.00023  -0.01574
 207       14F-1       -0.00365  -0.01993   0.03326   0.00015   0.00910
 208       14F+2       -0.00243  -0.01252   0.02114   0.00016   0.00328
 209       14F-2        0.00426   0.02175   0.01223  -0.00028  -0.00571
 210       14F+3       -0.00001  -0.00002   0.00115   0.00000   0.00000
 211       14F-3       -0.01676   0.00274   0.00002   0.00275   0.00022
                         211
     Eigenvalues --     0.00000
   1 1   C  1S          0.00000
   2        2S         -0.00001
   3        3S          0.00000
   4        4S         -0.00007
   5        5S         -0.00007
   6        6PX         0.00380
   7        6PY         0.00658
   8        6PZ         0.00000
   9        7PX        -0.77429
  10        7PY        -1.34042
  11        7PZ         0.00072
  12        8PX        -8.69648
  13        8PY       -15.05480
  14        8PZ         0.00808
  15        9PX        -3.94217
  16        9PY        -6.82445
  17        9PZ         0.00367
  18       10D 0        0.00000
  19       10D+1        0.00089
  20       10D-1        0.00152
  21       10D+2       -0.01874
  22       10D-2       -0.01081
  23       11D 0       -0.00017
  24       11D+1        0.10728
  25       11D-1        0.18531
  26       11D+2       -0.38157
  27       11D-2       -0.22011
  28       12D 0       -0.00097
  29       12D+1        0.65295
  30       12D-1        1.13084
  31       12D+2        0.44408
  32       12D-2        0.25691
  33       13F 0        0.00004
  34       13F+1       -0.01911
  35       13F-1       -0.03309
  36       13F+2       -0.00845
  37       13F-2       -0.00491
  38       13F+3        0.00013
  39       13F-3       -0.00001
  40       14F 0       -0.00046
  41       14F+1        0.20250
  42       14F-1        0.35068
  43       14F+2        0.07237
  44       14F-2        0.04211
  45       14F+3        0.00259
  46       14F-3        0.00006
  47 2   H  1S          0.02334
  48        2S         -1.95643
  49        3S        -22.61038
  50        4S         -9.67445
  51        5PX        -0.02559
  52        5PY         0.10177
  53        5PZ         0.00877
  54        6PX         0.25430
  55        6PY        -1.15835
  56        6PZ        -0.14226
  57        7PX         1.72158
  58        7PY        -6.48547
  59        7PZ        -0.70142
  60        8D 0        0.01625
  61        8D+1       -0.00280
  62        8D-1        0.01336
  63        8D+2        0.03582
  64        8D-2       -0.01440
  65        9D 0        0.23128
  66        9D+1        0.04681
  67        9D-1       -0.23708
  68        9D+2        0.24167
  69        9D-2        0.28048
  70 3   H  1S          0.00000
  71        2S         -0.00022
  72        3S         -0.00265
  73        4S         -0.00113
  74        5PX        -0.02517
  75        5PY        -0.04361
  76        5PZ         0.00002
  77        6PX         0.25038
  78        6PY         0.43378
  79        6PZ        -0.00025
  80        7PX         1.72050
  81        7PY         2.98063
  82        7PZ        -0.00171
  83        8D 0        0.00001
  84        8D+1       -0.00329
  85        8D-1       -0.00573
  86        8D+2       -0.02507
  87        8D-2       -0.01447
  88        9D 0       -0.00007
  89        9D+1        0.05072
  90        9D-1        0.08839
  91        9D+2        0.48406
  92        9D-2        0.27940
  93 4   H  1S         -0.02335
  94        2S          1.95666
  95        3S         22.61328
  96        4S          9.67563
  97        5PX         0.10094
  98        5PY         0.02871
  99        5PZ        -0.00884
 100        6PX        -1.13041
 101        6PY        -0.35869
 102        6PZ         0.14308
 103        7PX        -6.47790
 104        7PY        -1.75039
 105        7PZ         0.70592
 106        8D 0       -0.01627
 107        8D+1        0.01292
 108        8D-1        0.00422
 109        8D+2        0.00546
 110        8D-2        0.03823
 111        9D 0       -0.23102
 112        9D+1       -0.22917
 113        9D-1       -0.07803
 114        9D+2        0.36365
 115        9D-2        0.06870
 116 5   Cl 1S          0.00000
 117        2S          0.00000
 118        3S          0.00001
 119        4S          0.00000
 120        5S         -0.00004
 121        6S         -0.00006
 122        7PX         0.00151
 123        7PY         0.00261
 124        7PZ         0.00000
 125        8PX         0.02988
 126        8PY         0.05172
 127        8PZ        -0.00003
 128        9PX        -0.00508
 129        9PY        -0.00880
 130        9PZ         0.00001
 131       10PX        -0.21296
 132       10PY        -0.36866
 133       10PZ         0.00023
 134       11PX         0.12518
 135       11PY         0.21672
 136       11PZ        -0.00011
 137       12D 0        0.00000
 138       12D+1        0.00176
 139       12D-1        0.00303
 140       12D+2       -0.01070
 141       12D-2       -0.00618
 142       13D 0        0.00002
 143       13D+1       -0.01255
 144       13D-1       -0.02168
 145       13D+2        0.03857
 146       13D-2        0.02225
 147       14D 0       -0.00027
 148       14D+1        0.16238
 149       14D-1        0.28090
 150       14D+2       -0.17648
 151       14D-2       -0.10168
 152       15F 0       -0.00002
 153       15F+1        0.00927
 154       15F-1        0.01603
 155       15F+2       -0.00921
 156       15F-2       -0.00530
 157       15F+3       -0.00037
 158       15F-3       -0.00001
 159       16F 0        0.00007
 160       16F+1       -0.03149
 161       16F-1       -0.05444
 162       16F+2        0.03750
 163       16F-2        0.02159
 164       16F+3        0.00078
 165       16F-3        0.00002
 166 6   F  1S          0.00000
 167        2S          0.00000
 168        3S          0.00000
 169        4S         -0.00001
 170        5S         -0.00005
 171        6PX        -0.00083
 172        6PY        -0.00143
 173        6PZ         0.00000
 174        7PX         0.00294
 175        7PY         0.00509
 176        7PZ         0.00000
 177        8PX         0.00000
 178        8PY        -0.00001
 179        8PZ        -0.00001
 180        9PX         0.11379
 181        9PY         0.19699
 182        9PZ        -0.00013
 183       10D 0        0.00000
 184       10D+1       -0.00112
 185       10D-1       -0.00194
 186       10D+2       -0.00235
 187       10D-2       -0.00136
 188       11D 0        0.00000
 189       11D+1        0.00194
 190       11D-1        0.00337
 191       11D+2        0.00836
 192       11D-2        0.00483
 193       12D 0       -0.00003
 194       12D+1        0.01617
 195       12D-1        0.02798
 196       12D+2       -0.01542
 197       12D-2       -0.00888
 198       13F 0        0.00001
 199       13F+1       -0.00417
 200       13F-1       -0.00721
 201       13F+2       -0.00232
 202       13F-2       -0.00135
 203       13F+3        0.00012
 204       13F-3        0.00000
 205       14F 0       -0.00002
 206       14F+1        0.00923
 207       14F-1        0.01599
 208       14F+2        0.00568
 209       14F-2        0.00329
 210       14F+3       -0.00019
 211       14F-3        0.00000
          Condensed to atoms (all electrons):
              1          2          3          4          5          6
     1  C    7.002846  -0.008509  -0.004356  -0.008514  -0.049237  -0.099113
     2  H   -0.008509   0.546483   0.019736   0.020641  -0.018757   0.004409
     3  H   -0.004356   0.019736   0.545055   0.019738  -0.019069   0.002805
     4  H   -0.008514   0.020641   0.019738   0.546485  -0.018756   0.004412
     5  Cl  -0.049237  -0.018757  -0.019069  -0.018756  17.707350   0.026343
     6  F   -0.099113   0.004409   0.002805   0.004412   0.026343   9.908236
 Mulliken atomic charges:
              1
     1  C   -0.833117
     2  H    0.435998
     3  H    0.436091
     4  H    0.435994
     5  Cl  -0.627875
     6  F   -0.847092
 Sum of Mulliken atomic charges =  -1.00000
 Mulliken charges with hydrogens summed into heavy atoms:
              1
     1  C    0.474966
     5  Cl  -0.627875
     6  F   -0.847092
 Sum of Mulliken charges with hydrogens summed into heavy atoms =  -1.00000
 Electronic spatial extent (au):  <R**2>=            490.3527
 Charge=             -1.0000 electrons
 Dipole moment (field-independent basis, Debye):
    X=             -0.0002    Y=              0.0005    Z=              4.0733  Tot=              4.0733
 Quadrupole moment (field-independent basis, Debye-Ang):
   XX=            -28.1837   YY=            -28.1829   ZZ=            -62.8095
   XY=              0.0007   XZ=              0.0068   YZ=             -0.0212
 Traceless Quadrupole moment (field-independent basis, Debye-Ang):
   XX=             11.5416   YY=             11.5425   ZZ=            -23.0841
   XY=              0.0007   XZ=              0.0068   YZ=             -0.0212
 Octapole moment (field-independent basis, Debye-Ang**2):
  XXX=             -0.0203  YYY=             -0.9761  ZZZ=             49.8113  XYY=             -0.0072
  XXY=              0.9389  XXZ=             -4.2297  XZZ=             -0.0144  YZZ=              0.0157
  YYZ=             -4.2217  XYZ=              0.0061
 Hexadecapole moment (field-independent basis, Debye-Ang**3):
 XXXX=            -41.2772 YYYY=            -41.2706 ZZZZ=           -761.7375 XXXY=              0.0031
 XXXZ=             -0.0540 YYYX=              0.0028 YYYZ=              0.5211 ZZZX=             -0.0499
 ZZZY=             -0.1981 XXYY=            -13.7580 XXZZ=           -103.3744 YYZZ=           -103.3867
 XXYZ=             -0.6815 YYXZ=             -0.0177 ZZXY=             -0.0095
 N-N= 8.497636312951D+01 E-N=-1.604162782418D+03  KE= 5.991932719940D+02
 1\1\GINC-TRAPISTA\SP\RQCISD-FC\Aug-CC-pVTZ\C1H3Cl1F1(1-)\BRUNS\10-Aug-
 2021\0\\# QCISD aug-cc-pvtz nosymm density=current output=wfn\\title l
 ine\\-1,1\C,0,0.000175,0.000029,-0.497709\H,0,0.000019,-1.05257,-0.620
 726\H,0,-0.911312,0.526365,-0.631245\H,0,0.91175,0.526132,-0.62157\Cl,
 0,0.000555,0.000962,1.644718\F,0,-0.000186,-0.000921,-2.59346\\Version
 =EM64L-G09RevB.01\HF=-598.6171148\MP2=-599.2912812\MP3=-599.3099894\MP
 4D=-599.3248824\MP4DQ=-599.3104412\MP4SDQ=-599.319806\QCISD=-599.31918
 71\RMSD=9.359e-09\Dipole=0.000407,0.0006487,1.5895754\Quadrupole=8.580
 9232,8.581534,-17.1624572,0.0005254,0.0050333,-0.0157825\PG=C01 [X(C1H
 3Cl1F1)]\\@

 Writing a WFN file to GAUSSIAN-ZH_3.wfn.


 IT IS DOUBTED WHETHER A MAN EVER BRINGS HIS FACULTIES TO BEAR WITH THEIR FULL FORCE
 ON A SUBJECT UNTIL HE WRITES UPON IT.

                          -- CICERO
 Job cpu time:  0 days  7 hours 38 minutes 26.1 seconds.
 File lengths (MBytes):  RWF=  29002 Int=      0 D2E=      0 Chk=      4 Scr=      1
 Normal termination of Gaussian 09 at Tue Aug 10 21:17:35 2021.
