 Entering Gaussian System, Link 0=/home/bruns/programas/chemistry/gaussian/g09/g09
 Input=GAUSSIAN.com
 Output=GAUSSIAN.log
 Initial command:
 /home/bruns/programas/chemistry/gaussian/g09/l1.exe /home/bruns/programas/chemistry/gaussian/work/Gau-7632.inp -scrdir=/home/bruns/programas/chemistry/gaussian/work/
 Entering Link 1 = /home/bruns/programas/chemistry/gaussian/g09/l1.exe PID=      7634.
  
 Copyright (c) 1988,1990,1992,1993,1995,1998,2003,2009,2010,
            Gaussian, Inc.  All Rights Reserved.
  
 This is part of the Gaussian(R) 09 program.  It is based on
 the Gaussian(R) 03 system (copyright 2003, Gaussian, Inc.),
 the Gaussian(R) 98 system (copyright 1998, Gaussian, Inc.),
 the Gaussian(R) 94 system (copyright 1995, Gaussian, Inc.),
 the Gaussian 92(TM) system (copyright 1992, Gaussian, Inc.),
 the Gaussian 90(TM) system (copyright 1990, Gaussian, Inc.),
 the Gaussian 88(TM) system (copyright 1988, Gaussian, Inc.),
 the Gaussian 86(TM) system (copyright 1986, Carnegie Mellon
 University), and the Gaussian 82(TM) system (copyright 1983,
 Carnegie Mellon University). Gaussian is a federally registered
 trademark of Gaussian, Inc.
  
 This software contains proprietary and confidential information,
 including trade secrets, belonging to Gaussian, Inc.
  
 This software is provided under written license and may be
 used, copied, transmitted, or stored only in accord with that
 written license.
  
 The following legend is applicable only to US Government
 contracts under FAR:
  
                    RESTRICTED RIGHTS LEGEND
  
 Use, reproduction and disclosure by the US Government is
 subject to restrictions as set forth in subparagraphs (a)
 and (c) of the Commercial Computer Software - Restricted
 Rights clause in FAR 52.227-19.
  
 Gaussian, Inc.
 340 Quinnipiac St., Bldg. 40, Wallingford CT 06492
  
  
 ---------------------------------------------------------------
 Warning -- This program may not be used in any manner that
 competes with the business of Gaussian, Inc. or will provide
 assistance to any competitor of Gaussian, Inc.  The licensee
 of this program is prohibited from giving any competitor of
 Gaussian, Inc. access to this program.  By using this program,
 the user acknowledges that Gaussian, Inc. is engaged in the
 business of creating and licensing software in the field of
 computational chemistry and represents and warrants to the
 licensee that it is not a competitor of Gaussian, Inc. and that
 it will not use this program in any manner prohibited above.
 ---------------------------------------------------------------
  

 Cite this work as:
 Gaussian 09, Revision B.01,
 M. J. Frisch, G. W. Trucks, H. B. Schlegel, G. E. Scuseria, 
 M. A. Robb, J. R. Cheeseman, G. Scalmani, V. Barone, B. Mennucci, 
 G. A. Petersson, H. Nakatsuji, M. Caricato, X. Li, H. P. Hratchian, 
 A. F. Izmaylov, J. Bloino, G. Zheng, J. L. Sonnenberg, M. Hada, 
 M. Ehara, K. Toyota, R. Fukuda, J. Hasegawa, M. Ishida, T. Nakajima, 
 Y. Honda, O. Kitao, H. Nakai, T. Vreven, J. A. Montgomery, Jr., 
 J. E. Peralta, F. Ogliaro, M. Bearpark, J. J. Heyd, E. Brothers, 
 K. N. Kudin, V. N. Staroverov, T. Keith, R. Kobayashi, J. Normand, 
 K. Raghavachari, A. Rendell, J. C. Burant, S. S. Iyengar, J. Tomasi, 
 M. Cossi, N. Rega, J. M. Millam, M. Klene, J. E. Knox, J. B. Cross, 
 V. Bakken, C. Adamo, J. Jaramillo, R. Gomperts, R. E. Stratmann, 
 O. Yazyev, A. J. Austin, R. Cammi, C. Pomelli, J. W. Ochterski, 
 R. L. Martin, K. Morokuma, V. G. Zakrzewski, G. A. Voth, 
 P. Salvador, J. J. Dannenberg, S. Dapprich, A. D. Daniels, 
 O. Farkas, J. B. Foresman, J. V. Ortiz, J. Cioslowski, 
 and D. J. Fox, Gaussian, Inc., Wallingford CT, 2010.
 
 ******************************************
 Gaussian 09:  EM64L-G09RevB.01 12-Aug-2010
                 5-Aug-2021 
 ******************************************
 %nproc=8
 Will use up to    8 processors via shared memory.
 %mem=8GB
 -----------------------------------------------------
 # QCISD aug-cc-pvtz nosymm density=current output=wfn
 -----------------------------------------------------
 1/30=1,38=1/1;
 2/12=2,15=1,17=6,18=5,40=1/2;
 3/5=16,6=1,7=10,11=9,16=1,25=1,30=1,71=1/1,2,3;
 4//1;
 5/5=2,38=5/2;
 8/6=4,9=120000,10=1/1,4;
 9/5=8,15=1/13;
 11/28=-7,31=1,32=3,42=3/11;
 10/5=6,13=10,31=1/2;
 6/7=2,8=2,9=2,10=2,22=-1,31=1/1;
 99/5=1,6=1100,9=1/99;
 ----------
 title line
 ----------
 Symbolic Z-matrix:
 Charge = -1 Multiplicity = 1
 C                     0.00018   0.00003  -0.49771 
 H                     0.00002  -1.05257  -0.62073 
 H                    -0.91131   0.52637  -0.62125 
 H                     0.91175   0.52613  -0.62157 
 Cl                    0.00056   0.00096   1.64472 
 F                    -0.00019  -0.00092  -2.59346 
 
                          Input orientation:                          
 ---------------------------------------------------------------------
 Center     Atomic      Atomic             Coordinates (Angstroms)
 Number     Number       Type             X           Y           Z
 ---------------------------------------------------------------------
      1          6           0        0.000175    0.000029   -0.497709
      2          1           0        0.000019   -1.052570   -0.620726
      3          1           0       -0.911312    0.526365   -0.621245
      4          1           0        0.911750    0.526132   -0.621570
      5         17           0        0.000555    0.000962    1.644718
      6          9           0       -0.000186   -0.000921   -2.593460
 ---------------------------------------------------------------------
                    Distance matrix (angstroms):
                    1          2          3          4          5
     1  C    0.000000
     2  H    1.059763   0.000000
     3  H    1.059764   1.823063   0.000000
     4  H    1.059762   1.823062   1.823062   0.000000
     5  Cl   2.142427   2.498433   2.498427   2.498428   0.000000
     6  F    2.095751   2.235541   2.235579   2.235568   4.238178
                    6
     6  F    0.000000
 Symmetry turned off by external request.
 This structure is nearly, but not quite of a higher symmetry.
 Consider Symm=Loose if the higher symmetry is desired.
 Stoichiometry    CH3ClF(1-)
 Framework group  C1[X(CH3ClF)]
 Deg. of freedom    12
 Full point group                 C1      NOp   1
 Rotational constants (GHZ):    150.8790651      2.2147299      2.2147299
 Standard basis: Aug-CC-pVTZ (5D, 7F)
 Integral buffers will be    131072 words long.
 Raffenetti 1 integral format.
 Two-electron integral symmetry is turned off.
   211 basis functions,   339 primitive gaussians,   244 cartesian basis functions
    18 alpha electrons       18 beta electrons
       nuclear repulsion energy        84.9843883546 Hartrees.
 NAtoms=    6 NActive=    6 NUniq=    6 SFac= 1.00D+00 NAtFMM=   50 NAOKFM=F Big=F
 One-electron integrals computed using PRISM.
 NBasis=   211 RedAO= T  NBF=   211
 NBsUse=   211 1.00D-06 NBFU=   211
 Harris functional with IExCor=  205 diagonalized for initial guess.
 ExpMin= 2.53D-02 ExpMax= 4.56D+05 ExpMxC= 1.44D+03 IAcc=3 IRadAn=         0 AccDes= 0.00D+00
 HarFok:  IExCor=  205 AccDes= 0.00D+00 IRadAn=         0 IDoV= 1
 ScaDFX=  1.000000  1.000000  1.000000  1.000000
 FoFCou: FMM=F IPFlag=           0 FMFlag=      100000 FMFlg1=           0
         NFxFlg=           0 DoJE=T BraDBF=F KetDBF=T FulRan=T
         Omega=  0.000000  0.000000  1.000000  0.000000  0.000000 ICntrl=     500 IOpCl=  0
         NMat0=    1 NMatS0=    1 NMatT0=    0 NMatD0=    1 NMtDS0=    0 NMtDT0=    0
         I1Cent=           4 NGrid=           0.
 Symmetry not used in FoFCou.
 Requested convergence on RMS density matrix=1.00D-08 within 128 cycles.
 Requested convergence on MAX density matrix=1.00D-06.
 Requested convergence on             energy=1.00D-06.
 No special actions if energy rises.
 Keep R1 ints in memory in canonical form, NReq=454274131.
 SCF Done:  E(RHF) =  -598.617124355     A.U. after   12 cycles
             Convg  =    0.9411D-08             -V/T =  2.0001
 ExpMin= 2.53D-02 ExpMax= 4.56D+05 ExpMxC= 1.44D+03 IAcc=3 IRadAn=         5 AccDes= 0.00D+00
 HarFok:  IExCor=  205 AccDes= 0.00D+00 IRadAn=         5 IDoV=-2
 ScaDFX=  1.000000  1.000000  1.000000  1.000000
 DSYEVD returned Info=          93 IAlg= 4 N=    46 NDim=    46 NE2=    21472034 trying DSYEV.
 Range of M.O.s used for correlation:     8   211
 NBasis=   211 NAE=    18 NBE=    18 NFC=     7 NFV=     0
 NROrb=    204 NOA=    11 NOB=    11 NVA=   193 NVB=   193

 **** Warning!!: The largest alpha MO coefficient is  0.35242275D+02

 Semi-Direct transformation.
 ModeAB=           2 MOrb=            11 LenV=    1072528222
 LASXX=     44979418 LTotXX=    44979418 LenRXX=    44979418
 LTotAB=    45631872 MaxLAS=    67073160 LenRXY=    67073160
 NonZer=    89958836 LenScr=   135708672 LnRSAI=           0
 LnScr1=           0 LExtra=           0 Total=    247761250
 MaxDsk=          -1 SrtSym=           F ITran=            4
 JobTyp=0 Pass  1:  I=   1 to  11.
 (rs|ai) integrals will be sorted in core.
 Spin components of T(2) and E(2):
     alpha-alpha T2 =       0.2567355411D-01 E2=     -0.8208216693D-01
     alpha-beta  T2 =       0.1452557362D+00 E2=     -0.5099785144D+00
     beta-beta   T2 =       0.2567355411D-01 E2=     -0.8208216693D-01
 ANorm=    0.1093893434D+01
 E2 =    -0.6741428482D+00 EUMP2 =    -0.59929126720313D+03
 R2 and R3 integrals will be kept in memory, NReq=   900794930.
 Iterations=  50 Convergence= 0.100D-07
 Iteration Nr.   1
 **********************
 DD1Dir will call FoFMem   1 times, MxPair=       132
 NAB=    66 NAA=     0 NBB=     0.
 MP4(R+Q)=  0.14438878D-01
 E3=       -0.18700991D-01        EUMP3=      -0.59930996819D+03
 E4(DQ)=   -0.45150742D-03        UMP4(DQ)=   -0.59931041970D+03
 E4(SDQ)=  -0.98176814D-02        UMP4(SDQ)=  -0.59931978588D+03
 DE(Corr)= -0.67840496     E(Corr)=     -599.29552932    
 NORM(A)=   0.10996848D+01
 Iteration Nr.   2
 **********************
 DD1Dir will call FoFMem   1 times, MxPair=       132
 NAB=    66 NAA=     0 NBB=     0.
 DE(Corr)= -0.70060473     E(CORR)=     -599.31772909     Delta=-2.22D-02
 NORM(A)=   0.11070391D+01
 Iteration Nr.   3
 **********************
 DD1Dir will call FoFMem   1 times, MxPair=       132
 NAB=    66 NAA=     0 NBB=     0.
 DE(Corr)= -0.69820781     E(CORR)=     -599.31533216     Delta= 2.40D-03
 NORM(A)=   0.11110241D+01
 Iteration Nr.   4
 **********************
 DD1Dir will call FoFMem   1 times, MxPair=       132
 NAB=    66 NAA=     0 NBB=     0.
 DE(Corr)= -0.70126687     E(CORR)=     -599.31839122     Delta=-3.06D-03
 NORM(A)=   0.11131279D+01
 Iteration Nr.   5
 **********************
 DD1Dir will call FoFMem   1 times, MxPair=       132
 NAB=    66 NAA=     0 NBB=     0.
 DE(Corr)= -0.70186183     E(CORR)=     -599.31898619     Delta=-5.95D-04
 NORM(A)=   0.11141589D+01
 Iteration Nr.   6
 **********************
 DD1Dir will call FoFMem   1 times, MxPair=       132
 NAB=    66 NAA=     0 NBB=     0.
 DE(Corr)= -0.70200861     E(CORR)=     -599.31913297     Delta=-1.47D-04
 NORM(A)=   0.11144847D+01
 Iteration Nr.   7
 **********************
 DD1Dir will call FoFMem   1 times, MxPair=       132
 NAB=    66 NAA=     0 NBB=     0.
 DE(Corr)= -0.70203833     E(CORR)=     -599.31916269     Delta=-2.97D-05
 NORM(A)=   0.11145158D+01
 Iteration Nr.   8
 **********************
 DD1Dir will call FoFMem   1 times, MxPair=       132
 NAB=    66 NAA=     0 NBB=     0.
 DE(Corr)= -0.70205221     E(CORR)=     -599.31917657     Delta=-1.39D-05
 NORM(A)=   0.11145336D+01
 Iteration Nr.   9
 **********************
 DD1Dir will call FoFMem   1 times, MxPair=       132
 NAB=    66 NAA=     0 NBB=     0.
 DE(Corr)= -0.70202900     E(CORR)=     -599.31915335     Delta= 2.32D-05
 NORM(A)=   0.11145368D+01
 Iteration Nr.  10
 **********************
 DD1Dir will call FoFMem   1 times, MxPair=       132
 NAB=    66 NAA=     0 NBB=     0.
 DE(Corr)= -0.70204830     E(CORR)=     -599.31917265     Delta=-1.93D-05
 NORM(A)=   0.11145370D+01
 Iteration Nr.  11
 **********************
 DD1Dir will call FoFMem   1 times, MxPair=       132
 NAB=    66 NAA=     0 NBB=     0.
 DE(Corr)= -0.70203910     E(CORR)=     -599.31916346     Delta= 9.19D-06
 NORM(A)=   0.11145398D+01
 Iteration Nr.  12
 **********************
 DD1Dir will call FoFMem   1 times, MxPair=       132
 NAB=    66 NAA=     0 NBB=     0.
 DE(Corr)= -0.70204286     E(CORR)=     -599.31916721     Delta=-3.75D-06
 NORM(A)=   0.11145403D+01
 Iteration Nr.  13
 **********************
 DD1Dir will call FoFMem   1 times, MxPair=       132
 NAB=    66 NAA=     0 NBB=     0.
 DE(Corr)= -0.70204342     E(CORR)=     -599.31916778     Delta=-5.66D-07
 NORM(A)=   0.11145410D+01
 Iteration Nr.  14
 **********************
 DD1Dir will call FoFMem   1 times, MxPair=       132
 NAB=    66 NAA=     0 NBB=     0.
 DE(Corr)= -0.70204365     E(CORR)=     -599.31916800     Delta=-2.24D-07
 NORM(A)=   0.11145411D+01
 Iteration Nr.  15
 **********************
 DD1Dir will call FoFMem   1 times, MxPair=       132
 NAB=    66 NAA=     0 NBB=     0.
 DE(Corr)= -0.70204356     E(CORR)=     -599.31916791     Delta= 9.05D-08
 NORM(A)=   0.11145411D+01
 Iteration Nr.  16
 **********************
 DD1Dir will call FoFMem   1 times, MxPair=       132
 NAB=    66 NAA=     0 NBB=     0.
 DE(Corr)= -0.70204376     E(CORR)=     -599.31916811     Delta=-2.03D-07
 NORM(A)=   0.11145409D+01
 Iteration Nr.  17
 **********************
 DD1Dir will call FoFMem   1 times, MxPair=       132
 NAB=    66 NAA=     0 NBB=     0.
 DE(Corr)= -0.70204363     E(CORR)=     -599.31916798     Delta= 1.31D-07
 NORM(A)=   0.11145408D+01
 Iteration Nr.  18
 **********************
 DD1Dir will call FoFMem   1 times, MxPair=       132
 NAB=    66 NAA=     0 NBB=     0.
 DE(Corr)= -0.70204366     E(CORR)=     -599.31916802     Delta=-3.67D-08
 NORM(A)=   0.11145406D+01
 Iteration Nr.  19
 **********************
 DD1Dir will call FoFMem   1 times, MxPair=       132
 NAB=    66 NAA=     0 NBB=     0.
 DE(Corr)= -0.70204361     E(CORR)=     -599.31916797     Delta= 5.25D-08
 NORM(A)=   0.11145405D+01
 Iteration Nr.  20
 **********************
 DD1Dir will call FoFMem   1 times, MxPair=       132
 NAB=    66 NAA=     0 NBB=     0.
 DE(Corr)= -0.70204361     E(CORR)=     -599.31916797     Delta=-2.48D-09
 NORM(A)=   0.11145405D+01
 Iteration Nr.  21
 **********************
 DD1Dir will call FoFMem   1 times, MxPair=       132
 NAB=    66 NAA=     0 NBB=     0.
 DE(Corr)= -0.70204360     E(CORR)=     -599.31916795     Delta= 1.89D-08
 NORM(A)=   0.11145404D+01
 Iteration Nr.  22
 **********************
 DD1Dir will call FoFMem   1 times, MxPair=       132
 NAB=    66 NAA=     0 NBB=     0.
 DE(Corr)= -0.70204359     E(CORR)=     -599.31916795     Delta= 3.53D-09
 NORM(A)=   0.11145404D+01
 Iteration Nr.  23
 **********************
 DD1Dir will call FoFMem   1 times, MxPair=       132
 NAB=    66 NAA=     0 NBB=     0.
 DE(Corr)= -0.70204359     E(CORR)=     -599.31916794     Delta= 4.79D-09
 NORM(A)=   0.11145404D+01
 Iteration Nr.  24
 **********************
 DD1Dir will call FoFMem   1 times, MxPair=       132
 NAB=    66 NAA=     0 NBB=     0.
 DE(Corr)= -0.70204359     E(CORR)=     -599.31916794     Delta=-9.90D-10
 NORM(A)=   0.11145404D+01
 Iteration Nr.  25
 **********************
 DD1Dir will call FoFMem   1 times, MxPair=       132
 NAB=    66 NAA=     0 NBB=     0.
 DE(Corr)= -0.70204358     E(CORR)=     -599.31916794     Delta= 5.90D-09
 NORM(A)=   0.11145404D+01
 Iteration Nr.  26
 **********************
 DD1Dir will call FoFMem   1 times, MxPair=       132
 NAB=    66 NAA=     0 NBB=     0.
 DE(Corr)= -0.70204359     E(CORR)=     -599.31916794     Delta=-6.02D-09
 NORM(A)=   0.11145404D+01
 Iteration Nr.  27
 **********************
 DD1Dir will call FoFMem   1 times, MxPair=       132
 NAB=    66 NAA=     0 NBB=     0.
 DE(Corr)= -0.70204359     E(CORR)=     -599.31916794     Delta=-1.50D-11
 NORM(A)=   0.11145404D+01
 Iteration Nr.  28
 **********************
 DD1Dir will call FoFMem   1 times, MxPair=       132
 NAB=    66 NAA=     0 NBB=     0.
 DE(Corr)= -0.70204359     E(CORR)=     -599.31916794     Delta= 1.65D-11
 NORM(A)=   0.11145404D+01
 Iteration Nr.  29
 **********************
 DD1Dir will call FoFMem   1 times, MxPair=       132
 NAB=    66 NAA=     0 NBB=     0.
 DE(Corr)= -0.70204359     E(CORR)=     -599.31916794     Delta= 9.81D-11
 NORM(A)=   0.11145404D+01
 Iteration Nr.  30
 **********************
 DD1Dir will call FoFMem   1 times, MxPair=       132
 NAB=    66 NAA=     0 NBB=     0.
 DE(Corr)= -0.70204359     E(CORR)=     -599.31916794     Delta=-2.88D-11
 NORM(A)=   0.11145404D+01
 Iteration Nr.  31
 **********************
 DD1Dir will call FoFMem   1 times, MxPair=       132
 NAB=    66 NAA=     0 NBB=     0.
 DE(Corr)= -0.70204358     E(CORR)=     -599.31916794     Delta= 4.65D-09
 NORM(A)=   0.11145404D+01
 Iteration Nr.  32
 **********************
 DD1Dir will call FoFMem   1 times, MxPair=       132
 NAB=    66 NAA=     0 NBB=     0.
 DE(Corr)= -0.70204359     E(CORR)=     -599.31916794     Delta=-4.29D-09
 NORM(A)=   0.11145404D+01
 Largest amplitude= 6.61D-02

 Z-AMPLITUDE ITERATIONS

 Iteration Nr.   1
 **********************
 DD1Dir will call FoFMem   1 times, MxPair=       132
 NAB=    66 NAA=     0 NBB=     0.
 DE(Z)  -0.68265156D+00          E(Z)=    -0.59929977591D+03
 NORM(A)=   0.11166581D+01
 Iteration Nr.   2
 **********************
 DD1Dir will call FoFMem   1 times, MxPair=       132
 NAB=    66 NAA=     0 NBB=     0.
 DE(Z)  -0.68288267D+00          E(Z)=    -0.59930000702D+03
 NORM(A)=   0.11151364D+01
 Iteration Nr.   3
 **********************
 DD1Dir will call FoFMem   1 times, MxPair=       132
 NAB=    66 NAA=     0 NBB=     0.
 DE(Z)  -0.68270813D+00          E(Z)=    -0.59929983249D+03
 NORM(A)=   0.11159345D+01
 Iteration Nr.   4
 **********************
 DD1Dir will call FoFMem   1 times, MxPair=       132
 NAB=    66 NAA=     0 NBB=     0.
 DE(Z)  -0.68279023D+00          E(Z)=    -0.59929991458D+03
 NORM(A)=   0.11111120D+01
 Iteration Nr.   5
 **********************
 DD1Dir will call FoFMem   1 times, MxPair=       132
 NAB=    66 NAA=     0 NBB=     0.
 DE(Z)  -0.68231333D+00          E(Z)=    -0.59929943769D+03
 NORM(A)=   0.11078850D+01
 Iteration Nr.   6
 **********************
 DD1Dir will call FoFMem   1 times, MxPair=       132
 NAB=    66 NAA=     0 NBB=     0.
 DE(Z)  -0.68198247D+00          E(Z)=    -0.59929910683D+03
 NORM(A)=   0.11078796D+01
 Iteration Nr.   7
 **********************
 DD1Dir will call FoFMem   1 times, MxPair=       132
 NAB=    66 NAA=     0 NBB=     0.
 DE(Z)  -0.68198507D+00          E(Z)=    -0.59929910943D+03
 NORM(A)=   0.11078739D+01
 Iteration Nr.   8
 **********************
 DD1Dir will call FoFMem   1 times, MxPair=       132
 NAB=    66 NAA=     0 NBB=     0.
 DE(Z)  -0.68198294D+00          E(Z)=    -0.59929910730D+03
 NORM(A)=   0.11078708D+01
 Iteration Nr.   9
 **********************
 DD1Dir will call FoFMem   1 times, MxPair=       132
 NAB=    66 NAA=     0 NBB=     0.
 DE(Z)  -0.68198245D+00          E(Z)=    -0.59929910681D+03
 NORM(A)=   0.11078699D+01
 Iteration Nr.  10
 **********************
 DD1Dir will call FoFMem   1 times, MxPair=       132
 NAB=    66 NAA=     0 NBB=     0.
 DE(Z)  -0.68198295D+00          E(Z)=    -0.59929910730D+03
 NORM(A)=   0.11078695D+01
 Iteration Nr.  11
 **********************
 DD1Dir will call FoFMem   1 times, MxPair=       132
 NAB=    66 NAA=     0 NBB=     0.
 DE(Z)  -0.68198275D+00          E(Z)=    -0.59929910711D+03
 NORM(A)=   0.11078695D+01
 Iteration Nr.  12
 **********************
 DD1Dir will call FoFMem   1 times, MxPair=       132
 NAB=    66 NAA=     0 NBB=     0.
 DE(Z)  -0.68198274D+00          E(Z)=    -0.59929910709D+03
 NORM(A)=   0.11078695D+01
 Iteration Nr.  13
 **********************
 DD1Dir will call FoFMem   1 times, MxPair=       132
 NAB=    66 NAA=     0 NBB=     0.
 DE(Z)  -0.68198281D+00          E(Z)=    -0.59929910717D+03
 NORM(A)=   0.11078695D+01
 Iteration Nr.  14
 **********************
 DD1Dir will call FoFMem   1 times, MxPair=       132
 NAB=    66 NAA=     0 NBB=     0.
 DE(Z)  -0.68198280D+00          E(Z)=    -0.59929910715D+03
 NORM(A)=   0.11078695D+01
 Iteration Nr.  15
 **********************
 DD1Dir will call FoFMem   1 times, MxPair=       132
 NAB=    66 NAA=     0 NBB=     0.
 DE(Z)  -0.68198281D+00          E(Z)=    -0.59929910716D+03
 NORM(A)=   0.11078695D+01
 Iteration Nr.  16
 **********************
 DD1Dir will call FoFMem   1 times, MxPair=       132
 NAB=    66 NAA=     0 NBB=     0.
 DE(Z)  -0.68198281D+00          E(Z)=    -0.59929910717D+03
 NORM(A)=   0.11078695D+01
 Iteration Nr.  17
 **********************
 DD1Dir will call FoFMem   1 times, MxPair=       132
 NAB=    66 NAA=     0 NBB=     0.
 DE(Z)  -0.68198281D+00          E(Z)=    -0.59929910716D+03
 NORM(A)=   0.11078695D+01
 Iteration Nr.  18
 **********************
 DD1Dir will call FoFMem   1 times, MxPair=       132
 NAB=    66 NAA=     0 NBB=     0.
 DE(Z)  -0.68198281D+00          E(Z)=    -0.59929910716D+03
 NORM(A)=   0.11078695D+01
 Iteration Nr.  19
 **********************
 DD1Dir will call FoFMem   1 times, MxPair=       132
 NAB=    66 NAA=     0 NBB=     0.
 DE(Z)  -0.68198281D+00          E(Z)=    -0.59929910716D+03
 NORM(A)=   0.11078694D+01
 Iteration Nr.  20
 **********************
 DD1Dir will call FoFMem   1 times, MxPair=       132
 NAB=    66 NAA=     0 NBB=     0.
 DE(Z)  -0.68198281D+00          E(Z)=    -0.59929910716D+03
 NORM(A)=   0.11078694D+01
 Iteration Nr.  21
 **********************
 DD1Dir will call FoFMem   1 times, MxPair=       132
 NAB=    66 NAA=     0 NBB=     0.
 DE(Z)  -0.68198281D+00          E(Z)=    -0.59929910716D+03
 NORM(A)=   0.11078694D+01
 Discarding MO integrals.
          Differentiating once with respect to electric field.
                with respect to dipole field.
          Electric field/nuclear overlap derivatives assumed to be zero.
          Keep R1 ints in memory in canonical form, NReq=448662239.
          There are     1 degrees of freedom in the 1st order CPHF.  IDoFFX=0.
 LinEq1:  Iter=  0 NonCon=     1 RMS=3.11D-03 Max=1.20D-01
 AX will form     1 AO Fock derivatives at one time.
 LinEq1:  Iter=  1 NonCon=     1 RMS=6.94D-04 Max=7.34D-03
 LinEq1:  Iter=  2 NonCon=     1 RMS=2.29D-04 Max=5.72D-03
 LinEq1:  Iter=  3 NonCon=     1 RMS=9.49D-05 Max=1.43D-03
 LinEq1:  Iter=  4 NonCon=     1 RMS=3.84D-05 Max=4.10D-04
 LinEq1:  Iter=  5 NonCon=     1 RMS=1.06D-05 Max=2.26D-04
 LinEq1:  Iter=  6 NonCon=     1 RMS=2.42D-06 Max=4.25D-05
 LinEq1:  Iter=  7 NonCon=     1 RMS=6.06D-07 Max=9.14D-06
 LinEq1:  Iter=  8 NonCon=     1 RMS=1.49D-07 Max=1.80D-06
 LinEq1:  Iter=  9 NonCon=     1 RMS=3.03D-08 Max=7.47D-07
 LinEq1:  Iter= 10 NonCon=     1 RMS=6.54D-09 Max=8.80D-08
 LinEq1:  Iter= 11 NonCon=     1 RMS=1.05D-09 Max=1.16D-08
 LinEq1:  Iter= 12 NonCon=     1 RMS=1.68D-10 Max=2.85D-09
 LinEq1:  Iter= 13 NonCon=     0 RMS=2.40D-11 Max=3.21D-10
 Linear equations converged to 1.000D-10 1.000D-09 after    13 iterations.
 End of Minotr Frequency-dependent properties file   721 does not exist.
 End of Minotr Frequency-dependent properties file   722 does not exist.

 **********************************************************************

            Population analysis using the QCI/CC density.

 **********************************************************************

     Natural Orbital Coefficients:
                           1         2         3         4         5
     Eigenvalues --     2.00003   2.00003   2.00002   2.00001   2.00001
   1 1   C  1S          0.00000   0.00000  -0.04328   0.08033   0.97619
   2        2S          0.00000   0.00000   0.00131   0.00050  -0.01332
   3        3S          0.00000   0.00000  -0.00132   0.00400   0.03985
   4        4S          0.00000   0.00000  -0.01265  -0.02361   0.00311
   5        5S          0.00000   0.00000  -0.00120  -0.00062  -0.00061
   6        6PX         0.00004   0.00002   0.00000   0.00000   0.00000
   7        6PY        -0.00002   0.00004   0.00000   0.00000   0.00000
   8        6PZ         0.00000   0.00000   0.00053   0.00168   0.00087
   9        7PX         0.00074   0.00040   0.00000   0.00000   0.00000
  10        7PY        -0.00040   0.00074   0.00000   0.00000   0.00000
  11        7PZ         0.00000   0.00000   0.00142   0.00304  -0.00091
  12        8PX         0.00401   0.00217   0.00000   0.00000   0.00000
  13        8PY        -0.00217   0.00401   0.00000   0.00000   0.00000
  14        8PZ         0.00000   0.00000  -0.00373  -0.00410  -0.00309
  15        9PX         0.00037   0.00020   0.00000   0.00000   0.00000
  16        9PY        -0.00020   0.00037   0.00000   0.00000   0.00000
  17        9PZ         0.00000   0.00000   0.00021   0.00017  -0.00049
  18       10D 0        0.00000   0.00000   0.00011   0.00033  -0.00057
  19       10D+1       -0.00013  -0.00007   0.00000   0.00000   0.00000
  20       10D-1        0.00007  -0.00013   0.00000   0.00000   0.00000
  21       10D+2       -0.00002   0.00003   0.00000   0.00000   0.00000
  22       10D-2        0.00003   0.00002   0.00000   0.00000   0.00000
  23       11D 0        0.00000   0.00000   0.00022  -0.00009  -0.00029
  24       11D+1        0.00022   0.00012   0.00000   0.00000   0.00000
  25       11D-1       -0.00012   0.00022   0.00000   0.00000   0.00000
  26       11D+2       -0.00048   0.00089   0.00000   0.00000   0.00000
  27       11D-2        0.00089   0.00048   0.00000   0.00000   0.00000
  28       12D 0        0.00000   0.00000  -0.00078   0.00122  -0.00236
  29       12D+1       -0.00115  -0.00062   0.00000   0.00000   0.00000
  30       12D-1        0.00062  -0.00115   0.00000   0.00000   0.00000
  31       12D+2       -0.00077   0.00143   0.00000   0.00000   0.00000
  32       12D-2        0.00143   0.00077   0.00000   0.00000   0.00000
  33       13F 0        0.00000   0.00000   0.00001   0.00003   0.00019
  34       13F+1       -0.00017  -0.00009   0.00000   0.00000   0.00000
  35       13F-1        0.00009  -0.00017   0.00000   0.00000   0.00000
  36       13F+2       -0.00001   0.00001   0.00000   0.00000   0.00000
  37       13F-2        0.00001   0.00001   0.00000   0.00000   0.00000
  38       13F+3        0.00000   0.00000   0.00000   0.00000   0.00000
  39       13F-3        0.00000   0.00000  -0.00006   0.00007   0.00090
  40       14F 0        0.00000   0.00000  -0.00113  -0.00215  -0.00019
  41       14F+1        0.00051   0.00027   0.00000   0.00000   0.00000
  42       14F-1       -0.00027   0.00051   0.00000   0.00000   0.00000
  43       14F+2       -0.00016   0.00030   0.00000   0.00000   0.00000
  44       14F-2        0.00030   0.00016   0.00000   0.00000   0.00000
  45       14F+3        0.00000   0.00000   0.00000   0.00000   0.00000
  46       14F-3        0.00000   0.00000  -0.00086  -0.00136  -0.00191
  47 2   H  1S          0.00007  -0.00014  -0.00002  -0.00035  -0.00135
  48        2S         -0.00057   0.00105   0.00245   0.00333  -0.00067
  49        3S         -0.00414   0.00766   0.00182   0.00529  -0.00434
  50        4S          0.00013  -0.00024   0.00011   0.00009  -0.00013
  51        5PX         0.00000   0.00000   0.00000   0.00000   0.00000
  52        5PY        -0.00002   0.00003   0.00004  -0.00003  -0.00048
  53        5PZ        -0.00001   0.00001   0.00001   0.00002  -0.00009
  54        6PX         0.00017   0.00009   0.00000   0.00000   0.00000
  55        6PY        -0.00031   0.00058   0.00046   0.00070  -0.00080
  56        6PZ        -0.00029   0.00055  -0.00001  -0.00010   0.00024
  57        7PX         0.00081   0.00044   0.00000   0.00000   0.00000
  58        7PY        -0.00100   0.00185   0.00054   0.00135  -0.00102
  59        7PZ        -0.00013   0.00024   0.00047   0.00092  -0.00006
  60        8D 0       -0.00002   0.00003   0.00001   0.00007   0.00014
  61        8D+1       -0.00001  -0.00001   0.00000   0.00000   0.00000
  62        8D-1       -0.00005   0.00008   0.00002   0.00005  -0.00004
  63        8D+2        0.00002  -0.00004  -0.00004  -0.00005   0.00028
  64        8D-2        0.00001   0.00000   0.00000   0.00000   0.00000
  65        9D 0       -0.00019   0.00034   0.00015   0.00025   0.00063
  66        9D+1        0.00022   0.00012   0.00000   0.00000   0.00000
  67        9D-1       -0.00006   0.00011  -0.00014  -0.00025   0.00001
  68        9D+2        0.00006  -0.00011   0.00001   0.00003  -0.00010
  69        9D-2        0.00010   0.00006   0.00000   0.00000   0.00000
  70 3   H  1S         -0.00016   0.00000  -0.00002  -0.00035  -0.00135
  71        2S          0.00120  -0.00003   0.00245   0.00333  -0.00067
  72        3S          0.00870  -0.00025   0.00183   0.00529  -0.00434
  73        4S         -0.00027   0.00001   0.00011   0.00009  -0.00013
  74        5PX         0.00003   0.00000   0.00004  -0.00002  -0.00042
  75        5PY        -0.00002   0.00000  -0.00002   0.00001   0.00024
  76        5PZ         0.00001   0.00000   0.00001   0.00002  -0.00009
  77        6PX         0.00057   0.00008   0.00040   0.00060  -0.00069
  78        6PY        -0.00033   0.00017  -0.00023  -0.00035   0.00040
  79        6PZ         0.00062  -0.00002  -0.00001  -0.00010   0.00024
  80        7PX         0.00183   0.00041   0.00046   0.00117  -0.00088
  81        7PY        -0.00103   0.00083  -0.00027  -0.00068   0.00051
  82        7PZ         0.00027  -0.00001   0.00047   0.00092  -0.00006
  83        8D 0        0.00004   0.00000   0.00001   0.00007   0.00014
  84        8D+1        0.00008  -0.00001   0.00002   0.00004  -0.00003
  85        8D-1       -0.00005  -0.00001  -0.00001  -0.00002   0.00002
  86        8D+2        0.00002   0.00001   0.00002   0.00003  -0.00014
  87        8D-2       -0.00004   0.00001  -0.00004  -0.00005   0.00024
  88        9D 0        0.00039  -0.00001   0.00015   0.00025   0.00063
  89        9D+1        0.00011   0.00012  -0.00012  -0.00022   0.00001
  90        9D-1       -0.00006   0.00022   0.00007   0.00013   0.00000
  91        9D+2        0.00007   0.00010   0.00000  -0.00001   0.00005
  92        9D-2       -0.00011   0.00006   0.00001   0.00002  -0.00009
  93 4   H  1S          0.00008   0.00013  -0.00002  -0.00035  -0.00135
  94        2S         -0.00063  -0.00102   0.00245   0.00333  -0.00067
  95        3S         -0.00456  -0.00741   0.00183   0.00529  -0.00434
  96        4S          0.00014   0.00023   0.00011   0.00009  -0.00013
  97        5PX         0.00002   0.00002  -0.00004   0.00002   0.00042
  98        5PY         0.00001   0.00001  -0.00002   0.00001   0.00024
  99        5PZ        -0.00001  -0.00001   0.00001   0.00002  -0.00009
 100        6PX         0.00038   0.00044  -0.00040  -0.00060   0.00069
 101        6PY         0.00003   0.00037  -0.00023  -0.00035   0.00040
 102        6PZ        -0.00033  -0.00053  -0.00001  -0.00010   0.00024
 103        7PX         0.00134   0.00131  -0.00046  -0.00117   0.00088
 104        7PY        -0.00013   0.00131  -0.00027  -0.00068   0.00051
 105        7PZ        -0.00014  -0.00023   0.00047   0.00092  -0.00006
 106        8D 0       -0.00002  -0.00003   0.00001   0.00007   0.00014
 107        8D+1        0.00004   0.00007  -0.00002  -0.00004   0.00003
 108        8D-1        0.00004   0.00003  -0.00001  -0.00002   0.00002
 109        8D+2       -0.00002  -0.00002   0.00002   0.00003  -0.00014
 110        8D-2       -0.00002  -0.00004   0.00004   0.00005  -0.00024
 111        9D 0       -0.00020  -0.00033   0.00015   0.00025   0.00063
 112        9D+1        0.00016   0.00003   0.00012   0.00022  -0.00001
 113        9D-1       -0.00015   0.00017   0.00007   0.00013   0.00000
 114        9D+2       -0.00012   0.00000   0.00000  -0.00001   0.00005
 115        9D-2       -0.00001  -0.00012  -0.00001  -0.00002   0.00008
 116 5   Cl 1S          0.00000   0.00000  -0.25059   0.14801  -0.02283
 117        2S          0.00000   0.00000   0.84588  -0.50032   0.07825
 118        3S          0.00000   0.00000  -0.02309   0.00933  -0.00239
 119        4S          0.00000   0.00000   0.06655  -0.04076   0.00643
 120        5S          0.00000   0.00000  -0.00211   0.00778   0.00351
 121        6S          0.00000   0.00000  -0.00154  -0.00213   0.00300
 122        7PX         0.86120   0.46531   0.00009   0.00015  -0.00001
 123        7PY        -0.46531   0.86120   0.00022   0.00036  -0.00002
 124        7PZ         0.00005  -0.00046   0.50091   0.83587  -0.04716
 125        8PX        -0.01685  -0.00910   0.00000   0.00000   0.00000
 126        8PY         0.00910  -0.01685   0.00000  -0.00001   0.00000
 127        8PZ         0.00000   0.00001  -0.00878  -0.01404   0.00011
 128        9PX         0.04604   0.02488   0.00001   0.00001   0.00000
 129        9PY        -0.02488   0.04604   0.00001   0.00002   0.00000
 130        9PZ         0.00000  -0.00002   0.02844   0.04954  -0.00267
 131       10PX        -0.00508  -0.00275   0.00000   0.00000   0.00000
 132       10PY         0.00275  -0.00508   0.00000   0.00000   0.00000
 133       10PZ         0.00000   0.00000  -0.00435  -0.00275  -0.00347
 134       11PX        -0.00189  -0.00102   0.00000   0.00000   0.00000
 135       11PY         0.00102  -0.00189   0.00000   0.00000   0.00000
 136       11PZ         0.00000   0.00000  -0.00036  -0.00015  -0.00053
 137       12D 0        0.00000   0.00000   0.00001  -0.00051  -0.00017
 138       12D+1       -0.00028  -0.00015   0.00000   0.00000   0.00000
 139       12D-1        0.00015  -0.00028   0.00000   0.00000   0.00000
 140       12D+2        0.00000   0.00001   0.00000   0.00000   0.00000
 141       12D-2        0.00001   0.00000   0.00000   0.00000   0.00000
 142       13D 0        0.00000   0.00000   0.00088   0.00244   0.00042
 143       13D+1        0.00071   0.00038   0.00000   0.00000   0.00000
 144       13D-1       -0.00038   0.00071   0.00000   0.00000   0.00000
 145       13D+2        0.00001  -0.00002   0.00000   0.00000   0.00000
 146       13D-2       -0.00002  -0.00001   0.00000   0.00000   0.00000
 147       14D 0        0.00000   0.00000   0.00058  -0.00017   0.00080
 148       14D+1       -0.00063  -0.00034   0.00000   0.00000   0.00000
 149       14D-1        0.00034  -0.00063   0.00000   0.00000   0.00000
 150       14D+2       -0.00001   0.00003   0.00000   0.00000   0.00000
 151       14D-2        0.00003   0.00001   0.00000   0.00000   0.00000
 152       15F 0        0.00000   0.00000   0.00001  -0.00007  -0.00003
 153       15F+1       -0.00001   0.00000   0.00000   0.00000   0.00000
 154       15F-1        0.00000  -0.00001   0.00000   0.00000   0.00000
 155       15F+2       -0.00001   0.00002   0.00000   0.00000   0.00000
 156       15F-2        0.00002   0.00001   0.00000   0.00000   0.00000
 157       15F+3        0.00000   0.00000   0.00000   0.00000   0.00000
 158       15F-3        0.00000   0.00000   0.00001   0.00003   0.00000
 159       16F 0        0.00000   0.00000  -0.00032  -0.00058  -0.00031
 160       16F+1       -0.00020  -0.00011   0.00000   0.00000   0.00000
 161       16F-1        0.00011  -0.00020   0.00000   0.00000   0.00000
 162       16F+2        0.00002  -0.00003   0.00000   0.00000   0.00000
 163       16F-2       -0.00003  -0.00002   0.00000   0.00000   0.00000
 164       16F+3        0.00000   0.00000   0.00000   0.00000   0.00000
 165       16F-3        0.00000   0.00000  -0.00002  -0.00005   0.00002
 166 6   F  1S          0.00000   0.00000  -0.00144  -0.01041  -0.04976
 167        2S          0.00000   0.00000   0.00020   0.00043   0.00080
 168        3S          0.00000   0.00000  -0.00007  -0.00045  -0.00202
 169        4S          0.00000   0.00000  -0.00055  -0.00105   0.00056
 170        5S          0.00000   0.00000   0.00010  -0.00168   0.00178
 171        6PX        -0.00004  -0.00002   0.00000   0.00000   0.00000
 172        6PY         0.00002  -0.00004   0.00000   0.00000   0.00000
 173        6PZ         0.00000   0.00000   0.00058   0.00111   0.00011
 174        7PX        -0.00001   0.00000   0.00000   0.00000   0.00000
 175        7PY         0.00000  -0.00001   0.00000   0.00000   0.00000
 176        7PZ         0.00000   0.00000   0.00069   0.00132   0.00002
 177        8PX        -0.00021  -0.00012   0.00000   0.00000   0.00000
 178        8PY         0.00012  -0.00021   0.00000   0.00000   0.00000
 179        8PZ         0.00000   0.00000   0.00008   0.00017   0.00048
 180        9PX        -0.00031  -0.00017   0.00000   0.00000   0.00000
 181        9PY         0.00017  -0.00031   0.00000   0.00000   0.00000
 182        9PZ         0.00000   0.00000   0.00017  -0.00009   0.00071
 183       10D 0        0.00000   0.00000   0.00001   0.00001  -0.00002
 184       10D+1       -0.00001   0.00000   0.00000   0.00000   0.00000
 185       10D-1        0.00000  -0.00001   0.00000   0.00000   0.00000
 186       10D+2        0.00000   0.00001   0.00000   0.00000   0.00000
 187       10D-2        0.00001   0.00000   0.00000   0.00000   0.00000
 188       11D 0        0.00000   0.00000  -0.00003  -0.00010   0.00001
 189       11D+1        0.00004   0.00002   0.00000   0.00000   0.00000
 190       11D-1       -0.00002   0.00004   0.00000   0.00000   0.00000
 191       11D+2        0.00002  -0.00003   0.00000   0.00000   0.00000
 192       11D-2       -0.00003  -0.00002   0.00000   0.00000   0.00000
 193       12D 0        0.00000   0.00000  -0.00019  -0.00012   0.00011
 194       12D+1       -0.00020  -0.00011   0.00000   0.00000   0.00000
 195       12D-1        0.00011  -0.00020   0.00000   0.00000   0.00000
 196       12D+2       -0.00005   0.00010   0.00000   0.00000   0.00000
 197       12D-2        0.00010   0.00005   0.00000   0.00000   0.00000
 198       13F 0        0.00000   0.00000   0.00001  -0.00001  -0.00004
 199       13F+1        0.00002   0.00001   0.00000   0.00000   0.00000
 200       13F-1       -0.00001   0.00002   0.00000   0.00000   0.00000
 201       13F+2        0.00001  -0.00001   0.00000   0.00000   0.00000
 202       13F-2       -0.00001  -0.00001   0.00000   0.00000   0.00000
 203       13F+3        0.00000   0.00000   0.00000   0.00000   0.00000
 204       13F-3        0.00000   0.00000   0.00000   0.00000   0.00000
 205       14F 0        0.00000   0.00000  -0.00004   0.00002   0.00013
 206       14F+1       -0.00005  -0.00003   0.00000   0.00000   0.00000
 207       14F-1        0.00003  -0.00005   0.00000   0.00000   0.00000
 208       14F+2       -0.00002   0.00004   0.00000   0.00000   0.00000
 209       14F-2        0.00004   0.00002   0.00000   0.00000   0.00000
 210       14F+3        0.00000   0.00000   0.00000   0.00000   0.00000
 211       14F-3        0.00000   0.00000   0.00000   0.00000  -0.00001
                           6         7         8         9        10
     Eigenvalues --     2.00000   2.00000   1.98361   1.97543   1.96949
   1 1   C  1S          0.05039  -0.00046   0.01542  -0.07338  -0.14372
   2        2S         -0.00012  -0.00001  -0.04201   0.19910   0.39727
   3        3S          0.00230  -0.00003  -0.01040   0.04619   0.09614
   4        4S         -0.00699   0.00016   0.00557   0.07906   0.19078
   5        5S         -0.00016   0.00010   0.00785  -0.00690  -0.02890
   6        6PX         0.00000   0.00000   0.00000   0.00000   0.00000
   7        6PY         0.00000   0.00000   0.00000   0.00000  -0.00001
   8        6PZ         0.00004   0.00000   0.00646   0.01034  -0.02723
   9        7PX         0.00000   0.00000   0.00000   0.00000   0.00000
  10        7PY         0.00000   0.00000   0.00000   0.00001  -0.00001
  11        7PZ        -0.00075   0.00000   0.00706   0.01790  -0.03246
  12        8PX         0.00000   0.00000   0.00000   0.00000   0.00000
  13        8PY         0.00000   0.00000   0.00001   0.00000  -0.00001
  14        8PZ         0.00519   0.00009   0.01660   0.00589  -0.02271
  15        9PX         0.00000   0.00000   0.00000   0.00000   0.00000
  16        9PY         0.00000   0.00000   0.00000   0.00000   0.00000
  17        9PZ         0.00011   0.00001  -0.00071   0.00033  -0.00407
  18       10D 0        0.00004   0.00000   0.00051  -0.00214  -0.00956
  19       10D+1        0.00000   0.00000   0.00000   0.00000   0.00000
  20       10D-1        0.00000   0.00000   0.00000   0.00000  -0.00001
  21       10D+2        0.00000   0.00000   0.00000   0.00000   0.00000
  22       10D-2        0.00000   0.00000   0.00000   0.00000   0.00000
  23       11D 0       -0.00023  -0.00002  -0.00529   0.00462  -0.01876
  24       11D+1        0.00000   0.00000   0.00000   0.00000  -0.00001
  25       11D-1        0.00000   0.00000   0.00000   0.00000  -0.00001
  26       11D+2        0.00000   0.00000   0.00000   0.00000   0.00000
  27       11D-2        0.00000   0.00000   0.00000   0.00000   0.00000
  28       12D 0        0.00027   0.00008   0.00206  -0.00841  -0.01668
  29       12D+1        0.00000   0.00000   0.00000   0.00000  -0.00001
  30       12D-1        0.00000   0.00000   0.00000  -0.00001  -0.00001
  31       12D+2        0.00000   0.00000   0.00000   0.00000   0.00000
  32       12D-2        0.00000   0.00000   0.00000   0.00000   0.00000
  33       13F 0       -0.00007   0.00000   0.00000   0.00242   0.00064
  34       13F+1        0.00000   0.00000   0.00000   0.00000   0.00000
  35       13F-1        0.00000   0.00000   0.00000   0.00000   0.00000
  36       13F+2        0.00000   0.00000   0.00000   0.00000   0.00000
  37       13F-2        0.00000   0.00000   0.00000   0.00000   0.00000
  38       13F+3        0.00000   0.00000   0.00000   0.00000   0.00000
  39       13F-3        0.00001   0.00000  -0.00014   0.00194   0.00397
  40       14F 0        0.00127  -0.00001   0.00471   0.00261  -0.00198
  41       14F+1        0.00000   0.00000   0.00000   0.00000   0.00000
  42       14F-1        0.00000   0.00000   0.00001   0.00000   0.00000
  43       14F+2        0.00000   0.00000   0.00000   0.00000   0.00000
  44       14F-2        0.00000   0.00000   0.00000   0.00000   0.00000
  45       14F+3        0.00000   0.00000   0.00000   0.00000   0.00000
  46       14F-3       -0.00044   0.00003   0.00188  -0.00100   0.00404
  47 2   H  1S         -0.00008   0.00000  -0.00858   0.03717   0.08052
  48        2S          0.00098  -0.00006  -0.01531   0.04377   0.08372
  49        3S          0.00181   0.00004  -0.00090  -0.00491  -0.01204
  50        4S          0.00003   0.00000  -0.00047   0.00051   0.00039
  51        5PX         0.00000   0.00000   0.00000   0.00000   0.00000
  52        5PY         0.00001   0.00000  -0.00109   0.00399   0.00863
  53        5PZ        -0.00004   0.00000   0.00028   0.00095   0.00034
  54        6PX         0.00000   0.00000   0.00000   0.00000   0.00000
  55        6PY         0.00008   0.00000  -0.00073   0.00080   0.00121
  56        6PZ         0.00032  -0.00001   0.00008   0.00243  -0.00051
  57        7PX         0.00000   0.00000   0.00000   0.00000   0.00000
  58        7PY         0.00043   0.00001   0.00135  -0.00496  -0.01033
  59        7PZ        -0.00055   0.00001  -0.00280  -0.00173  -0.00131
  60        8D 0        0.00006   0.00000   0.00014  -0.00035  -0.00091
  61        8D+1        0.00000   0.00000   0.00000   0.00000   0.00000
  62        8D-1       -0.00001   0.00000  -0.00015   0.00049   0.00023
  63        8D+2       -0.00002   0.00000   0.00003  -0.00054  -0.00137
  64        8D-2        0.00000   0.00000   0.00000   0.00000   0.00000
  65        9D 0        0.00009  -0.00001  -0.00006   0.00122   0.00101
  66        9D+1        0.00000   0.00000   0.00000   0.00000   0.00000
  67        9D-1        0.00014   0.00000  -0.00006   0.00004  -0.00038
  68        9D+2        0.00004   0.00000  -0.00098   0.00225   0.00415
  69        9D-2        0.00000   0.00000   0.00000   0.00000   0.00000
  70 3   H  1S         -0.00008   0.00000  -0.00858   0.03717   0.08052
  71        2S          0.00098  -0.00006  -0.01531   0.04377   0.08372
  72        3S          0.00181   0.00004  -0.00091  -0.00490  -0.01204
  73        4S          0.00003   0.00000  -0.00047   0.00051   0.00039
  74        5PX         0.00001   0.00000  -0.00094   0.00345   0.00747
  75        5PY        -0.00001   0.00000   0.00054  -0.00199  -0.00432
  76        5PZ        -0.00004   0.00000   0.00028   0.00096   0.00035
  77        6PX         0.00007   0.00000  -0.00063   0.00070   0.00105
  78        6PY        -0.00004   0.00000   0.00037  -0.00040  -0.00061
  79        6PZ         0.00032  -0.00001   0.00008   0.00243  -0.00051
  80        7PX         0.00037   0.00001   0.00117  -0.00429  -0.00894
  81        7PY        -0.00022   0.00000  -0.00068   0.00248   0.00516
  82        7PZ        -0.00055   0.00001  -0.00280  -0.00173  -0.00132
  83        8D 0        0.00006   0.00000   0.00014  -0.00035  -0.00091
  84        8D+1       -0.00001   0.00000  -0.00013   0.00043   0.00020
  85        8D-1        0.00000   0.00000   0.00007  -0.00025  -0.00012
  86        8D+2        0.00001   0.00000  -0.00002   0.00027   0.00069
  87        8D-2       -0.00001   0.00000   0.00003  -0.00047  -0.00119
  88        9D 0        0.00009  -0.00001  -0.00006   0.00122   0.00101
  89        9D+1        0.00012   0.00000  -0.00005   0.00003  -0.00033
  90        9D-1       -0.00007   0.00000   0.00003  -0.00002   0.00019
  91        9D+2       -0.00002   0.00000   0.00049  -0.00113  -0.00208
  92        9D-2        0.00003   0.00000  -0.00085   0.00195   0.00360
  93 4   H  1S         -0.00008   0.00000  -0.00858   0.03717   0.08052
  94        2S          0.00098  -0.00006  -0.01531   0.04377   0.08372
  95        3S          0.00181   0.00004  -0.00091  -0.00491  -0.01204
  96        4S          0.00003   0.00000  -0.00047   0.00051   0.00039
  97        5PX        -0.00001   0.00000   0.00094  -0.00345  -0.00748
  98        5PY        -0.00001   0.00000   0.00054  -0.00199  -0.00431
  99        5PZ        -0.00004   0.00000   0.00028   0.00096   0.00035
 100        6PX        -0.00007   0.00000   0.00063  -0.00069  -0.00105
 101        6PY        -0.00004   0.00000   0.00037  -0.00040  -0.00061
 102        6PZ         0.00032  -0.00001   0.00008   0.00243  -0.00051
 103        7PX        -0.00038  -0.00001  -0.00117   0.00429   0.00894
 104        7PY        -0.00022   0.00000  -0.00068   0.00248   0.00516
 105        7PZ        -0.00055   0.00001  -0.00280  -0.00174  -0.00132
 106        8D 0        0.00006   0.00000   0.00014  -0.00035  -0.00091
 107        8D+1        0.00001   0.00000   0.00013  -0.00043  -0.00020
 108        8D-1        0.00000   0.00000   0.00007  -0.00025  -0.00012
 109        8D+2        0.00001   0.00000  -0.00002   0.00027   0.00069
 110        8D-2        0.00001   0.00000  -0.00003   0.00047   0.00119
 111        9D 0        0.00009  -0.00001  -0.00006   0.00122   0.00101
 112        9D+1       -0.00012   0.00000   0.00005  -0.00003   0.00033
 113        9D-1       -0.00007   0.00000   0.00003  -0.00002   0.00019
 114        9D+2       -0.00002   0.00000   0.00049  -0.00113  -0.00208
 115        9D-2       -0.00003   0.00000   0.00085  -0.00195  -0.00360
 116 5   Cl 1S          0.00007   0.99708  -0.00064   0.06648  -0.03479
 117        2S         -0.00007   0.01040   0.00292  -0.25193   0.13076
 118        3S          0.00005   0.00017  -0.00391   0.52471  -0.27822
 119        4S          0.00008   0.00026  -0.00025   0.06428  -0.03748
 120        5S         -0.00181  -0.00020  -0.01230   0.35096  -0.17054
 121        6S         -0.00050  -0.00011  -0.00461   0.02452   0.01130
 122        7PX         0.00000   0.00000   0.00000   0.00000   0.00001
 123        7PY         0.00000   0.00000   0.00000   0.00000   0.00001
 124        7PZ         0.00733   0.00016   0.00152   0.00459   0.02880
 125        8PX         0.00000   0.00000   0.00000   0.00000  -0.00001
 126        8PY         0.00000   0.00000   0.00000   0.00000  -0.00003
 127        8PZ         0.00051  -0.00003  -0.00227  -0.00602  -0.07208
 128        9PX         0.00000   0.00000   0.00000   0.00000  -0.00001
 129        9PY         0.00000   0.00000   0.00000   0.00000  -0.00001
 130        9PZ         0.00032   0.00003  -0.00264   0.00068  -0.03141
 131       10PX         0.00000   0.00000   0.00000   0.00000  -0.00001
 132       10PY         0.00000   0.00000   0.00000   0.00000  -0.00002
 133       10PZ         0.00096   0.00015   0.00271   0.00302  -0.05237
 134       11PX         0.00000   0.00000   0.00000   0.00000   0.00000
 135       11PY         0.00000   0.00000   0.00000   0.00000   0.00000
 136       11PZ         0.00002   0.00002  -0.00040   0.00263  -0.00875
 137       12D 0       -0.00003   0.00001  -0.00035   0.00449   0.00453
 138       12D+1        0.00000   0.00000   0.00000   0.00000   0.00000
 139       12D-1        0.00000   0.00000   0.00000   0.00000   0.00000
 140       12D+2        0.00000   0.00000   0.00000   0.00000   0.00000
 141       12D-2        0.00000   0.00000   0.00000   0.00000   0.00000
 142       13D 0       -0.00022   0.00000  -0.00163   0.00820   0.00969
 143       13D+1        0.00000   0.00000   0.00000   0.00000   0.00000
 144       13D-1        0.00000   0.00000   0.00000   0.00001   0.00001
 145       13D+2        0.00000   0.00000   0.00000   0.00000   0.00000
 146       13D-2        0.00000   0.00000   0.00000   0.00000   0.00000
 147       14D 0       -0.00014  -0.00004  -0.00184  -0.00018   0.00539
 148       14D+1        0.00000   0.00000   0.00000   0.00000   0.00000
 149       14D-1        0.00000   0.00000   0.00000   0.00000   0.00000
 150       14D+2        0.00000   0.00000   0.00000   0.00000   0.00000
 151       14D-2        0.00000   0.00000   0.00000   0.00000   0.00000
 152       15F 0        0.00005   0.00000   0.00023  -0.00180  -0.00192
 153       15F+1        0.00000   0.00000   0.00000   0.00000   0.00000
 154       15F-1        0.00000   0.00000   0.00000   0.00000   0.00000
 155       15F+2        0.00000   0.00000   0.00000   0.00000   0.00000
 156       15F-2        0.00000   0.00000   0.00000   0.00000   0.00000
 157       15F+3        0.00000   0.00000   0.00000   0.00000   0.00000
 158       15F-3       -0.00001   0.00000  -0.00001   0.00002   0.00009
 159       16F 0       -0.00005   0.00001   0.00005  -0.00093  -0.00171
 160       16F+1        0.00000   0.00000   0.00000   0.00000   0.00000
 161       16F-1        0.00000   0.00000   0.00000   0.00000   0.00000
 162       16F+2        0.00000   0.00000   0.00000   0.00000   0.00000
 163       16F-2        0.00000   0.00000   0.00000   0.00000   0.00000
 164       16F+3        0.00000   0.00000   0.00000   0.00000   0.00000
 165       16F-3        0.00003   0.00000   0.00002  -0.00001  -0.00021
 166 6   F  1S          0.97743  -0.00002   0.21189   0.01315   0.02162
 167        2S         -0.01503   0.00000  -0.53161  -0.03405  -0.05732
 168        3S          0.04206   0.00000  -0.16471  -0.01081  -0.01853
 169        4S          0.00193  -0.00001  -0.36876  -0.02363  -0.04391
 170        5S         -0.00083  -0.00006  -0.04529   0.00420   0.00781
 171        6PX         0.00000   0.00000   0.00000   0.00000   0.00002
 172        6PY         0.00000   0.00000   0.00001   0.00001   0.00004
 173        6PZ         0.00048   0.00000   0.01352   0.01270   0.08749
 174        7PX         0.00000   0.00000   0.00000   0.00000   0.00002
 175        7PY         0.00000   0.00000   0.00001   0.00001   0.00004
 176        7PZ        -0.00012   0.00000   0.01475   0.01551   0.10527
 177        8PX         0.00000   0.00000   0.00000   0.00000   0.00002
 178        8PY         0.00000   0.00000   0.00001   0.00001   0.00004
 179        8PZ         0.00240  -0.00001   0.01247   0.01225   0.08373
 180        9PX         0.00000   0.00000   0.00000   0.00000   0.00000
 181        9PY         0.00000   0.00000   0.00000   0.00000   0.00001
 182        9PZ        -0.00008  -0.00002   0.00220   0.00315   0.02424
 183       10D 0       -0.00002   0.00000  -0.00013   0.00017   0.00060
 184       10D+1        0.00000   0.00000   0.00000   0.00000   0.00000
 185       10D-1        0.00000   0.00000   0.00000   0.00000   0.00000
 186       10D+2        0.00000   0.00000   0.00000   0.00000   0.00000
 187       10D-2        0.00000   0.00000   0.00000   0.00000   0.00000
 188       11D 0       -0.00003   0.00000  -0.00104   0.00091   0.00275
 189       11D+1        0.00000   0.00000   0.00000   0.00000   0.00000
 190       11D-1        0.00000   0.00000   0.00000   0.00000   0.00000
 191       11D+2        0.00000   0.00000   0.00000   0.00000   0.00000
 192       11D-2        0.00000   0.00000   0.00000   0.00000   0.00000
 193       12D 0        0.00080   0.00000  -0.00055   0.00035   0.00386
 194       12D+1        0.00000   0.00000   0.00000   0.00000   0.00000
 195       12D-1        0.00000   0.00000   0.00000   0.00000   0.00000
 196       12D+2        0.00000   0.00000   0.00000   0.00000   0.00000
 197       12D-2        0.00000   0.00000   0.00000   0.00000   0.00000
 198       13F 0       -0.00006   0.00000  -0.00002   0.00013   0.00027
 199       13F+1        0.00000   0.00000   0.00000   0.00000   0.00000
 200       13F-1        0.00000   0.00000   0.00000   0.00000   0.00000
 201       13F+2        0.00000   0.00000   0.00000   0.00000   0.00000
 202       13F-2        0.00000   0.00000   0.00000   0.00000   0.00000
 203       13F+3        0.00000   0.00000   0.00000   0.00000   0.00000
 204       13F-3        0.00001   0.00000   0.00001   0.00002   0.00003
 205       14F 0        0.00020   0.00000  -0.00040  -0.00006   0.00063
 206       14F+1        0.00000   0.00000   0.00000   0.00000   0.00000
 207       14F-1        0.00000   0.00000   0.00000   0.00000   0.00000
 208       14F+2        0.00000   0.00000   0.00000   0.00000   0.00000
 209       14F-2        0.00000   0.00000   0.00000   0.00000   0.00000
 210       14F+3        0.00000   0.00000   0.00000   0.00000   0.00000
 211       14F-3       -0.00001   0.00000  -0.00007  -0.00006  -0.00009
                          11        12        13        14        15
     Eigenvalues --     1.96437   1.96437   1.95923   1.95923   1.94911
   1 1   C  1S          0.00000   0.00000   0.00000   0.00000   0.00000
   2        2S          0.00000   0.00000   0.00000   0.00000   0.00001
   3        3S          0.00000   0.00000   0.00000   0.00000   0.00000
   4        4S          0.00000   0.00000   0.00000   0.00000   0.00001
   5        5S          0.00000   0.00000   0.00000   0.00000   0.00000
   6        6PX         0.02118   0.09552   0.21578  -0.08260   0.05688
   7        6PY         0.09553  -0.02117   0.08260   0.21578   0.03727
   8        6PZ        -0.00005  -0.00001  -0.00007  -0.00008  -0.00002
   9        7PX         0.02837   0.12798   0.28600  -0.10948   0.07906
  10        7PY         0.12799  -0.02837   0.10948   0.28600   0.05179
  11        7PZ        -0.00006  -0.00001  -0.00010  -0.00010  -0.00003
  12        8PX         0.02077   0.09370   0.22078  -0.08451   0.06082
  13        8PY         0.09370  -0.02077   0.08451   0.22078   0.03984
  14        8PZ        -0.00004  -0.00001  -0.00008  -0.00008  -0.00003
  15        9PX        -0.00047  -0.00214   0.01770  -0.00677   0.01025
  16        9PY        -0.00214   0.00047   0.00678   0.01770   0.00672
  17        9PZ         0.00000   0.00000  -0.00001  -0.00001   0.00000
  18       10D 0        0.00000   0.00000   0.00000   0.00000   0.00000
  19       10D+1       -0.00059  -0.00264  -0.00119   0.00045  -0.00312
  20       10D-1       -0.00264   0.00058  -0.00045  -0.00118  -0.00204
  21       10D+2        0.00609  -0.00135   0.00530   0.01384   0.00276
  22       10D-2        0.00135   0.00609   0.01384  -0.00530   0.00420
  23       11D 0        0.00001   0.00000   0.00000  -0.00001   0.00001
  24       11D+1       -0.00276  -0.01243   0.00712  -0.00273  -0.01295
  25       11D-1       -0.01242   0.00275   0.00273   0.00716  -0.00848
  26       11D+2        0.02016  -0.00446   0.01622   0.04233   0.00937
  27       11D-2        0.00446   0.02015   0.04234  -0.01622   0.01427
  28       12D 0        0.00000   0.00000   0.00000   0.00000   0.00000
  29       12D+1       -0.00132  -0.00595   0.00530  -0.00203   0.00099
  30       12D-1       -0.00594   0.00131   0.00203   0.00533   0.00065
  31       12D+2        0.01961  -0.00434   0.01288   0.03361   0.00555
  32       12D-2        0.00434   0.01960   0.03361  -0.01288   0.00846
  33       13F 0        0.00000   0.00000   0.00000   0.00000   0.00000
  34       13F+1        0.00005   0.00024  -0.00188   0.00072  -0.00187
  35       13F-1        0.00024  -0.00005  -0.00072  -0.00188  -0.00122
  36       13F+2       -0.00062   0.00014  -0.00004  -0.00011  -0.00018
  37       13F-2       -0.00014  -0.00062  -0.00012   0.00004  -0.00028
  38       13F+3        0.00000   0.00000   0.00000   0.00000   0.00000
  39       13F-3        0.00000   0.00000   0.00000   0.00000   0.00000
  40       14F 0        0.00000   0.00000   0.00000   0.00001   0.00001
  41       14F+1        0.00008   0.00038  -0.00545   0.00208  -0.00607
  42       14F-1        0.00037  -0.00008  -0.00208  -0.00545  -0.00398
  43       14F+2       -0.00377   0.00083  -0.00005  -0.00012  -0.00178
  44       14F-2       -0.00083  -0.00377  -0.00013   0.00005  -0.00272
  45       14F+3        0.00000   0.00000   0.00000   0.00000   0.00000
  46       14F-3        0.00000   0.00000   0.00000   0.00000   0.00000
  47 2   H  1S         -0.06572   0.01456  -0.05420  -0.14155  -0.02565
  48        2S         -0.05928   0.01313  -0.05523  -0.14422  -0.02525
  49        3S          0.05654  -0.01252   0.04267   0.11144   0.00294
  50        4S         -0.00564   0.00125   0.00622   0.01623   0.00060
  51        5PX         0.00045   0.00204   0.00408  -0.00156   0.00089
  52        5PY        -0.00516   0.00114  -0.00443  -0.01157  -0.00197
  53        5PZ         0.00003  -0.00001  -0.00100  -0.00261   0.00010
  54        6PX         0.00174   0.00784   0.01273  -0.00487   0.00313
  55        6PY         0.00704  -0.00156   0.00402   0.01050   0.00307
  56        6PZ        -0.00271   0.00060   0.00014   0.00037  -0.00064
  57        7PX         0.00200   0.00904   0.01248  -0.00477   0.00236
  58        7PY         0.01373  -0.00304   0.01631   0.04259   0.00533
  59        7PZ         0.00064  -0.00014   0.00271   0.00709   0.00162
  60        8D 0        0.00040  -0.00009   0.00049   0.00127   0.00022
  61        8D+1        0.00000   0.00002   0.00029  -0.00011  -0.00003
  62        8D-1       -0.00073   0.00016  -0.00009  -0.00022  -0.00016
  63        8D+2        0.00059  -0.00013   0.00069   0.00180   0.00029
  64        8D-2        0.00023   0.00103   0.00209  -0.00080   0.00050
  65        9D 0       -0.00053   0.00012   0.00052   0.00137  -0.00008
  66        9D+1       -0.00033  -0.00150   0.00093  -0.00035  -0.00099
  67        9D-1       -0.00325   0.00072   0.00122   0.00319  -0.00025
  68        9D+2       -0.00157   0.00035  -0.00095  -0.00249  -0.00059
  69        9D-2        0.00036   0.00161   0.00269  -0.00103   0.00094
  70 3   H  1S          0.02025  -0.06419  -0.09548   0.11771  -0.02107
  71        2S          0.01827  -0.05791  -0.09729   0.11994  -0.02075
  72        3S         -0.01742   0.05522   0.07517  -0.09268   0.00241
  73        4S          0.00174  -0.00551   0.01095  -0.01350   0.00049
  74        5PX         0.00237  -0.00405  -0.00506   0.00971  -0.00093
  75        5PY         0.00093   0.00306   0.00684  -0.00243   0.00163
  76        5PZ        -0.00001   0.00003  -0.00177   0.00217   0.00008
  77        6PX         0.00195   0.00716   0.01142  -0.00327   0.00386
  78        6PY         0.00772  -0.00135   0.00562   0.01180   0.00163
  79        6PZ         0.00083  -0.00265   0.00025  -0.00031  -0.00053
  80        7PX         0.00075   0.01301   0.03007  -0.02646   0.00505
  81        7PY         0.00976  -0.00429  -0.00538   0.02500  -0.00001
  82        7PZ        -0.00020   0.00063   0.00479  -0.00592   0.00133
  83        8D 0       -0.00012   0.00039   0.00086  -0.00106   0.00018
  84        8D+1        0.00020  -0.00061  -0.00001   0.00026  -0.00013
  85        8D-1       -0.00010   0.00036   0.00029   0.00008   0.00004
  86        8D+2        0.00096  -0.00001   0.00090   0.00197   0.00035
  87        8D-2        0.00034   0.00066   0.00192  -0.00059   0.00047
  88        9D 0        0.00016  -0.00052   0.00092  -0.00114  -0.00007
  89        9D+1        0.00013  -0.00298   0.00225  -0.00199  -0.00071
  90        9D-1       -0.00177   0.00119  -0.00041   0.00187  -0.00081
  91        9D+2        0.00112   0.00120   0.00278   0.00053   0.00112
  92        9D-2        0.00121  -0.00108  -0.00034   0.00270   0.00008
  93 4   H  1S          0.04547   0.04963   0.14968   0.02383   0.04673
  94        2S          0.04102   0.04477   0.15251   0.02428   0.04600
  95        3S         -0.03912  -0.04270  -0.11785  -0.01876  -0.00535
  96        4S          0.00390   0.00426  -0.01717  -0.00273  -0.00109
  97        5PX        -0.00386  -0.00267  -0.01025  -0.00384  -0.00314
  98        5PY        -0.00045  -0.00317  -0.00671   0.00276  -0.00175
  99        5PZ        -0.00002  -0.00002   0.00277   0.00044  -0.00018
 100        6PX         0.00125   0.00732   0.01068  -0.00520   0.00475
 101        6PY         0.00757  -0.00204   0.00369   0.01254   0.00298
 102        6PZ         0.00187   0.00205  -0.00040  -0.00007   0.00117
 103        7PX         0.00481   0.01211   0.04005  -0.00038   0.00833
 104        7PY         0.01066  -0.00023   0.02069   0.01501   0.00499
 105        7PZ        -0.00045  -0.00049  -0.00753  -0.00120  -0.00295
 106        8D 0       -0.00028  -0.00030  -0.00134  -0.00021  -0.00040
 107        8D+1       -0.00044  -0.00047  -0.00018  -0.00019  -0.00025
 108        8D-1       -0.00024  -0.00029  -0.00016   0.00025  -0.00015
 109        8D+2        0.00087  -0.00039   0.00064   0.00207   0.00029
 110        8D-2       -0.00004   0.00074   0.00182  -0.00085   0.00043
 111        9D 0        0.00037   0.00040  -0.00145  -0.00023   0.00015
 112        9D+1       -0.00138  -0.00265   0.00300  -0.00003  -0.00036
 113        9D-1       -0.00211  -0.00033   0.00155   0.00112  -0.00029
 114        9D+2        0.00051  -0.00156  -0.00171   0.00225  -0.00048
 115        9D-2       -0.00155  -0.00047  -0.00205  -0.00178  -0.00096
 116 5   Cl 1S          0.00000   0.00000   0.00000   0.00000   0.00000
 117        2S          0.00000   0.00000   0.00000   0.00000   0.00000
 118        3S          0.00000   0.00000   0.00000   0.00000   0.00000
 119        4S          0.00000   0.00000   0.00000   0.00000   0.00000
 120        5S          0.00000   0.00000   0.00000   0.00000   0.00000
 121        6S          0.00000   0.00000   0.00000   0.00000   0.00000
 122        7PX        -0.00190  -0.00859  -0.04072   0.01559   0.18702
 123        7PY        -0.00859   0.00190  -0.01559  -0.04072   0.12253
 124        7PZ         0.00000   0.00000   0.00001   0.00001  -0.00009
 125        8PX         0.00451   0.02034   0.09622  -0.03683  -0.42785
 126        8PY         0.02034  -0.00451   0.03683   0.09622  -0.28030
 127        8PZ        -0.00001   0.00000  -0.00003  -0.00003   0.00020
 128        9PX         0.00209   0.00944   0.04451  -0.01704  -0.20668
 129        9PY         0.00944  -0.00209   0.01704   0.04451  -0.13540
 130        9PZ         0.00000   0.00000  -0.00002  -0.00002   0.00010
 131       10PX         0.00225   0.01015   0.05209  -0.01994  -0.30754
 132       10PY         0.01015  -0.00225   0.01994   0.05209  -0.20148
 133       10PZ         0.00000   0.00000  -0.00002  -0.00002   0.00015
 134       11PX         0.00046   0.00207   0.00317  -0.00121  -0.05199
 135       11PY         0.00207  -0.00046   0.00121   0.00317  -0.03406
 136       11PZ         0.00000   0.00000   0.00000   0.00000   0.00003
 137       12D 0        0.00000   0.00000   0.00000   0.00000   0.00000
 138       12D+1       -0.00041  -0.00184  -0.00577   0.00221   0.00018
 139       12D-1       -0.00184   0.00041  -0.00221  -0.00577   0.00012
 140       12D+2        0.00011  -0.00002   0.00019   0.00051   0.00013
 141       12D-2        0.00002   0.00011   0.00050  -0.00019   0.00021
 142       13D 0        0.00000   0.00000   0.00001   0.00001   0.00000
 143       13D+1       -0.00063  -0.00284  -0.01023   0.00392   0.00057
 144       13D-1       -0.00284   0.00063  -0.00392  -0.01023   0.00038
 145       13D+2        0.00031  -0.00007   0.00023   0.00061   0.00031
 146       13D-2        0.00007   0.00031   0.00060  -0.00023   0.00047
 147       14D 0        0.00000   0.00000   0.00000   0.00000   0.00000
 148       14D+1        0.00001   0.00006   0.00004  -0.00002   0.00280
 149       14D-1        0.00006  -0.00001   0.00002   0.00004   0.00184
 150       14D+2       -0.00064   0.00014  -0.00003  -0.00007   0.00004
 151       14D-2       -0.00014  -0.00064  -0.00007   0.00003   0.00006
 152       15F 0        0.00000   0.00000   0.00000   0.00000   0.00000
 153       15F+1        0.00019   0.00086   0.00245  -0.00094  -0.00118
 154       15F-1        0.00086  -0.00019   0.00094   0.00245  -0.00077
 155       15F+2       -0.00011   0.00002  -0.00012  -0.00032  -0.00006
 156       15F-2       -0.00002  -0.00011  -0.00031   0.00012  -0.00009
 157       15F+3        0.00000   0.00000   0.00000   0.00000   0.00000
 158       15F-3        0.00000   0.00000   0.00000   0.00000   0.00000
 159       16F 0        0.00000   0.00000   0.00000   0.00000   0.00000
 160       16F+1        0.00013   0.00058   0.00188  -0.00072  -0.00150
 161       16F-1        0.00058  -0.00013   0.00072   0.00188  -0.00098
 162       16F+2        0.00001   0.00000   0.00007   0.00017  -0.00011
 163       16F-2        0.00000   0.00001   0.00017  -0.00007  -0.00017
 164       16F+3        0.00000   0.00000   0.00000   0.00000   0.00000
 165       16F-3        0.00000   0.00000   0.00000   0.00000   0.00000
 166 6   F  1S          0.00000   0.00000   0.00000   0.00000   0.00000
 167        2S          0.00000   0.00000   0.00000   0.00000   0.00000
 168        3S          0.00000   0.00000   0.00000   0.00000   0.00000
 169        4S          0.00000   0.00000   0.00000   0.00000   0.00000
 170        5S          0.00000   0.00000   0.00000   0.00000   0.00000
 171        6PX         0.07189   0.32433  -0.15126   0.05790  -0.01894
 172        6PY         0.32433  -0.07190  -0.05790  -0.15127  -0.01241
 173        6PZ        -0.00016  -0.00002   0.00005   0.00006  -0.00001
 174        7PX         0.08576   0.38689  -0.17936   0.06865  -0.02241
 175        7PY         0.38689  -0.08576  -0.06866  -0.17936  -0.01469
 176        7PZ        -0.00019  -0.00003   0.00006   0.00007  -0.00001
 177        8PX         0.06934   0.31279  -0.15087   0.05775  -0.01920
 178        8PY         0.31279  -0.06934  -0.05775  -0.15088  -0.01258
 179        8PZ        -0.00016  -0.00002   0.00005   0.00006  -0.00001
 180        9PX         0.02180   0.09833  -0.05320   0.02037  -0.00934
 181        9PY         0.09833  -0.02180  -0.02037  -0.05321  -0.00612
 182        9PZ        -0.00005  -0.00001   0.00002   0.00002   0.00000
 183       10D 0        0.00000   0.00000   0.00000   0.00000   0.00000
 184       10D+1        0.00013   0.00059   0.00009  -0.00003   0.00010
 185       10D-1        0.00059  -0.00013   0.00003   0.00009   0.00007
 186       10D+2        0.00002   0.00000   0.00001   0.00003   0.00001
 187       10D-2        0.00001   0.00002   0.00003  -0.00001   0.00001
 188       11D 0        0.00000   0.00000   0.00000   0.00000   0.00000
 189       11D+1        0.00052   0.00237   0.00114  -0.00044   0.00050
 190       11D-1        0.00237  -0.00052   0.00044   0.00114   0.00033
 191       11D+2        0.00005  -0.00001   0.00009   0.00024   0.00010
 192       11D-2        0.00001   0.00005   0.00024  -0.00009   0.00015
 193       12D 0        0.00000   0.00000   0.00000   0.00000   0.00000
 194       12D+1        0.00128   0.00579  -0.00332   0.00127   0.00026
 195       12D-1        0.00579  -0.00128  -0.00127  -0.00332   0.00017
 196       12D+2        0.00003  -0.00001  -0.00010  -0.00026  -0.00020
 197       12D-2        0.00001   0.00003  -0.00026   0.00010  -0.00031
 198       13F 0        0.00000   0.00000   0.00000   0.00000   0.00000
 199       13F+1        0.00005   0.00021   0.00024  -0.00009   0.00005
 200       13F-1        0.00021  -0.00005   0.00009   0.00024   0.00003
 201       13F+2        0.00005  -0.00001   0.00004   0.00010   0.00003
 202       13F-2        0.00001   0.00005   0.00010  -0.00004   0.00005
 203       13F+3        0.00000   0.00000   0.00000   0.00000   0.00000
 204       13F-3        0.00000   0.00000   0.00000   0.00000   0.00000
 205       14F 0        0.00000   0.00000   0.00000   0.00000   0.00000
 206       14F+1        0.00032   0.00142  -0.00081   0.00031   0.00001
 207       14F-1        0.00142  -0.00032  -0.00031  -0.00081   0.00001
 208       14F+2       -0.00013   0.00003  -0.00009  -0.00022  -0.00009
 209       14F-2       -0.00003  -0.00013  -0.00022   0.00009  -0.00014
 210       14F+3        0.00000   0.00000   0.00000   0.00000   0.00000
 211       14F-3        0.00000   0.00000   0.00000   0.00000   0.00000
                          16        17        18        19        20
     Eigenvalues --     1.94911   1.94879   1.93535   0.06018   0.02494
   1 1   C  1S          0.00001   0.05334  -0.01580  -0.02406   0.00000
   2        2S         -0.00002  -0.15185   0.05098   0.06679  -0.00001
   3        3S          0.00000  -0.03584   0.01676   0.02431  -0.00001
   4        4S         -0.00003  -0.29233   0.08714  -0.22167   0.00003
   5        5S         -0.00001  -0.05765   0.03920  -0.02903   0.00001
   6        6PX         0.03727  -0.00001  -0.00002   0.00005   0.01768
   7        6PY        -0.05688  -0.00001  -0.00006   0.00012   0.15346
   8        6PZ         0.00001  -0.04569  -0.12871   0.27936  -0.00007
   9        7PX         0.05179  -0.00001  -0.00003   0.00008   0.03282
  10        7PY        -0.07906  -0.00001  -0.00008   0.00019   0.28478
  11        7PZ         0.00002  -0.06475  -0.18059   0.44329  -0.00013
  12        8PX         0.03984  -0.00001  -0.00001   0.00004   0.01504
  13        8PY        -0.06082  -0.00002  -0.00003   0.00009   0.13055
  14        8PZ         0.00001  -0.06422  -0.07658   0.20175  -0.00006
  15        9PX         0.00672   0.00000   0.00000   0.00000   0.00337
  16        9PY        -0.01025   0.00000   0.00000   0.00000   0.02924
  17        9PZ         0.00000  -0.00123  -0.00166  -0.00006  -0.00001
  18       10D 0        0.00000   0.00935  -0.01106  -0.00881  -0.00002
  19       10D+1       -0.00205   0.00000   0.00000   0.00000   0.00292
  20       10D-1        0.00312   0.00001  -0.00001  -0.00001   0.02536
  21       10D+2       -0.00421   0.00000   0.00000   0.00000   0.00389
  22       10D-2        0.00276   0.00000   0.00000   0.00000   0.00045
  23       11D 0        0.00000   0.04984  -0.04571   0.06671  -0.00005
  24       11D+1       -0.00848   0.00002  -0.00001   0.00002   0.00684
  25       11D-1        0.01294   0.00004  -0.00003   0.00005   0.05951
  26       11D+2       -0.01429   0.00000   0.00000   0.00000   0.06961
  27       11D-2        0.00936   0.00000   0.00000   0.00000   0.00801
  28       12D 0        0.00000   0.02816  -0.00380  -0.01697  -0.00001
  29       12D+1        0.00065   0.00001   0.00000  -0.00001   0.00215
  30       12D-1       -0.00099   0.00002   0.00000  -0.00001   0.01871
  31       12D+2       -0.00846   0.00000   0.00000   0.00000   0.01445
  32       12D-2        0.00555   0.00000   0.00000   0.00000   0.00166
  33       13F 0        0.00000  -0.00208  -0.00328  -0.00586   0.00001
  34       13F+1       -0.00122   0.00000   0.00000   0.00000  -0.00110
  35       13F-1        0.00187   0.00000   0.00000  -0.00001  -0.00952
  36       13F+2        0.00028   0.00000   0.00000   0.00000   0.00311
  37       13F-2       -0.00018   0.00000   0.00000   0.00000   0.00035
  38       13F+3        0.00000   0.00000   0.00000   0.00000   0.00000
  39       13F-3        0.00000  -0.00308   0.00115  -0.00053   0.00000
  40       14F 0       -0.00001  -0.00547  -0.00087   0.01161   0.00000
  41       14F+1       -0.00398   0.00000   0.00000   0.00000  -0.00029
  42       14F-1        0.00607  -0.00001   0.00000   0.00001  -0.00252
  43       14F+2        0.00271   0.00001   0.00000   0.00002  -0.00215
  44       14F-2       -0.00178   0.00000   0.00000   0.00001  -0.00025
  45       14F+3        0.00000  -0.00001   0.00000  -0.00001   0.00000
  46       14F-3        0.00000  -0.01509   0.00918  -0.03771   0.00000
  47 2   H  1S          0.03914  -0.03381   0.02884  -0.00683   0.04021
  48        2S          0.03854  -0.00312   0.02282   0.08000   0.25631
  49        3S         -0.00448   0.02198   0.02032   0.06878   0.16319
  50        4S         -0.00091   0.00012   0.00193   0.00722   0.07153
  51        5PX         0.00058   0.00000   0.00000   0.00000   0.00031
  52        5PY         0.00301  -0.00215   0.00248  -0.00201  -0.00871
  53        5PZ        -0.00015  -0.00267  -0.00321   0.01430  -0.01212
  54        6PX         0.00205   0.00000   0.00000   0.00001   0.00086
  55        6PY        -0.00469   0.00552  -0.00154   0.00982   0.05862
  56        6PZ         0.00098  -0.00100  -0.01029   0.02820  -0.00568
  57        7PX         0.00155   0.00000   0.00000   0.00000  -0.00019
  58        7PY        -0.00814   0.01111  -0.00164   0.01272   0.05021
  59        7PZ        -0.00247   0.00807   0.00317  -0.01401   0.00522
  60        8D 0       -0.00034   0.00014  -0.00085   0.00060   0.00254
  61        8D+1       -0.00002   0.00000   0.00000   0.00000   0.00021
  62        8D-1        0.00024  -0.00020  -0.00171   0.00673  -0.00396
  63        8D+2       -0.00044   0.00052  -0.00061   0.00186   0.00257
  64        8D-2        0.00033   0.00000   0.00000   0.00000   0.00024
  65        9D 0        0.00013   0.00083  -0.00283   0.00597  -0.00329
  66        9D+1       -0.00065   0.00000   0.00000   0.00000   0.00051
  67        9D-1        0.00039   0.00202  -0.00055  -0.00588   0.01535
  68        9D+2        0.00090   0.00108   0.00035  -0.00113  -0.00940
  69        9D-2        0.00062   0.00000   0.00000   0.00000   0.00014
  70 3   H  1S         -0.04179  -0.03379   0.02884  -0.00683  -0.01609
  71        2S         -0.04114  -0.00311   0.02282   0.08000  -0.10261
  72        3S          0.00479   0.02198   0.02032   0.06877  -0.06534
  73        4S          0.00097   0.00012   0.00193   0.00722  -0.02864
  74        5PX        -0.00302  -0.00186   0.00215  -0.00174   0.00429
  75        5PY         0.00120   0.00107  -0.00124   0.00101   0.00046
  76        5PZ         0.00016  -0.00268  -0.00321   0.01429   0.00485
  77        6PX         0.00350   0.00478  -0.00133   0.00850  -0.01689
  78        6PY        -0.00397  -0.00276   0.00076  -0.00489   0.01768
  79        6PZ        -0.00104  -0.00100  -0.01029   0.02820   0.00226
  80        7PX         0.00689   0.00961  -0.00142   0.01102  -0.01822
  81        7PY        -0.00545  -0.00555   0.00082  -0.00637   0.00865
  82        7PZ         0.00264   0.00808   0.00317  -0.01400  -0.00210
  83        8D 0        0.00036   0.00014  -0.00085   0.00060  -0.00102
  84        8D+1       -0.00022  -0.00018  -0.00148   0.00583   0.00220
  85        8D-1        0.00014   0.00010   0.00085  -0.00336   0.00064
  86        8D+2       -0.00047  -0.00026   0.00030  -0.00093   0.00218
  87        8D-2        0.00027   0.00045  -0.00053   0.00161   0.00008
  88        9D 0       -0.00014   0.00083  -0.00283   0.00597   0.00131
  89        9D+1       -0.00009   0.00175  -0.00047  -0.00509  -0.00328
  90        9D-1        0.00067  -0.00101   0.00027   0.00295   0.00661
  91        9D+2        0.00004  -0.00054  -0.00018   0.00056  -0.00096
  92        9D-2       -0.00109   0.00094   0.00030  -0.00098   0.00379
  93 4   H  1S          0.00264  -0.03380   0.02884  -0.00683  -0.02410
  94        2S          0.00260  -0.00311   0.02282   0.08000  -0.15371
  95        3S         -0.00030   0.02198   0.02032   0.06877  -0.09787
  96        4S         -0.00006   0.00012   0.00193   0.00722  -0.04290
  97        5PX         0.00035   0.00186  -0.00215   0.00174  -0.00563
  98        5PY        -0.00102   0.00107  -0.00124   0.00101  -0.00067
  99        5PZ        -0.00001  -0.00268  -0.00321   0.01429   0.00727
 100        6PX         0.00214  -0.00478   0.00132  -0.00849   0.02745
 101        6PY        -0.00308  -0.00276   0.00076  -0.00489   0.02278
 102        6PZ         0.00007  -0.00100  -0.01029   0.02820   0.00337
 103        7PX         0.00188  -0.00961   0.00142  -0.01102   0.02679
 104        7PY        -0.00217  -0.00555   0.00082  -0.00637   0.01383
 105        7PZ        -0.00017   0.00808   0.00317  -0.01400  -0.00315
 106        8D 0       -0.00002   0.00014  -0.00085   0.00061  -0.00152
 107        8D+1       -0.00003   0.00018   0.00148  -0.00583  -0.00278
 108        8D-1        0.00002   0.00010   0.00085  -0.00336   0.00007
 109        8D+2       -0.00050  -0.00026   0.00030  -0.00093   0.00223
 110        8D-2        0.00033  -0.00045   0.00053  -0.00162   0.00049
 111        9D 0        0.00001   0.00083  -0.00283   0.00596   0.00196
 112        9D+1       -0.00061  -0.00175   0.00047   0.00510   0.00619
 113        9D-1        0.00101  -0.00101   0.00027   0.00295   0.00770
 114        9D+2       -0.00101  -0.00054  -0.00018   0.00057  -0.00201
 115        9D-2        0.00051  -0.00094  -0.00030   0.00098  -0.00534
 116 5   Cl 1S          0.00000   0.01021   0.00050  -0.01679   0.00000
 117        2S          0.00000  -0.03898  -0.00167   0.05630   0.00000
 118        3S          0.00001   0.08055   0.01125  -0.15674   0.00000
 119        4S          0.00000   0.01243   0.00452  -0.03986   0.00000
 120        5S          0.00001   0.06906   0.01220  -0.04599   0.00000
 121        6S          0.00000   0.02044  -0.01255   0.01584   0.00000
 122        7PX         0.12253   0.00000  -0.00004  -0.00003   0.00241
 123        7PY        -0.18702   0.00004  -0.00009  -0.00007   0.02088
 124        7PZ         0.00006   0.02662  -0.21013  -0.16340  -0.00001
 125        8PX        -0.28030   0.00000   0.00008   0.00006  -0.00375
 126        8PY         0.42785  -0.00009   0.00020   0.00016  -0.03255
 127        8PZ        -0.00014  -0.06217   0.46463   0.36065   0.00001
 128        9PX        -0.13540   0.00000   0.00004   0.00004  -0.00400
 129        9PY         0.20668  -0.00004   0.00009   0.00009  -0.03470
 130        9PZ        -0.00007  -0.03101   0.21829   0.20647   0.00001
 131       10PX        -0.20148   0.00000   0.00006   0.00001   0.00192
 132       10PY         0.30754  -0.00008   0.00014   0.00001   0.01666
 133       10PZ        -0.00011  -0.07220   0.31778   0.02931  -0.00001
 134       11PX        -0.03406   0.00000   0.00001   0.00000   0.00068
 135       11PY         0.05199  -0.00002   0.00002   0.00000   0.00588
 136       11PZ        -0.00002  -0.02400   0.04619   0.00728   0.00000
 137       12D 0        0.00000  -0.00473  -0.01240   0.06748   0.00004
 138       12D+1        0.00012   0.00000   0.00000   0.00002  -0.00663
 139       12D-1       -0.00018   0.00000  -0.00001   0.00005  -0.05749
 140       12D+2       -0.00021   0.00000   0.00000   0.00000   0.00100
 141       12D-2        0.00013   0.00000   0.00000   0.00000   0.00010
 142       13D 0        0.00000  -0.00754  -0.01943   0.09789   0.00006
 143       13D+1        0.00038   0.00000  -0.00001   0.00003  -0.00989
[...]
  79        6PZ        -0.33237  -0.02922   0.00530  -0.16367  -0.07204
  80        7PX         1.04216  -9.01668  -3.97838  -1.72997  -4.37149
  81        7PY        -0.60987   3.37191  -9.77149   0.99942  -1.11487
  82        7PZ        -1.52516  -3.30336   0.50770   0.02049  -0.35297
  83        8D 0       -0.03718   0.01074  -0.00157   0.02502   0.00812
  84        8D+1        0.01033  -0.02449  -0.01795   0.00832   0.00835
  85        8D-1       -0.00596   0.00673  -0.03843  -0.00476   0.00110
  86        8D+2        0.06378   0.01213   0.10320   0.02449   0.01401
  87        8D-2       -0.11040   0.01501   0.05839  -0.04245   0.02837
  88        9D 0       -0.49614   0.47686  -0.07247  -0.14871   0.11523
  89        9D+1       -0.22287  -0.13989   0.22005  -0.03756  -0.14414
  90        9D-1        0.12838   0.14839   0.31968   0.02116  -0.01316
  91        9D+2       -0.12159  -0.91132  -1.47256  -0.35818  -0.50606
  92        9D-2        0.20839   1.02654  -1.08547   0.62080  -0.15433
  93 4   H  1S         -0.03560  -0.00647  -0.00805  -0.00931   0.01507
  94        2S          0.21878   2.15769   2.69906  -0.52099  -1.25431
  95        3S          7.33076  17.47618  21.85245  -3.20638 -14.66148
  96        4S          1.55605  -1.17605  -1.47298  -1.95811  -6.30733
  97        5PX        -0.02760   0.09976   0.04008  -0.08090  -0.07870
  98        5PY        -0.01582  -0.03789   0.09946  -0.04669   0.00402
  99        5PZ         0.05971   0.00653   0.00805   0.03087   0.00596
 100        6PX        -0.56341  -1.87386  -1.16655   0.60653   0.85975
 101        6PY        -0.32662   0.24414  -1.73311   0.35008   0.00379
 102        6PZ        -0.33218   0.01840   0.02407  -0.16387  -0.09440
 103        7PX        -1.03888  -9.32182  -3.19619   1.73001   5.09067
 104        7PY        -0.60995   4.15421  -9.46554   0.99898  -0.39326
 105        7PZ        -1.52605   2.08508   2.61499   0.01996  -0.46301
 106        8D 0       -0.03717  -0.00682  -0.00845   0.02502   0.01061
 107        8D+1       -0.01037  -0.03014  -0.00346  -0.00832  -0.00989
 108        8D-1       -0.00600   0.02111  -0.03279  -0.00477  -0.00028
 109        8D+2        0.06386  -0.07888   0.06758   0.02451   0.00939
 110        8D-2        0.11035   0.05074  -0.03273   0.04243  -0.03190
 111        9D 0       -0.49613  -0.30139  -0.37667  -0.14873   0.15024
 112        9D+1        0.22267   0.04575  -0.25655   0.03759   0.17218
 113        9D-1        0.12851  -0.32587   0.13374   0.02136   0.01096
 114        9D+2       -0.12219   1.66850  -0.46288  -0.35846  -0.48643
 115        9D-2       -0.20850   0.01669   1.49413  -0.62059   0.10132
 116 5   Cl 1S          0.02032   0.00001  -0.00001   0.01178   0.00000
 117        2S          0.28115   0.00014  -0.00019   0.16382   0.00000
 118        3S          0.78391   0.00039  -0.00052   0.46026   0.00000
 119        4S         -0.04223  -0.00002   0.00003  -0.01475   0.00000
 120        5S         -4.36434  -0.00215   0.00290  -3.02707   0.00002
 121        6S         -9.83246  -0.00456   0.00618 -13.25479   0.00002
 122        7PX         0.00000   0.00073   0.00029   0.00000  -0.00023
 123        7PY         0.00000  -0.00029   0.00073  -0.00001  -0.00297
 124        7PZ        -0.00459   0.00000   0.00000  -0.02275   0.00000
 125        8PX        -0.00001   0.01706   0.00668  -0.00005  -0.00452
 126        8PY        -0.00002  -0.00668   0.01707  -0.00014  -0.05907
 127        8PZ        -0.06479  -0.00002   0.00002  -0.31761   0.00003
 128        9PX         0.00000  -0.00362  -0.00142   0.00001   0.00076
 129        9PY         0.00000   0.00142  -0.00363   0.00004   0.00997
 130        9PZ         0.00189   0.00000   0.00000   0.07964   0.00000
 131       10PX         0.00106  -0.06087  -0.02381   0.00090   0.03222
 132       10PY         0.00257   0.02381  -0.06085   0.00220   0.42104
 133       10PZ         5.92407   0.00283  -0.00379   5.08317  -0.00021
 134       11PX         0.00039  -1.07006  -0.41866   0.00059  -0.01899
 135       11PY        -0.00056   0.41866  -1.07001   0.00148  -0.24820
 136       11PZ         0.79410   0.00033   0.00010   3.36084   0.00012
 137       12D 0        0.06824   0.00003  -0.00007   0.00182   0.00000
 138       12D+1        0.00001   0.02866   0.01122   0.00000  -0.00028
 139       12D-1        0.00008  -0.01121   0.02866   0.00000  -0.00360
 140       12D+2       -0.00001   0.00281  -0.00717   0.00000   0.01212
 141       12D-2        0.00000  -0.00715  -0.00279   0.00000   0.00092
 142       13D 0       -0.38890  -0.00019   0.00035  -0.07061  -0.00002
 143       13D+1       -0.00010  -0.10542  -0.04125  -0.00002   0.00194
 144       13D-1       -0.00038   0.04124  -0.10541  -0.00005   0.02526
 145       13D+2        0.00002  -0.00639   0.01630   0.00000  -0.04374
 146       13D-2       -0.00001   0.01622   0.00632   0.00000  -0.00332
 147       14D 0       -1.39640  -0.00066   0.00064  -1.24245   0.00025
 148       14D+1       -0.00049   0.28475   0.11142  -0.00038  -0.02478
 149       14D-1       -0.00082  -0.11138   0.28468  -0.00094  -0.32325
 150       14D+2       -0.00005   0.02362  -0.06028   0.00000   0.20125
 151       14D-2        0.00001  -0.06010  -0.02342   0.00000   0.01524
 152       15F 0       -0.04311  -0.00002   0.00002   0.00122   0.00002
 153       15F+1       -0.00002   0.00428   0.00168   0.00000  -0.00141
 154       15F-1       -0.00004  -0.00167   0.00427   0.00000  -0.01839
 155       15F+2        0.00000   0.00352  -0.00901  -0.00001   0.01034
 156       15F-2        0.00000  -0.00901  -0.00352  -0.00001   0.00078
 157       15F+3        0.00000   0.00000   0.00000   0.00001   0.00000
 158       15F-3       -0.00936   0.00000   0.00000   0.02294   0.00001
 159       16F 0        0.23376   0.00011  -0.00013   0.08909  -0.00007
 160       16F+1        0.00011  -0.01403  -0.00550   0.00004   0.00481
 161       16F-1        0.00023   0.00546  -0.01398   0.00009   0.06262
 162       16F+2        0.00002  -0.01670   0.04272   0.00002  -0.04235
 163       16F-2       -0.00001   0.04272   0.01669   0.00001  -0.00320
 164       16F+3        0.00001  -0.00002   0.00000  -0.00002  -0.00001
 165       16F-3        0.01945   0.00001   0.00001  -0.04285  -0.00002
 166 6   F  1S          0.04021   0.00002  -0.00003  -0.02260   0.00000
 167        2S          0.14146   0.00007  -0.00010  -0.08580   0.00000
 168        3S         -0.07210  -0.00004   0.00005   0.03662   0.00000
 169        4S         -0.37966  -0.00020   0.00027  -0.02109   0.00001
 170        5S         -0.05704   0.00001  -0.00001  -5.93575   0.00003
 171        6PX         0.00000  -0.00679  -0.00266   0.00000   0.00013
 172        6PY         0.00000   0.00266  -0.00679   0.00000   0.00169
 173        6PZ         0.00539   0.00000   0.00000   0.00222   0.00000
 174        7PX        -0.00002   0.03508   0.01373   0.00000  -0.00047
 175        7PY         0.00000  -0.01373   0.03508   0.00000  -0.00610
 176        7PZ        -0.06377  -0.00003   0.00002   0.00264   0.00000
 177        8PX         0.00017  -0.24511  -0.09590  -0.00004   0.00009
 178        8PY         0.00007   0.09590  -0.24509  -0.00012   0.00117
 179        8PZ         0.62986   0.00031  -0.00030  -0.24689   0.00001
 180        9PX         0.00002  -0.78195  -0.30594  -0.00043  -0.01758
 181        9PY        -0.00101   0.30593  -0.78191  -0.00113  -0.22974
 182        9PZ        -0.86672  -0.00038   0.00092  -2.49232   0.00011
 183       10D 0        0.01137   0.00001   0.00000  -0.00796   0.00000
 184       10D+1        0.00001  -0.01377  -0.00539   0.00000   0.00017
 185       10D-1        0.00000   0.00538  -0.01376  -0.00001   0.00218
 186       10D+2        0.00000  -0.00180   0.00460   0.00000   0.00284
 187       10D-2        0.00000   0.00459   0.00179   0.00000   0.00022
 188       11D 0       -0.04206  -0.00002  -0.00001   0.01568   0.00000
 189       11D+1       -0.00002   0.04424   0.01731   0.00000  -0.00029
 190       11D-1        0.00000  -0.01730   0.04423   0.00001  -0.00378
 191       11D+2       -0.00002   0.00610  -0.01558   0.00000  -0.01005
 192       11D-2        0.00000  -0.01554  -0.00607   0.00000  -0.00077
 193       12D 0        0.41689   0.00021  -0.00017  -0.01111   0.00003
 194       12D+1        0.00016  -0.12852  -0.05029   0.00000  -0.00243
 195       12D-1        0.00021   0.05025  -0.12846  -0.00002  -0.03163
 196       12D+2        0.00006  -0.02278   0.05823   0.00000   0.01905
 197       12D-2       -0.00001   0.05811   0.02269   0.00000   0.00144
 198       13F 0       -0.02741  -0.00001   0.00004  -0.00760  -0.00001
 199       13F+1       -0.00001  -0.01740  -0.00681   0.00000   0.00061
 200       13F-1       -0.00004   0.00682  -0.01741  -0.00001   0.00804
 201       13F+2       -0.00001   0.00331  -0.00847   0.00000   0.00265
 202       13F-2        0.00000  -0.00849  -0.00332   0.00000   0.00020
 203       13F+3        0.00000   0.00001   0.00000   0.00000   0.00000
 204       13F-3        0.01272   0.00001  -0.00001  -0.00138   0.00000
 205       14F 0        0.06824   0.00003  -0.00009   0.01183   0.00002
 206       14F+1        0.00002   0.03760   0.01470   0.00000  -0.00136
 207       14F-1        0.00011  -0.01473   0.03763   0.00001  -0.01782
 208       14F+2        0.00003  -0.00918   0.02351   0.00000  -0.00641
 209       14F-2        0.00000   0.02355   0.00922   0.00000  -0.00049
 210       14F+3       -0.00001  -0.00002   0.00000   0.00000   0.00000
 211       14F-3       -0.01714  -0.00001   0.00002   0.00261   0.00000
                         211
     Eigenvalues --     0.00000
   1 1   C  1S          0.00000
   2        2S          0.00000
   3        3S          0.00000
   4        4S          0.00001
   5        5S          0.00005
   6        6PX         0.00744
   7        6PY        -0.00057
   8        6PZ         0.00000
   9        7PX        -1.53107
  10        7PY         0.11715
  11        7PZ         0.00022
  12        8PX       -17.30784
  13        8PY         1.32442
  14        8PZ         0.00250
  15        9PX        -7.86173
  16        9PY         0.60160
  17        9PZ         0.00113
  18       10D 0        0.00000
  19       10D+1        0.00160
  20       10D-1       -0.00012
  21       10D+2        0.00166
  22       10D-2       -0.02178
  23       11D 0       -0.00005
  24       11D+1        0.20841
  25       11D-1       -0.01585
  26       11D+2        0.03149
  27       11D-2       -0.41295
  28       12D 0       -0.00034
  29       12D+1        1.27992
  30       12D-1       -0.09808
  31       12D+2       -0.04297
  32       12D-2        0.56846
  33       13F 0        0.00001
  34       13F+1       -0.03841
  35       13F-1        0.00294
  36       13F+2        0.00070
  37       13F-2       -0.00934
  38       13F+3        0.00001
  39       13F-3        0.00000
  40       14F 0       -0.00014
  41       14F+1        0.40385
  42       14F-1       -0.03093
  43       14F+2       -0.00583
  44       14F-2        0.07858
  45       14F+3       -0.00005
  46       14F-3        0.00001
  47 2   H  1S         -0.00203
  48        2S          0.16924
  49        3S          1.97823
  50        4S          0.85106
  51        5PX        -0.05172
  52        5PY        -0.00892
  53        5PZ        -0.00079
  54        6PX         0.51518
  55        6PY         0.10066
  56        6PZ         0.01258
  57        7PX         3.48527
  58        7PY         0.56797
  59        7PZ         0.06152
  60        8D 0       -0.00143
  61        8D+1       -0.00566
  62        8D-1       -0.00117
  63        8D+2       -0.00310
  64        8D-2       -0.02910
  65        9D 0       -0.02032
  66        9D+1        0.09209
  67        9D-1        0.02072
  68        9D+2       -0.02085
  69        9D-2        0.57004
  70 3   H  1S          0.02406
  71        2S         -2.00324
  72        3S        -23.41590
  73        4S        -10.07354
  74        5PX         0.08027
  75        5PY        -0.07227
  76        5PZ         0.00952
  77        6PX        -0.92072
  78        6PY         0.78975
  79        6PZ        -0.15070
  80        7PX        -5.07002
  81        7PY         4.67369
  82        7PZ        -0.73947
  83        8D 0        0.01694
  84        8D+1        0.01084
  85        8D-1       -0.00911
  86        8D+2       -0.02922
  87        8D-2        0.02540
  88        9D 0        0.23996
  89        9D+1       -0.19386
  90        9D-1        0.15832
  91        9D+2        0.08983
  92        9D-2        0.33887
  93 4   H  1S         -0.02203
  94        2S          1.83403
  95        3S         21.43759
  96        4S          9.22245
  97        5PX         0.06913
  98        5PY         0.07371
  99        5PZ        -0.00874
 100        6PX        -0.79955
 101        6PY        -0.79821
 102        6PZ         0.13830
 103        7PX        -4.34813
 104        7PY        -4.78769
 105        7PZ         0.67882
 106        8D 0       -0.01552
 107        8D+1        0.00943
 108        8D-1        0.00916
 109        8D+2        0.03103
 110        8D-2        0.02079
 111        9D 0       -0.21957
 112        9D+1       -0.16983
 113        9D-1       -0.15857
 114        9D+2       -0.16554
 115        9D-2        0.35841
 116 5   Cl 1S          0.00000
 117        2S          0.00000
 118        3S          0.00000
 119        4S          0.00000
 120        5S          0.00001
 121        6S          0.00001
 122        7PX         0.00297
 123        7PY        -0.00023
 124        7PZ         0.00000
 125        8PX         0.05906
 126        8PY        -0.00452
 127        8PZ        -0.00001
 128        9PX        -0.00997
 129        9PY         0.00076
 130        9PZ         0.00000
 131       10PX        -0.42103
 132       10PY         0.03222
 133       10PZ         0.00005
 134       11PX         0.24819
 135       11PY        -0.01899
 136       11PZ        -0.00003
 137       12D 0        0.00000
 138       12D+1        0.00361
 139       12D-1       -0.00027
 140       12D+2        0.00092
 141       12D-2       -0.01212
 142       13D 0        0.00001
 143       13D+1       -0.02530
 144       13D-1        0.00193
 145       13D+2       -0.00334
 146       13D-2        0.04373
 147       14D 0       -0.00008
 148       14D+1        0.32342
 149       14D-1       -0.02470
 150       14D+2        0.01538
 151       14D-2       -0.20098
 152       15F 0       -0.00001
 153       15F+1        0.01840
 154       15F-1       -0.00140
 155       15F+2        0.00079
 156       15F-2       -0.01032
 157       15F+3        0.00001
 158       15F-3        0.00000
 159       16F 0        0.00002
 160       16F+1       -0.06268
 161       16F-1        0.00478
 162       16F+2       -0.00324
 163       16F-2        0.04227
 164       16F+3       -0.00002
 165       16F-3        0.00001
 166 6   F  1S          0.00000
 167        2S          0.00000
 168        3S          0.00000
 169        4S          0.00000
 170        5S          0.00001
 171        6PX        -0.00169
 172        6PY         0.00013
 173        6PZ         0.00000
 174        7PX         0.00610
 175        7PY        -0.00047
 176        7PZ         0.00000
 177        8PX        -0.00117
 178        8PY         0.00009
 179        8PZ         0.00000
 180        9PX         0.22974
 181        9PY        -0.01758
 182        9PZ        -0.00003
 183       10D 0        0.00000
 184       10D+1       -0.00218
 185       10D-1        0.00017
 186       10D+2        0.00022
 187       10D-2       -0.00284
 188       11D 0        0.00000
 189       11D+1        0.00377
 190       11D-1       -0.00029
 191       11D+2       -0.00076
 192       11D-2        0.01005
 193       12D 0       -0.00001
 194       12D+1        0.03164
 195       12D-1       -0.00242
 196       12D+2        0.00146
 197       12D-2       -0.01901
 198       13F 0        0.00000
 199       13F+1       -0.00804
 200       13F-1        0.00062
 201       13F+2        0.00020
 202       13F-2       -0.00266
 203       13F+3        0.00000
 204       13F-3        0.00000
 205       14F 0       -0.00001
 206       14F+1        0.01781
 207       14F-1       -0.00137
 208       14F+2       -0.00048
 209       14F-2        0.00643
 210       14F+3        0.00000
 211       14F-3        0.00000
          Condensed to atoms (all electrons):
              1          2          3          4          5          6
     1  C    7.012219  -0.009267  -0.009272  -0.009272  -0.050911  -0.099838
     2  H   -0.009267   0.547072   0.020074   0.020074  -0.018740   0.004334
     3  H   -0.009272   0.020074   0.547075   0.020075  -0.018739   0.004338
     4  H   -0.009272   0.020074   0.020075   0.547074  -0.018739   0.004337
     5  Cl  -0.050911  -0.018740  -0.018739  -0.018739  17.709259   0.026400
     6  F   -0.099838   0.004334   0.004338   0.004337   0.026400   9.907593
 Mulliken atomic charges:
              1
     1  C   -0.833659
     2  H    0.436454
     3  H    0.436449
     4  H    0.436451
     5  Cl  -0.628530
     6  F   -0.847165
 Sum of Mulliken atomic charges =  -1.00000
 Mulliken charges with hydrogens summed into heavy atoms:
              1
     1  C    0.475695
     5  Cl  -0.628530
     6  F   -0.847165
 Sum of Mulliken charges with hydrogens summed into heavy atoms =  -1.00000
 Electronic spatial extent (au):  <R**2>=            490.3130
 Charge=             -1.0000 electrons
 Dipole moment (field-independent basis, Debye):
    X=             -0.0006    Y=              0.0007    Z=              4.0661  Tot=              4.0661
 Quadrupole moment (field-independent basis, Debye-Ang):
   XX=            -28.1814   YY=            -28.1814   ZZ=            -62.8201
   XY=              0.0000   XZ=             -0.0050   YZ=             -0.0145
 Traceless Quadrupole moment (field-independent basis, Debye-Ang):
   XX=             11.5462   YY=             11.5462   ZZ=            -23.0925
   XY=              0.0000   XZ=             -0.0050   YZ=             -0.0145
 Octapole moment (field-independent basis, Debye-Ang**2):
  XXX=             -0.0244  YYY=             -0.9747  ZZZ=             49.6869  XYY=             -0.0086
  XXY=              0.9406  XXZ=             -4.2364  XZZ=             -0.0066  YZZ=              0.0111
  YYZ=             -4.2356  XYZ=             -0.0002
 Hexadecapole moment (field-independent basis, Debye-Ang**3):
 XXXX=            -41.2683 YYYY=            -41.2682 ZZZZ=           -761.6375 XXXY=              0.0004
 XXXZ=             -0.0507 YYYX=             -0.0002 YYYZ=              0.5143 ZZZX=             -0.0657
 ZZZY=             -0.1889 XXYY=            -13.7562 XXZZ=           -103.3850 YYZZ=           -103.3861
 XXYZ=             -0.6773 YYXZ=             -0.0166 ZZXY=              0.0002
 N-N= 8.498438835457D+01 E-N=-1.604180799185D+03  KE= 5.991954577804D+02
 1\1\GINC-TRAPISTA\SP\RQCISD-FC\Aug-CC-pVTZ\C1H3Cl1F1(1-)\BRUNS\05-Aug-
 2021\0\\# QCISD aug-cc-pvtz nosymm density=current output=wfn\\title l
 ine\\-1,1\C,0,0.000175,0.000029,-0.497709\H,0,0.000019,-1.05257,-0.620
 726\H,0,-0.911312,0.526365,-0.621245\H,0,0.91175,0.526132,-0.62157\Cl,
 0,0.000555,0.000962,1.644718\F,0,-0.000186,-0.000921,-2.59346\\Version
 =EM64L-G09RevB.01\HF=-598.6171244\MP2=-599.2912672\MP3=-599.3099682\MP
 4D=-599.3248586\MP4DQ=-599.3104197\MP4SDQ=-599.3197859\QCISD=-599.3191
 679\RMSD=9.411e-09\Dipole=0.0002718,0.0007245,1.5872656\Quadrupole=8.5
 843541,8.5843532,-17.1687072,-0.0000022,-0.0036923,-0.0107487\PG=C01 [
 X(C1H3Cl1F1)]\\@

 Writing a WFN file to GAUSSIAN.wfn.


  DISAPPOINTMENT IS THE NURSE OF WISDOM.               
                              SIR BOYLE ROCHE                 
 Job cpu time:  0 days  3 hours 39 minutes  1.8 seconds.
 File lengths (MBytes):  RWF=  29002 Int=      0 D2E=      0 Chk=      4 Scr=      1
 Normal termination of Gaussian 09 at Thu Aug  5 13:33:23 2021.
