 title line
GAUSSIAN            211 MOL ORBITALS    339 PRIMITIVES        6 NUCLEI
  C    1    (CENTRE  1)   0.00033070  0.00005480 -0.94053370  CHARGE =  6.0
  H    2    (CENTRE  2)   0.00003590 -1.98906904 -1.17300214  CHARGE =  1.0
  H    3    (CENTRE  3)  -1.72213010  0.99468570 -1.17398291  CHARGE =  1.0
  H    4    (CENTRE  4)   1.72295780  0.99424539 -1.15569981  CHARGE =  1.0
  Cl   5    (CENTRE  5)   0.00104880  0.00181792  3.10806659  CHARGE = 17.0
  F    6    (CENTRE  6)  -0.00035149 -0.00174044 -4.90092914  CHARGE =  9.0
CENTRE ASSIGNMENTS    1  1  1  1  1  1  1  1  1  1  1  1  1  1  1  1  1  1  1  1
CENTRE ASSIGNMENTS    1  1  1  1  1  1  1  1  1  1  1  1  1  1  1  1  1  1  1  1
CENTRE ASSIGNMENTS    1  1  1  1  1  1  1  1  1  1  1  1  1  1  1  1  1  1  1  1
CENTRE ASSIGNMENTS    1  1  1  1  1  1  1  1  1  1  1  1  2  2  2  2  2  2  2  2
CENTRE ASSIGNMENTS    2  2  2  2  2  2  2  2  2  2  2  2  2  2  2  2  2  2  2  3
CENTRE ASSIGNMENTS    3  3  3  3  3  3  3  3  3  3  3  3  3  3  3  3  3  3  3  3
CENTRE ASSIGNMENTS    3  3  3  3  3  3  4  4  4  4  4  4  4  4  4  4  4  4  4  4
CENTRE ASSIGNMENTS    4  4  4  4  4  4  4  4  4  4  4  4  4  5  5  5  5  5  5  5
CENTRE ASSIGNMENTS    5  5  5  5  5  5  5  5  5  5  5  5  5  5  5  5  5  5  5  5
CENTRE ASSIGNMENTS    5  5  5  5  5  5  5  5  5  5  5  5  5  5  5  5  5  5  5  5
CENTRE ASSIGNMENTS    5  5  5  5  5  5  5  5  5  5  5  5  5  5  5  5  5  5  5  5
CENTRE ASSIGNMENTS    5  5  5  5  5  5  5  5  5  5  5  5  5  5  5  5  5  5  5  5
CENTRE ASSIGNMENTS    5  5  5  5  5  5  5  5  5  5  5  5  5  5  5  5  5  5  5  5
CENTRE ASSIGNMENTS    5  5  5  5  5  5  5  6  6  6  6  6  6  6  6  6  6  6  6  6
CENTRE ASSIGNMENTS    6  6  6  6  6  6  6  6  6  6  6  6  6  6  6  6  6  6  6  6
CENTRE ASSIGNMENTS    6  6  6  6  6  6  6  6  6  6  6  6  6  6  6  6  6  6  6  6
CENTRE ASSIGNMENTS    6  6  6  6  6  6  6  6  6  6  6  6  6  6  6  6  6  6  6
TYPE ASSIGNMENTS      1  1  1  1  1  1  1  1  1  1  1  1  1  1  1  1  2  2  2  3
TYPE ASSIGNMENTS      3  3  4  4  4  2  3  4  2  3  4  2  3  4  5  6  7  8  9 10
TYPE ASSIGNMENTS      5  6  7  8  9 10  5  6  7  8  9 10 11 12 13 17 14 15 18 19
TYPE ASSIGNMENTS     16 20 11 12 13 17 14 15 18 19 16 20  1  1  1  1  1  1  2  3
TYPE ASSIGNMENTS      4  2  3  4  2  3  4  5  6  7  8  9 10  5  6  7  8  9 10  1
TYPE ASSIGNMENTS      1  1  1  1  1  2  3  4  2  3  4  2  3  4  5  6  7  8  9 10
TYPE ASSIGNMENTS      5  6  7  8  9 10  1  1  1  1  1  1  2  3  4  2  3  4  2  3
TYPE ASSIGNMENTS      4  5  6  7  8  9 10  5  6  7  8  9 10  1  1  1  1  1  1  1
TYPE ASSIGNMENTS      1  1  1  1  1  1  1  1  1  1  1  1  1  1  1  1  1  1  1  1
TYPE ASSIGNMENTS      1  1  1  1  2  2  2  2  2  2  3  3  3  3  3  3  4  4  4  4
TYPE ASSIGNMENTS      4  4  2  2  2  2  2  2  3  3  3  3  3  3  4  4  4  4  4  4
TYPE ASSIGNMENTS      2  3  4  2  3  4  2  3  4  5  6  7  8  9 10  5  6  7  8  9
TYPE ASSIGNMENTS     10  5  6  7  8  9 10 11 12 13 17 14 15 18 19 16 20 11 12 13
TYPE ASSIGNMENTS     17 14 15 18 19 16 20  1  1  1  1  1  1  1  1  1  1  1  1  1
TYPE ASSIGNMENTS      1  1  1  2  2  2  3  3  3  4  4  4  2  3  4  2  3  4  2  3
TYPE ASSIGNMENTS      4  5  6  7  8  9 10  5  6  7  8  9 10  5  6  7  8  9 10 11
TYPE ASSIGNMENTS     12 13 17 14 15 18 19 16 20 11 12 13 17 14 15 18 19 16 20
EXPONENTS  0.8236000D+04 0.1235000D+04 0.2808000D+03 0.7927000D+02 0.2559000D+02
EXPONENTS  0.8997000D+01 0.3319000D+01 0.2808000D+03 0.7927000D+02 0.2559000D+02
EXPONENTS  0.8997000D+01 0.3319000D+01 0.3643000D+00 0.9059000D+00 0.1285000D+00
EXPONENTS  0.4402000D-01 0.1871000D+02 0.4133000D+01 0.1200000D+01 0.1871000D+02
EXPONENTS  0.4133000D+01 0.1200000D+01 0.1871000D+02 0.4133000D+01 0.1200000D+01
EXPONENTS  0.3827000D+00 0.3827000D+00 0.3827000D+00 0.1209000D+00 0.1209000D+00
EXPONENTS  0.1209000D+00 0.3569000D-01 0.3569000D-01 0.3569000D-01 0.1097000D+01
EXPONENTS  0.1097000D+01 0.1097000D+01 0.1097000D+01 0.1097000D+01 0.1097000D+01
EXPONENTS  0.3180000D+00 0.3180000D+00 0.3180000D+00 0.3180000D+00 0.3180000D+00
EXPONENTS  0.3180000D+00 0.1000000D+00 0.1000000D+00 0.1000000D+00 0.1000000D+00
EXPONENTS  0.1000000D+00 0.1000000D+00 0.7610000D+00 0.7610000D+00 0.7610000D+00
EXPONENTS  0.7610000D+00 0.7610000D+00 0.7610000D+00 0.7610000D+00 0.7610000D+00
EXPONENTS  0.7610000D+00 0.7610000D+00 0.2680000D+00 0.2680000D+00 0.2680000D+00
EXPONENTS  0.2680000D+00 0.2680000D+00 0.2680000D+00 0.2680000D+00 0.2680000D+00
EXPONENTS  0.2680000D+00 0.2680000D+00 0.3387000D+02 0.5095000D+01 0.1159000D+01
EXPONENTS  0.3258000D+00 0.1027000D+00 0.2526000D-01 0.1407000D+01 0.1407000D+01
EXPONENTS  0.1407000D+01 0.3880000D+00 0.3880000D+00 0.3880000D+00 0.1020000D+00
EXPONENTS  0.1020000D+00 0.1020000D+00 0.1057000D+01 0.1057000D+01 0.1057000D+01
EXPONENTS  0.1057000D+01 0.1057000D+01 0.1057000D+01 0.2470000D+00 0.2470000D+00
EXPONENTS  0.2470000D+00 0.2470000D+00 0.2470000D+00 0.2470000D+00 0.3387000D+02
EXPONENTS  0.5095000D+01 0.1159000D+01 0.3258000D+00 0.1027000D+00 0.2526000D-01
EXPONENTS  0.1407000D+01 0.1407000D+01 0.1407000D+01 0.3880000D+00 0.3880000D+00
EXPONENTS  0.3880000D+00 0.1020000D+00 0.1020000D+00 0.1020000D+00 0.1057000D+01
EXPONENTS  0.1057000D+01 0.1057000D+01 0.1057000D+01 0.1057000D+01 0.1057000D+01
EXPONENTS  0.2470000D+00 0.2470000D+00 0.2470000D+00 0.2470000D+00 0.2470000D+00
EXPONENTS  0.2470000D+00 0.3387000D+02 0.5095000D+01 0.1159000D+01 0.3258000D+00
EXPONENTS  0.1027000D+00 0.2526000D-01 0.1407000D+01 0.1407000D+01 0.1407000D+01
EXPONENTS  0.3880000D+00 0.3880000D+00 0.3880000D+00 0.1020000D+00 0.1020000D+00
EXPONENTS  0.1020000D+00 0.1057000D+01 0.1057000D+01 0.1057000D+01 0.1057000D+01
EXPONENTS  0.1057000D+01 0.1057000D+01 0.2470000D+00 0.2470000D+00 0.2470000D+00
EXPONENTS  0.2470000D+00 0.2470000D+00 0.2470000D+00 0.4561000D+06 0.6833000D+05
EXPONENTS  0.1555000D+05 0.4405000D+04 0.1439000D+04 0.5204000D+03 0.2031000D+03
EXPONENTS  0.8396000D+02 0.3620000D+02 0.1583000D+02 0.6334000D+01 0.4405000D+04
EXPONENTS  0.1439000D+04 0.5204000D+03 0.2031000D+03 0.8396000D+02 0.3620000D+02
EXPONENTS  0.1583000D+02 0.6334000D+01 0.2694000D+01 0.1439000D+04 0.2031000D+03
EXPONENTS  0.8396000D+02 0.3620000D+02 0.1583000D+02 0.6334000D+01 0.2694000D+01
EXPONENTS  0.4313000D+00 0.9768000D+00 0.1625000D+00 0.5910000D-01 0.6633000D+03
EXPONENTS  0.1568000D+03 0.4998000D+02 0.1842000D+02 0.7240000D+01 0.2922000D+01
EXPONENTS  0.6633000D+03 0.1568000D+03 0.4998000D+02 0.1842000D+02 0.7240000D+01
EXPONENTS  0.2922000D+01 0.6633000D+03 0.1568000D+03 0.4998000D+02 0.1842000D+02
EXPONENTS  0.7240000D+01 0.2922000D+01 0.1568000D+03 0.4998000D+02 0.1842000D+02
EXPONENTS  0.7240000D+01 0.2922000D+01 0.3818000D+00 0.1568000D+03 0.4998000D+02
EXPONENTS  0.1842000D+02 0.7240000D+01 0.2922000D+01 0.3818000D+00 0.1568000D+03
EXPONENTS  0.4998000D+02 0.1842000D+02 0.7240000D+01 0.2922000D+01 0.3818000D+00
EXPONENTS  0.1022000D+01 0.1022000D+01 0.1022000D+01 0.1301000D+00 0.1301000D+00
EXPONENTS  0.1301000D+00 0.4190000D-01 0.4190000D-01 0.4190000D-01 0.1046000D+01
EXPONENTS  0.1046000D+01 0.1046000D+01 0.1046000D+01 0.1046000D+01 0.1046000D+01
EXPONENTS  0.3440000D+00 0.3440000D+00 0.3440000D+00 0.3440000D+00 0.3440000D+00
EXPONENTS  0.3440000D+00 0.1350000D+00 0.1350000D+00 0.1350000D+00 0.1350000D+00
EXPONENTS  0.1350000D+00 0.1350000D+00 0.7060000D+00 0.7060000D+00 0.7060000D+00
EXPONENTS  0.7060000D+00 0.7060000D+00 0.7060000D+00 0.7060000D+00 0.7060000D+00
EXPONENTS  0.7060000D+00 0.7060000D+00 0.3120000D+00 0.3120000D+00 0.3120000D+00
EXPONENTS  0.3120000D+00 0.3120000D+00 0.3120000D+00 0.3120000D+00 0.3120000D+00
EXPONENTS  0.3120000D+00 0.3120000D+00 0.1950000D+05 0.2923000D+04 0.6645000D+03
EXPONENTS  0.1875000D+03 0.6062000D+02 0.2142000D+02 0.7950000D+01 0.6645000D+03
EXPONENTS  0.1875000D+03 0.6062000D+02 0.2142000D+02 0.7950000D+01 0.8815000D+00
EXPONENTS  0.2257000D+01 0.3041000D+00 0.9158000D-01 0.4388000D+02 0.9926000D+01
EXPONENTS  0.2930000D+01 0.4388000D+02 0.9926000D+01 0.2930000D+01 0.4388000D+02
EXPONENTS  0.9926000D+01 0.2930000D+01 0.9132000D+00 0.9132000D+00 0.9132000D+00
EXPONENTS  0.2672000D+00 0.2672000D+00 0.2672000D+00 0.7361000D-01 0.7361000D-01
EXPONENTS  0.7361000D-01 0.3107000D+01 0.3107000D+01 0.3107000D+01 0.3107000D+01
EXPONENTS  0.3107000D+01 0.3107000D+01 0.8550000D+00 0.8550000D+00 0.8550000D+00
EXPONENTS  0.8550000D+00 0.8550000D+00 0.8550000D+00 0.2920000D+00 0.2920000D+00
EXPONENTS  0.2920000D+00 0.2920000D+00 0.2920000D+00 0.2920000D+00 0.1917000D+01
EXPONENTS  0.1917000D+01 0.1917000D+01 0.1917000D+01 0.1917000D+01 0.1917000D+01
EXPONENTS  0.1917000D+01 0.1917000D+01 0.1917000D+01 0.1917000D+01 0.7240000D+00
EXPONENTS  0.7240000D+00 0.7240000D+00 0.7240000D+00 0.7240000D+00 0.7240000D+00
EXPONENTS  0.7240000D+00 0.7240000D+00 0.7240000D+00 0.7240000D+00
MO    1     MO 0.0        OCC NO =    2.0000300  ORB. ENERGY =    0.000000
 -0.56464718D-04 -0.10526161D-03 -0.17790646D-03 -0.26742659D-03 -0.32848567D-03
 -0.27723031D-03 -0.10424584D-03  0.16443063D-07  0.12290171D-06  0.45931176D-06
  0.12814083D-05  0.17167338D-05 -0.20271425D-05 -0.84501661D-05  0.31187454D-04
  0.98504066D-06  0.99105135D-04  0.92917364D-04  0.66162698D-04  0.57203274D-04
  0.53631706D-04  0.38188969D-04 -0.61638552D-05 -0.57790061D-05 -0.41149966D-05
  0.31757116D-03  0.18330798D-03 -0.12996350D-05  0.40469633D-03  0.23360207D-03
  0.68376175D-05  0.79940298D-05  0.46142281D-05  0.30187945D-07  0.31798762D-04
 -0.31267579D-04 -0.53118339D-06  0.10887099D-03 -0.44053153D-03 -0.25424950D-03
  0.99284841D-04 -0.97674712D-04 -0.16101291D-05  0.34097537D-03  0.90610193D-04
  0.52434081D-04  0.20911383D-04 -0.20884628D-04 -0.26754461D-07  0.72305888D-04
 -0.56146585D-04 -0.32380664D-04  0.80377376D-04  0.46217900D-04 -0.13398253D-05
  0.80391493D-04  0.46919352D-04  0.15589928D-04 -0.32152362D-03 -0.18557305D-03
 -0.11570452D-04  0.46468793D-04 -0.23401597D-04 -0.14469148D-04  0.63865557D-06
 -0.23372256D-04 -0.10640767D-04  0.24897991D-04  0.93577047D-04  0.54048211D-04
 -0.26813957D-04  0.89667940D-04 -0.20029323D-04 -0.36123709D-04 -0.53264387D-04
  0.17488320D-03  0.56283857D-03 -0.62882542D-05  0.35216956D-05  0.35505324D-04
  0.11758284D-04  0.74520222D-04  0.14326599D-03  0.13699726D-03  0.66952307D-04
  0.86102324D-04  0.11340316D-04 -0.54731440D-04  0.21395099D-04  0.33336341D-04
  0.27560770D-04 -0.38996463D-04  0.14963994D-03 -0.21747211D-04 -0.58300020D-05
  0.27577214D-04  0.25936400D-04  0.53265740D-04  0.16031005D-04 -0.20026935D-04
 -0.36119401D-04 -0.53258036D-04  0.17486622D-03  0.56276582D-03 -0.62867151D-05
  0.32500570D-04 -0.14705294D-04  0.11776128D-04  0.16128209D-03 -0.70574407D-05
  0.13702481D-03  0.10803468D-03  0.14917813D-04  0.11360239D-04  0.14254561D-04
 -0.47673066D-04  0.33418505D-04 -0.52088441D-04  0.11005496D-03 -0.10854681D-03
  0.14109837D-05 -0.28977669D-04  0.27566685D-04 -0.82036986D-06  0.40510336D-04
  0.38162599D-04  0.38971098D-04  0.70285980D-04  0.10363664D-03 -0.38660571D-03
 -0.11391069D-02  0.12425460D-04  0.65191693D-04  0.37618499D-04 -0.26790137D-04
  0.25374506D-03  0.14636596D-03 -0.27738955D-03  0.15091280D-03  0.87099722D-04
 -0.23300299D-04 -0.36343557D-05  0.72937562D-04 -0.69303206D-04 -0.13237818D-03
  0.25864756D-03  0.14916128D-03  0.20023240D-04  0.35915869D-04 -0.55939108D-04
 -0.27494426D-04  0.27352476D-04  0.15722208D-04  0.48130272D-05  0.90046604D-05
  0.15558056D-04  0.25221436D-04  0.38301172D-04  0.53235025D-04  0.63292365D-04
  0.56383038D-04  0.28001009D-04  0.45079256D-05  0.47561278D-07  0.19382018D-07
  0.64655169D-06  0.22531032D-05  0.81137894D-05  0.17885839D-04  0.25177489D-04
 -0.12010483D-05 -0.32949116D-04 -0.19482606D-04  0.40563319D-08  0.49132085D-07
  0.10245978D-06  0.29383682D-06  0.15258537D-07 -0.12671669D-05 -0.32741158D-05
  0.26675955D-05 -0.26223560D-06 -0.60168936D-05  0.23942502D-06  0.10055652D+02
  0.13245646D+02  0.14612021D+02  0.12136428D+02  0.64447800D+01  0.16627869D+01
  0.58044487D+01  0.76458167D+01  0.84345327D+01  0.70055398D+01  0.37201360D+01
  0.95981454D+00 -0.30253599D-01 -0.39851068D-01 -0.43961966D-01 -0.36513855D-01
 -0.19389870D-01 -0.50026878D-02 -0.39798437D-03  0.38474568D-02  0.54253157D-02
  0.77596366D-02 -0.39293707D-04 -0.71163186D-02 -0.22972926D-03  0.22208747D-02
  0.31316651D-02  0.44791096D-02 -0.22681580D-04 -0.41077659D-02  0.14348901D-05
 -0.13871595D-04 -0.19560397D-04 -0.27976541D-04  0.14166927D-06  0.25657127D-04
  0.66391902D-01  0.38323553D-01 -0.20593972D-03 -0.55742696D-03 -0.32176514D-03
  0.36057314D-05 -0.50237294D-04 -0.28998654D-04  0.57372656D-07  0.38760799D-05
 -0.78772255D-05  0.40011456D-05  0.19778182D-04 -0.84934573D-03 -0.49025547D-03
 -0.11594210D-05  0.33547022D-05 -0.21952812D-05 -0.76075919D-05  0.30942674D-03
  0.17860369D-03  0.74259429D-06 -0.58684523D-06 -0.15574907D-06  0.22654083D-05
 -0.52863953D-04 -0.30513656D-04  0.22853264D-05  0.14875778D-05 -0.77572499D-07
  0.23060954D-05  0.80123583D-06  0.18162902D-04 -0.91620747D-05 -0.52639693D-05
 -0.17930185D-04  0.62455257D-04  0.12738317D-04  0.72997384D-05  0.32506922D-06
  0.12734075D-04  0.75140207D-05 -0.41902132D-05 -0.50949024D-04 -0.29413236D-04
  0.32150055D-05 -0.12901360D-04  0.30554597D-05  0.56953821D-05  0.96549415D-05
  0.14618887D-04  0.18276829D-04  0.15721350D-04  0.60294762D-05  0.41784515D-08
  0.55314874D-07  0.20091369D-06  0.59600667D-06  0.68677731D-06 -0.83419333D-06
  0.21266399D-06  0.14855864D-05 -0.87079460D-06 -0.25127134D-03 -0.24573789D-03
 -0.16236941D-03 -0.14504859D-03 -0.14185436D-03 -0.93729170D-04 -0.16166494D-04
 -0.15810478D-04 -0.10446651D-04 -0.61752150D-05 -0.35710583D-05 -0.28141277D-05
 -0.58494081D-04 -0.33760357D-04 -0.77376871D-07 -0.16962295D-04 -0.97911658D-05
 -0.22875358D-06  0.35088342D-04 -0.34336046D-04 -0.75229554D-06  0.12008036D-03
 -0.11612755D-03 -0.66984736D-04 -0.17654097D-04  0.17213024D-04  0.44107214D-06
 -0.60286002D-04  0.88964965D-04  0.51328568D-04  0.87320831D-05 -0.89764656D-05
  0.24438247D-06  0.30603628D-04 -0.64798968D-04 -0.37387761D-04 -0.61882729D-04
 -0.36065536D-04 -0.87701154D-06 -0.62006999D-04 -0.34607703D-04 -0.93104550D-04
  0.24765519D-03  0.14280431D-03  0.95735584D-04 -0.32639820D-03  0.21995702D-04
  0.12807147D-04  0.42366573D-06  0.22034977D-04  0.12338827D-04  0.29324964D-04
 -0.88022084D-04 -0.50760268D-04 -0.30595961D-04  0.10355214D-03
MO    2     MO 0.0        OCC NO =    2.0000300  ORB. ENERGY =    0.000000
 -0.12891826D-07 -0.24032961D-07 -0.40618978D-07 -0.61057901D-07 -0.74998695D-07
 -0.63296253D-07 -0.23801044D-07 -0.12937690D-10 -0.96701217D-10 -0.36139453D-09
 -0.10082345D-08 -0.13507562D-08  0.15949912D-08  0.52873878D-09 -0.10390064D-07
 -0.76036931D-08 -0.55190775D-04 -0.51744860D-04 -0.36845423D-04  0.95609899D-04
  0.89640357D-04  0.63829274D-04 -0.24650021D-07 -0.23110961D-07 -0.16456381D-07
 -0.18275548D-03  0.31659867D-03 -0.11234381D-06 -0.23284141D-03  0.40336710D-03
 -0.12283222D-06 -0.46292342D-05  0.80193381D-05 -0.25654225D-08  0.55274650D-04
 -0.55424803D-04  0.15015389D-06 -0.63789205D-04  0.25486408D-03 -0.44145538D-03
  0.17008635D-03 -0.17006099D-03 -0.25359132D-07 -0.19655363D-03 -0.48377911D-04
  0.84038462D-04  0.36114969D-04 -0.36132178D-04  0.17209069D-07 -0.41718514D-04
  0.33012047D-04 -0.57139846D-04 -0.46393733D-04  0.80096402D-04  0.10387809D-06
 -0.45786887D-04  0.80109423D-04  0.22454653D-04  0.18496809D-03 -0.32039863D-03
 -0.22766288D-04 -0.25814153D-04  0.13212107D-04 -0.23062106D-04 -0.28799949D-07
  0.13568395D-04 -0.23036666D-04  0.42681484D-04 -0.53204717D-04  0.92222984D-04
 -0.42595084D-04 -0.49358574D-04 -0.34677918D-04 -0.62543054D-04 -0.92219696D-04
  0.32316924D-03  0.98096806D-03 -0.10647076D-04 -0.17311082D-05  0.62345312D-04
  0.21288389D-04 -0.43429371D-04  0.25158665D-03  0.23344743D-03 -0.38539175D-04
  0.15023434D-03  0.19527235D-04 -0.95486783D-04  0.36906136D-04  0.58580647D-04
 -0.16352063D-04  0.23521748D-04  0.25764402D-03 -0.37673226D-04 -0.10221542D-04
  0.47894768D-04 -0.14956117D-04 -0.30204369D-04  0.26902606D-04  0.34678790D-04
  0.62544626D-04  0.92222014D-04 -0.32317033D-03 -0.98101949D-03  0.10647831D-04
 -0.53115735D-04  0.32675587D-04 -0.21324881D-04 -0.19606901D-03  0.16333749D-03
 -0.23358912D-03 -0.11081318D-03  0.10851098D-03 -0.19612299D-04  0.33708393D-05
  0.55334071D-04 -0.58704910D-04  0.12271418D-03 -0.23489407D-03  0.10843643D-03
  0.23569824D-04  0.24347610D-04 -0.47917435D-04  0.31236945D-04 -0.81622077D-05
  0.39542061D-04 -0.23094471D-08 -0.41651830D-08 -0.61415598D-08  0.29833652D-07
  0.48810126D-07  0.20354200D-09 -0.14467139D-05  0.24944206D-05  0.79630152D-09
 -0.43081513D-04  0.74605200D-04 -0.12812577D-07 -0.38598284D-04  0.66860389D-04
 -0.22221586D-07  0.13100341D-04 -0.13118790D-04  0.18448628D-07 -0.15115308D-04
  0.25433303D-04 -0.44065074D-04  0.13075983D-04 -0.13062696D-04 -0.13286755D-07
 -0.15118611D-04 -0.29549232D-04  0.51207970D-04  0.15604749D-06  0.29194820D-06
  0.50442173D-06  0.81772689D-06  0.12417968D-05  0.17259807D-05  0.20520587D-05
  0.18280452D-05  0.90784592D-06  0.14615551D-06  0.15420270D-08  0.73159342D-09
  0.24404732D-07  0.85045604D-07  0.30626299D-06  0.67511865D-06  0.95034917D-06
 -0.45334753D-07 -0.12436969D-05 -0.73539021D-06  0.15056689D-10  0.18237328D-09
  0.38032024D-09  0.10906922D-08  0.56638129D-10 -0.47035939D-08 -0.12153183D-07
  0.99018417D-08 -0.43764885D-07  0.21241276D-08  0.16478386D-08 -0.58044715D+01
 -0.76458468D+01 -0.84345659D+01 -0.70055674D+01 -0.37201507D+01 -0.95981832D+00
  0.10055675D+02  0.13245676D+02  0.14612054D+02  0.12136455D+02  0.64447942D+01
  0.16627906D+01 -0.33411225D-02 -0.44010399D-02 -0.48550359D-02 -0.40324875D-02
 -0.21413627D-02 -0.55248278D-03  0.22966451D-03 -0.22202487D-02 -0.31307824D-02
 -0.44778471D-02  0.22675187D-04  0.41066081D-02 -0.39787087D-03  0.38463595D-02
  0.54237684D-02  0.77574236D-02 -0.39282501D-04 -0.71142891D-02  0.13244654D-06
 -0.12804080D-05 -0.18055089D-05 -0.25823553D-05  0.13076684D-07  0.23682634D-05
 -0.38323730D-01  0.66392078D-01 -0.22063399D-04  0.32179597D-03 -0.55748130D-03
  0.18632821D-06  0.28998733D-04 -0.50237492D-04  0.16495248D-07  0.11474642D-04
 -0.11756302D-04  0.28166037D-06 -0.13095936D-04  0.48892211D-03 -0.84698769D-03
 -0.37639553D-05  0.38680282D-05 -0.10407292D-06  0.42909776D-05 -0.17786373D-03
  0.30812176D-03  0.11610723D-05 -0.11782303D-05  0.17158057D-07 -0.13310039D-05
  0.30381674D-04 -0.52630885D-04 -0.12660087D-05  0.19629088D-05  0.28883787D-08
 -0.77049130D-06  0.19835718D-05  0.30550854D-04  0.45685175D-05 -0.78722983D-05
 -0.30559519D-04 -0.35298282D-04 -0.72750144D-05  0.12704441D-04  0.17203170D-07
 -0.75017657D-05  0.12700042D-04 -0.63950036D-05  0.29326809D-04 -0.50813367D-04
  0.63433941D-05  0.74081403D-05 -0.19141077D-07 -0.35679001D-07 -0.60483856D-07
 -0.91580737D-07 -0.11449609D-06 -0.98487171D-07 -0.37771950D-07  0.41961865D-10
  0.55549652D-09  0.20176644D-08  0.59853635D-08  0.68969225D-08 -0.83773396D-08
 -0.61288123D-09  0.14365700D-07  0.14287454D-07  0.14561820D-03  0.14241142D-03
  0.94097245D-04 -0.25227015D-03 -0.24671470D-03 -0.16301483D-03  0.10054161D-06
  0.98327501D-07  0.64969137D-07  0.41570469D-05 -0.72113452D-05 -0.27012707D-08
  0.33390566D-04 -0.57838219D-04  0.35426600D-07  0.97473273D-05 -0.16886066D-04
  0.75611584D-08  0.61500542D-04 -0.61534610D-04  0.34067818D-07 -0.71034865D-04
  0.66651801D-04 -0.11538055D-03 -0.30835753D-04  0.30864303D-04 -0.28549825D-07
  0.35609953D-04 -0.51163423D-04  0.88590257D-04  0.15573284D-04 -0.15598320D-04
  0.25035312D-07 -0.17982044D-04  0.37116864D-04 -0.64273003D-04  0.35159039D-04
 -0.61822106D-04 -0.89222413D-07  0.37477230D-04 -0.61930852D-04 -0.16325503D-03
 -0.14295435D-03  0.24739717D-03  0.16352270D-03  0.18852915D-03 -0.12515460D-04
  0.21952736D-04  0.32443727D-07 -0.13208922D-04  0.21987165D-04  0.51791916D-04
  0.50755302D-04 -0.87845372D-04 -0.51889247D-04 -0.59807260D-04
MO    3     MO 0.0        OCC NO =    2.0000210  ORB. ENERGY =    0.000000
 -0.14423649D-01 -0.26888587D-01 -0.45445375D-01 -0.68312875D-01 -0.83910132D-01
 -0.70817191D-01 -0.26629113D-01 -0.38200001D-05 -0.28552134D-04 -0.10670584D-03
 -0.29769269D-03 -0.39882613D-03  0.47093930D-03 -0.86851460D-03 -0.19421070D-02
 -0.82647634D-04 -0.20103127D-05 -0.18847959D-05 -0.13420870D-05 -0.77243126D-06
 -0.72420340D-06 -0.51567597D-06  0.11723115D-02  0.10991166D-02  0.78263647D-03
 -0.62847420D-06 -0.15732393D-06  0.60839407D-03 -0.26083363D-05 -0.16372725D-05
 -0.38285931D-03 -0.41259163D-07 -0.22293163D-07  0.46377772D-05 -0.10546409D-03
 -0.10604500D-03  0.21150909D-03  0.10019280D-05 -0.11271661D-05 -0.44198602D-06
 -0.24736904D-04 -0.24204190D-04  0.48941094D-04 -0.92080675D-06 -0.27026323D-05
 -0.15085757D-05  0.11326575D-04  0.11628981D-04 -0.22955557D-04 -0.52261335D-06
 -0.46852027D-06 -0.29382165D-06  0.83653219D-07  0.36573861D-04  0.85445394D-05
  0.13919726D-06 -0.10951370D-03 -0.13329475D-04 -0.39015692D-06 -0.20788572D-06
 -0.12304144D-04 -0.19027281D-05 -0.14532440D-06  0.52064785D-04 -0.86058913D-04
 -0.65518287D-07 -0.15630962D-03  0.12887111D-03  0.50149149D-06  0.11526912D-06
  0.12930563D-03 -0.93298819D-06 -0.47035025D-05 -0.84829604D-05 -0.12508120D-04
  0.75509939D-03  0.23339946D-03  0.49936229D-05 -0.27290957D-06  0.96234130D-04
  0.28609947D-04 -0.33937968D-07  0.19985894D-03 -0.50119042D-05 -0.53529276D-06
  0.43699256D-04  0.38640614D-04 -0.74246176D-04  0.54323614D-04  0.19922562D-04
 -0.31012315D-06 -0.56407993D-06  0.75976038D-04 -0.97722609D-05 -0.12062540D-04
  0.21834801D-04 -0.18684757D-06  0.86941897D-07 -0.34757843D-04 -0.47032732D-05
 -0.84825469D-05 -0.12507510D-04  0.75510029D-03  0.23341331D-03  0.49939394D-05
  0.83185438D-04 -0.48361436D-04  0.28658900D-04  0.17304249D-03 -0.10000593D-03
 -0.49193475D-05  0.37561770D-04 -0.22305137D-04  0.38662532D-04  0.21998849D-04
 -0.41961819D-04  0.19962970D-04 -0.11149019D-03  0.65558049D-04 -0.38462436D-04
 -0.11561784D-04 -0.10255450D-04  0.21817234D-04  0.18703656D-05 -0.30074315D-04
  0.17495457D-04 -0.44685070D-05 -0.80591364D-05 -0.11883192D-04  0.75804186D-03
  0.24410904D-03  0.52823447D-05 -0.84931117D-04 -0.49010263D-04  0.31448509D-04
 -0.17207390D-03 -0.99320387D-04 -0.88114654D-05 -0.39069288D-04 -0.22537534D-04
  0.39460938D-04  0.20944780D-04 -0.43692657D-04  0.22747876D-04  0.11184525D-03
 -0.65284933D-04 -0.37616547D-04 -0.11519801D-04 -0.10122832D-04  0.21642633D-04
 -0.23973514D-05  0.30148300D-04  0.17422092D-04 -0.15450748D+00 -0.28906701D+00
 -0.49944367D+00 -0.80965687D+00 -0.12295417D+01 -0.17089472D+01 -0.20318073D+01
 -0.18100045D+01 -0.89888653D+00 -0.14471313D+00 -0.15268090D-02 -0.72239920D-03
 -0.24098028D-01 -0.83976803D-01 -0.30241407D+00 -0.66663417D+00 -0.93840576D+00
  0.44765013D-01  0.12280669D+01  0.72614827D+00 -0.15524215D-04 -0.18803615D-03
 -0.39212957D-03 -0.11245593D-02 -0.58396800D-04  0.48496452D-02  0.12530552D-01
 -0.10209304D-01  0.46572480D-01 -0.37988110D-03 -0.13192747D-03  0.12712572D-01
  0.16745431D-01  0.18472832D-01  0.15343133D-01  0.81476294D-02  0.21021310D-02
  0.93255003D-02  0.12283865D-01  0.13551026D-01  0.11255188D-01  0.59768174D-02
  0.15420501D-02  0.59515789D+01  0.78396217D+01  0.86483299D+01  0.71831151D+01
  0.38144334D+01  0.98414377D+00 -0.38949323D-06  0.37653700D-05  0.53095647D-05
  0.75940821D-05 -0.38455363D-07 -0.69644895D-05 -0.29538012D-06  0.28555450D-05
  0.40266165D-05  0.57591268D-05 -0.29163407D-07 -0.52816624D-05 -0.21129096D-03
  0.20426250D-02  0.28803145D-02  0.41196117D-02 -0.20861134D-04 -0.37780725D-02
  0.87498423D-04  0.64438262D-04  0.41727312D-01 -0.73251261D-06 -0.58436694D-06
 -0.48546908D-03 -0.65892064D-07 -0.41376715D-07 -0.98745643D-05 -0.63855150D-05
 -0.60290316D-05  0.12414547D-04 -0.61616821D-06  0.16127679D-05  0.94370419D-06
 -0.11190806D-03 -0.11205465D-03  0.22396270D-03  0.25380434D-06  0.20080290D-07
  0.23449288D-06 -0.14408460D-04 -0.14336783D-04  0.28745243D-04 -0.12373623D-06
  0.20988311D-06  0.14948399D-06 -0.16396680D-06 -0.74493723D-05  0.53402146D-05
 -0.17547855D-06  0.21953293D-04 -0.82011451D-05  0.66737895D-06  0.39482344D-06
 -0.78194986D-05 -0.63188217D-06  0.70091999D-07  0.21614569D-05 -0.33852394D-04
  0.73382358D-07 -0.62538200D-05  0.50829760D-04 -0.28365836D-06 -0.23055064D-06
  0.50727422D-04  0.16842086D-06 -0.87693314D-03 -0.16346049D-02 -0.27710194D-02
 -0.41956982D-02 -0.52455468D-02 -0.45121109D-02 -0.17304916D-02 -0.68378139D-06
 -0.90519853D-05 -0.32878457D-04 -0.97533325D-04 -0.11238746D-03  0.13651131D-03
 -0.95834881D-04 -0.16040348D-03  0.12273877D-04  0.17658695D-05  0.17269818D-05
  0.11410899D-05  0.24191415D-05  0.23658675D-05  0.15632287D-05  0.39105672D-02
  0.38244493D-02  0.25269754D-02  0.37935920D-07  0.34004713D-06  0.88061246D-03
  0.14560527D-06  0.89725269D-07  0.21056599D-04 -0.78347779D-07 -0.41692030D-07
  0.93451114D-05 -0.35814312D-04 -0.36268327D-04  0.72082639D-04  0.79120195D-06
  0.46135676D-06  0.34448876D-06  0.21202547D-04  0.21455497D-04 -0.42658045D-04
 -0.44016814D-06 -0.33056560D-06 -0.23607121D-06  0.18252335D-04  0.18104110D-04
 -0.36356445D-04  0.25687406D-06  0.13657180D-06  0.37750882D-07  0.19392862D-06
 -0.25732239D-05  0.46847445D-04  0.18856076D-06  0.80496294D-05 -0.71277756D-04
 -0.77034661D-06 -0.32995776D-06 -0.69264579D-04 -0.34621730D-05 -0.44758430D-07
  0.82951068D-06 -0.25613467D-04 -0.43069434D-07 -0.25306877D-05  0.38732677D-04
  0.17734473D-06  0.42155698D-07  0.38107723D-04  0.10743994D-05
MO    4     MO 0.0        OCC NO =    2.0000124  ORB. ENERGY =    0.000000
  0.27129425D-01  0.50574714D-01  0.85478157D-01  0.12848961D+00  0.15782648D+00
  0.13319998D+00  0.50086670D-01 -0.14299049D-05 -0.10687653D-04 -0.39942199D-04
 -0.11143252D-03 -0.14928885D-03  0.17628230D-03  0.26725153D-02 -0.36229386D-02
 -0.44083902D-04 -0.11007059D-04 -0.10319818D-04 -0.73483250D-05 -0.51234444D-05
 -0.48035548D-05 -0.34204171D-05  0.36700903D-02  0.34409429D-02  0.24501563D-02
  0.16365952D-05  0.13769487D-05  0.13032245D-02 -0.45737746D-05 -0.27855724D-05
 -0.42174173D-03 -0.10655361D-06 -0.60469287D-07  0.36501821D-05 -0.31606706D-03
 -0.31845734D-03  0.63452441D-03  0.41318116D-05  0.52729267D-06  0.94119448D-06
  0.75910880D-05  0.79276771D-05 -0.15518765D-04 -0.57720605D-06 -0.78315842D-05
 -0.45371842D-05 -0.17805397D-04 -0.17283881D-04  0.35089278D-04 -0.90171135D-06
 -0.80638179D-06 -0.42921640D-06  0.41627157D-06 -0.42082970D-04  0.23726746D-04
  0.35008139D-06  0.12712282D-03 -0.36653985D-04 -0.15988961D-05 -0.87390954D-06
 -0.34526253D-04 -0.35350838D-05 -0.26998446D-06  0.82998102D-04 -0.16357310D-03
 -0.14329835D-06 -0.24921528D-03  0.24454542D-03  0.95325173D-06  0.22097561D-06
  0.24617388D-03 -0.31053554D-05 -0.89971102D-04 -0.16226659D-03 -0.23926199D-03
  0.10317242D-02  0.67852624D-03  0.41203293D-05 -0.87301971D-06 -0.57323639D-04
  0.33797726D-04  0.67436584D-07  0.30632230D-03 -0.44203714D-04 -0.84502831D-06
  0.11035018D-03  0.75296776D-04 -0.14244168D-03  0.23866333D-04  0.11857535D-03
 -0.13001976D-05 -0.81082047D-06  0.14192803D-03 -0.15443659D-04 -0.21094723D-04
  0.36538382D-04 -0.22468471D-06 -0.30167220D-06 -0.63193296D-04 -0.89970713D-04
 -0.16226589D-03 -0.23926096D-03  0.10317360D-02  0.67853855D-03  0.41215374D-05
 -0.50079740D-04  0.27932834D-04  0.33775153D-04  0.26529305D-03 -0.15319462D-03
 -0.44054149D-04  0.95108674D-04 -0.55894895D-04  0.75352580D-04 -0.18350364D-04
 -0.10030529D-03  0.11865565D-03 -0.14463946D-03  0.12248481D-03 -0.71521234D-04
 -0.19762082D-04 -0.16743872D-04  0.36505954D-04  0.47467385D-05 -0.54903151D-04
  0.31403010D-04 -0.90243896D-04 -0.16275858D-03 -0.23998744D-03  0.10289012D-02
  0.69761779D-03  0.47772937D-05  0.47593999D-04  0.27483517D-04  0.42304532D-04
 -0.25927142D-03 -0.14966076D-03 -0.43078678D-04 -0.97641682D-04 -0.56331860D-04
  0.76521433D-04 -0.22533609D-04 -0.10520566D-03  0.12773927D-03  0.14302200D-03
 -0.13048717D-03 -0.75131290D-04 -0.20260889D-04 -0.16710164D-04  0.36971053D-04
 -0.61093710D-05  0.53835127D-04  0.31106918D-04  0.91459459D-01  0.17111089D+00
  0.29564166D+00  0.47926987D+00  0.72781729D+00  0.10115976D+01  0.12027120D+01
  0.10714176D+01  0.53208865D+00  0.85661771D-01  0.90378228D-03  0.42821710D-03
  0.14284606D-01  0.49778990D-01  0.17926220D+00  0.39516122D+00  0.55625946D+00
 -0.26535389D-01 -0.72796211D+00 -0.43043944D+00  0.62941833D-05  0.76237930D-04
  0.15898617D-03  0.45594465D-03  0.23676571D-04 -0.19662544D-02 -0.50804238D-02
  0.41392902D-02 -0.28588066D-01  0.14244083D-02 -0.18071913D-03  0.20978526D-01
  0.27633626D-01  0.30484216D-01  0.25319528D-01  0.13445372D-01  0.34689762D-02
  0.15395757D-01  0.20279813D-01  0.22371809D-01  0.18581539D-01  0.98673127D-02
  0.25458182D-02  0.99080787D+01  0.13051258D+02  0.14397580D+02  0.11958317D+02
  0.63501984D+01  0.16383844D+01 -0.52721424D-06  0.50967680D-05  0.71869749D-05
  0.10279275D-04 -0.52052803D-07 -0.94270650D-05 -0.41605018D-06  0.40221055D-05
  0.56715886D-05  0.81118720D-05 -0.41077378D-07 -0.74393517D-05 -0.33697674D-03
  0.32576743D-02  0.45936608D-02  0.65701501D-02 -0.33270315D-04 -0.60254473D-02
  0.14889976D-03  0.10999643D-03  0.72501954D-01 -0.98020124D-06 -0.66973356D-06
 -0.30834614D-03 -0.98632094D-07 -0.58378823D-07 -0.40303250D-05  0.45344654D-03
  0.45407603D-03 -0.90752257D-03 -0.10902594D-05 -0.11395669D-05 -0.15594946D-05
 -0.30930646D-03 -0.30966489D-03  0.61897135D-03  0.62042477D-06  0.37815187D-06
  0.83400292D-06  0.42120089D-05  0.43462525D-05 -0.85582613D-05 -0.23190189D-06
  0.40763206D-06  0.22738664D-06 -0.37923030D-06 -0.14973747D-04 -0.47077681D-04
 -0.40234641D-06  0.44126653D-04  0.70257510D-04  0.15400373D-05  0.79458647D-06
  0.70975534D-04 -0.11880674D-05  0.12581217D-06  0.43628680D-05 -0.62444082D-04
  0.13240871D-06 -0.12670104D-04  0.93712683D-04 -0.50984522D-06 -0.41849972D-06
  0.93619564D-04  0.14521756D-06 -0.63311333D-02 -0.11801243D-01 -0.20005736D-01