 Entering Gaussian System, Link 0=g09
 Input=GAUSSIAN-ZC_1.com
 Output=GAUSSIAN-ZC_1.log
 Initial command:
 /home/bruns/programas/chemistry/gaussian/g09/l1.exe /home/bruns/programas/chemistry/gaussian/work/Gau-14428.inp -scrdir=/home/bruns/programas/chemistry/gaussian/work/
 Entering Link 1 = /home/bruns/programas/chemistry/gaussian/g09/l1.exe PID=     14430.
  
 Copyright (c) 1988,1990,1992,1993,1995,1998,2003,2009,2010,
            Gaussian, Inc.  All Rights Reserved.
  
 This is part of the Gaussian(R) 09 program.  It is based on
 the Gaussian(R) 03 system (copyright 2003, Gaussian, Inc.),
 the Gaussian(R) 98 system (copyright 1998, Gaussian, Inc.),
 the Gaussian(R) 94 system (copyright 1995, Gaussian, Inc.),
 the Gaussian 92(TM) system (copyright 1992, Gaussian, Inc.),
 the Gaussian 90(TM) system (copyright 1990, Gaussian, Inc.),
 the Gaussian 88(TM) system (copyright 1988, Gaussian, Inc.),
 the Gaussian 86(TM) system (copyright 1986, Carnegie Mellon
 University), and the Gaussian 82(TM) system (copyright 1983,
 Carnegie Mellon University). Gaussian is a federally registered
 trademark of Gaussian, Inc.
  
 This software contains proprietary and confidential information,
 including trade secrets, belonging to Gaussian, Inc.
  
 This software is provided under written license and may be
 used, copied, transmitted, or stored only in accord with that
 written license.
  
 The following legend is applicable only to US Government
 contracts under FAR:
  
                    RESTRICTED RIGHTS LEGEND
  
 Use, reproduction and disclosure by the US Government is
 subject to restrictions as set forth in subparagraphs (a)
 and (c) of the Commercial Computer Software - Restricted
 Rights clause in FAR 52.227-19.
  
 Gaussian, Inc.
 340 Quinnipiac St., Bldg. 40, Wallingford CT 06492
  
  
 ---------------------------------------------------------------
 Warning -- This program may not be used in any manner that
 competes with the business of Gaussian, Inc. or will provide
 assistance to any competitor of Gaussian, Inc.  The licensee
 of this program is prohibited from giving any competitor of
 Gaussian, Inc. access to this program.  By using this program,
 the user acknowledges that Gaussian, Inc. is engaged in the
 business of creating and licensing software in the field of
 computational chemistry and represents and warrants to the
 licensee that it is not a competitor of Gaussian, Inc. and that
 it will not use this program in any manner prohibited above.
 ---------------------------------------------------------------
  

 Cite this work as:
 Gaussian 09, Revision B.01,
 M. J. Frisch, G. W. Trucks, H. B. Schlegel, G. E. Scuseria, 
 M. A. Robb, J. R. Cheeseman, G. Scalmani, V. Barone, B. Mennucci, 
 G. A. Petersson, H. Nakatsuji, M. Caricato, X. Li, H. P. Hratchian, 
 A. F. Izmaylov, J. Bloino, G. Zheng, J. L. Sonnenberg, M. Hada, 
 M. Ehara, K. Toyota, R. Fukuda, J. Hasegawa, M. Ishida, T. Nakajima, 
 Y. Honda, O. Kitao, H. Nakai, T. Vreven, J. A. Montgomery, Jr., 
 J. E. Peralta, F. Ogliaro, M. Bearpark, J. J. Heyd, E. Brothers, 
 K. N. Kudin, V. N. Staroverov, T. Keith, R. Kobayashi, J. Normand, 
 K. Raghavachari, A. Rendell, J. C. Burant, S. S. Iyengar, J. Tomasi, 
 M. Cossi, N. Rega, J. M. Millam, M. Klene, J. E. Knox, J. B. Cross, 
 V. Bakken, C. Adamo, J. Jaramillo, R. Gomperts, R. E. Stratmann, 
 O. Yazyev, A. J. Austin, R. Cammi, C. Pomelli, J. W. Ochterski, 
 R. L. Martin, K. Morokuma, V. G. Zakrzewski, G. A. Voth, 
 P. Salvador, J. J. Dannenberg, S. Dapprich, A. D. Daniels, 
 O. Farkas, J. B. Foresman, J. V. Ortiz, J. Cioslowski, 
 and D. J. Fox, Gaussian, Inc., Wallingford CT, 2010.
 
 ******************************************
 Gaussian 09:  EM64L-G09RevB.01 12-Aug-2010
                10-Aug-2021 
 ******************************************
 %nproc=8
 Will use up to    8 processors via shared memory.
 %mem=8GB
 -----------------------------------------------------
 # QCISD aug-cc-pvtz nosymm density=current output=wfn
 -----------------------------------------------------
 1/30=1,38=1/1;
 2/12=2,15=1,17=6,18=5,40=1/2;
 3/5=16,6=1,7=10,11=9,16=1,25=1,30=1,71=1/1,2,3;
 4//1;
 5/5=2,38=5/2;
 8/6=4,9=120000,10=1/1,4;
 9/5=8,15=1/13;
 11/28=-7,31=1,32=3,42=3/11;
 10/5=6,13=10,31=1/2;
 6/7=2,8=2,9=2,10=2,22=-1,31=1/1;
 99/5=1,6=1100,9=1/99;
 ----------
 title line
 ----------
 Symbolic Z-matrix:
 Charge = -1 Multiplicity = 1
 C                     0.00018   0.00003  -0.50771 
 H                     0.00002  -1.05257  -0.62073 
 H                    -0.91131   0.52637  -0.62125 
 H                     0.91175   0.52613  -0.62157 
 Cl                    0.00056   0.00096   1.64472 
 F                    -0.00019  -0.00092  -2.59346 
 
                          Input orientation:                          
 ---------------------------------------------------------------------
 Center     Atomic      Atomic             Coordinates (Angstroms)
 Number     Number       Type             X           Y           Z
 ---------------------------------------------------------------------
      1          6           0        0.000175    0.000029   -0.507709
      2          1           0        0.000019   -1.052570   -0.620726
      3          1           0       -0.911312    0.526365   -0.621245
      4          1           0        0.911750    0.526132   -0.621570
      5         17           0        0.000555    0.000962    1.644718
      6          9           0       -0.000186   -0.000921   -2.593460
 ---------------------------------------------------------------------
                    Distance matrix (angstroms):
                    1          2          3          4          5
     1  C    0.000000
     2  H    1.058649   0.000000
     3  H    1.058645   1.823063   0.000000
     4  H    1.058640   1.823062   1.823062   0.000000
     5  Cl   2.152427   2.498433   2.498427   2.498428   0.000000
     6  F    2.085751   2.235541   2.235579   2.235568   4.238178
                    6
     6  F    0.000000
 Symmetry turned off by external request.
 This structure is nearly, but not quite of a higher symmetry.
 Consider Symm=Loose if the higher symmetry is desired.
 Stoichiometry    CH3ClF(1-)
 Framework group  C1[X(CH3ClF)]
 Deg. of freedom    12
 Full point group                 C1      NOp   1
 Rotational constants (GHZ):    150.8790650      2.2135484      2.2135483
 Standard basis: Aug-CC-pVTZ (5D, 7F)
 Integral buffers will be    131072 words long.
 Raffenetti 1 integral format.
 Two-electron integral symmetry is turned off.
   211 basis functions,   339 primitive gaussians,   244 cartesian basis functions
    18 alpha electrons       18 beta electrons
       nuclear repulsion energy        84.9422079253 Hartrees.
 NAtoms=    6 NActive=    6 NUniq=    6 SFac= 1.00D+00 NAtFMM=   50 NAOKFM=F Big=F
 One-electron integrals computed using PRISM.
 NBasis=   211 RedAO= T  NBF=   211
 NBsUse=   211 1.00D-06 NBFU=   211
 Harris functional with IExCor=  205 diagonalized for initial guess.
 ExpMin= 2.53D-02 ExpMax= 4.56D+05 ExpMxC= 1.44D+03 IAcc=3 IRadAn=         0 AccDes= 0.00D+00
 HarFok:  IExCor=  205 AccDes= 0.00D+00 IRadAn=         0 IDoV= 1
 ScaDFX=  1.000000  1.000000  1.000000  1.000000
 FoFCou: FMM=F IPFlag=           0 FMFlag=      100000 FMFlg1=           0
         NFxFlg=           0 DoJE=T BraDBF=F KetDBF=T FulRan=T
         Omega=  0.000000  0.000000  1.000000  0.000000  0.000000 ICntrl=     500 IOpCl=  0
         NMat0=    1 NMatS0=    1 NMatT0=    0 NMatD0=    1 NMtDS0=    0 NMtDT0=    0
         I1Cent=           4 NGrid=           0.
 Symmetry not used in FoFCou.
 Requested convergence on RMS density matrix=1.00D-08 within 128 cycles.
 Requested convergence on MAX density matrix=1.00D-06.
 Requested convergence on             energy=1.00D-06.
 No special actions if energy rises.
 Keep R1 ints in memory in canonical form, NReq=454274131.
 DSYEVD returned Info=         423 IAlg= 4 N=   211 NDim=   211 NE2=     2970790 trying DSYEV.
 SCF Done:  E(RHF) =  -598.617135025     A.U. after   12 cycles
             Convg  =    0.9687D-08             -V/T =  2.0001
 ExpMin= 2.53D-02 ExpMax= 4.56D+05 ExpMxC= 1.44D+03 IAcc=3 IRadAn=         5 AccDes= 0.00D+00
 HarFok:  IExCor=  205 AccDes= 0.00D+00 IRadAn=         5 IDoV=-2
 ScaDFX=  1.000000  1.000000  1.000000  1.000000
 DSYEVD returned Info=         101 IAlg= 4 N=    50 NDim=    50 NE2=    21472034 trying DSYEV.
 DSYEVD returned Info=          93 IAlg= 4 N=    46 NDim=    46 NE2=    21472034 trying DSYEV.
 Range of M.O.s used for correlation:     8   211
 NBasis=   211 NAE=    18 NBE=    18 NFC=     7 NFV=     0
 NROrb=    204 NOA=    11 NOB=    11 NVA=   193 NVB=   193

 **** Warning!!: The largest alpha MO coefficient is  0.37053700D+02

 Semi-Direct transformation.
 ModeAB=           2 MOrb=            11 LenV=    1072528194
 LASXX=     44979418 LTotXX=    44979418 LenRXX=    44979418
 LTotAB=    45631872 MaxLAS=    67073160 LenRXY=    67073160
 NonZer=    89958836 LenScr=   135708672 LnRSAI=           0
 LnScr1=           0 LExtra=           0 Total=    247761250
 MaxDsk=          -1 SrtSym=           F ITran=            4
 JobTyp=0 Pass  1:  I=   1 to  11.
 (rs|ai) integrals will be sorted in core.
 Spin components of T(2) and E(2):
     alpha-alpha T2 =       0.2567353266D-01 E2=     -0.8205733618D-01
     alpha-beta  T2 =       0.1452235748D+00 E2=     -0.5098483291D+00
     beta-beta   T2 =       0.2567353266D-01 E2=     -0.8205733618D-01
 ANorm=    0.1093878714D+01
 E2 =    -0.6739630015D+00 EUMP2 =    -0.59929109802639D+03
 R2 and R3 integrals will be kept in memory, NReq=   900794930.
 Iterations=  50 Convergence= 0.100D-07
 Iteration Nr.   1
 **********************
 DD1Dir will call FoFMem   1 times, MxPair=       132
 NAB=    66 NAA=     0 NBB=     0.
 MP4(R+Q)=  0.14446246D-01
 E3=       -0.18684583D-01        EUMP3=      -0.59930978261D+03
 E4(DQ)=   -0.44323978D-03        UMP4(DQ)=   -0.59931022585D+03
 E4(SDQ)=  -0.98656616D-02        UMP4(SDQ)=  -0.59931964827D+03
 DE(Corr)= -0.67820134     E(Corr)=     -599.29533636    
 NORM(A)=   0.10996803D+01
 Iteration Nr.   2
 **********************
 DD1Dir will call FoFMem   1 times, MxPair=       132
 NAB=    66 NAA=     0 NBB=     0.
 DE(Corr)= -0.70047245     E(CORR)=     -599.31760748     Delta=-2.23D-02
 NORM(A)=   0.11070567D+01
 Iteration Nr.   3
 **********************
 DD1Dir will call FoFMem   1 times, MxPair=       132
 NAB=    66 NAA=     0 NBB=     0.
 DE(Corr)= -0.69804858     E(CORR)=     -599.31518361     Delta= 2.42D-03
 NORM(A)=   0.11110809D+01
 Iteration Nr.   4
 **********************
 DD1Dir will call FoFMem   1 times, MxPair=       132
 NAB=    66 NAA=     0 NBB=     0.
 DE(Corr)= -0.70112870     E(CORR)=     -599.31826373     Delta=-3.08D-03
 NORM(A)=   0.11132175D+01
 Iteration Nr.   5
 **********************
 DD1Dir will call FoFMem   1 times, MxPair=       132
 NAB=    66 NAA=     0 NBB=     0.
 DE(Corr)= -0.70172932     E(CORR)=     -599.31886434     Delta=-6.01D-04
 NORM(A)=   0.11142521D+01
 Iteration Nr.   6
 **********************
 DD1Dir will call FoFMem   1 times, MxPair=       132
 NAB=    66 NAA=     0 NBB=     0.
 DE(Corr)= -0.70187616     E(CORR)=     -599.31901118     Delta=-1.47D-04
 NORM(A)=   0.11145733D+01
 Iteration Nr.   7
 **********************
 DD1Dir will call FoFMem   1 times, MxPair=       132
 NAB=    66 NAA=     0 NBB=     0.
 DE(Corr)= -0.70190552     E(CORR)=     -599.31904054     Delta=-2.94D-05
 NORM(A)=   0.11146024D+01
 Iteration Nr.   8
 **********************
 DD1Dir will call FoFMem   1 times, MxPair=       132
 NAB=    66 NAA=     0 NBB=     0.
 DE(Corr)= -0.70191827     E(CORR)=     -599.31905330     Delta=-1.28D-05
 NORM(A)=   0.11146190D+01
 Iteration Nr.   9
 **********************
 DD1Dir will call FoFMem   1 times, MxPair=       132
 NAB=    66 NAA=     0 NBB=     0.
 DE(Corr)= -0.70189612     E(CORR)=     -599.31903114     Delta= 2.22D-05
 NORM(A)=   0.11146212D+01
 Iteration Nr.  10
 **********************
 DD1Dir will call FoFMem   1 times, MxPair=       132
 NAB=    66 NAA=     0 NBB=     0.
 DE(Corr)= -0.70191470     E(CORR)=     -599.31904973     Delta=-1.86D-05
 NORM(A)=   0.11146217D+01
 Iteration Nr.  11
 **********************
 DD1Dir will call FoFMem   1 times, MxPair=       132
 NAB=    66 NAA=     0 NBB=     0.
 DE(Corr)= -0.70190577     E(CORR)=     -599.31904079     Delta= 8.93D-06
 NORM(A)=   0.11146246D+01
 Iteration Nr.  12
 **********************
 DD1Dir will call FoFMem   1 times, MxPair=       132
 NAB=    66 NAA=     0 NBB=     0.
 DE(Corr)= -0.70190962     E(CORR)=     -599.31904465     Delta=-3.85D-06
 NORM(A)=   0.11146253D+01
 Iteration Nr.  13
 **********************
 DD1Dir will call FoFMem   1 times, MxPair=       132
 NAB=    66 NAA=     0 NBB=     0.
 DE(Corr)= -0.70191023     E(CORR)=     -599.31904525     Delta=-6.07D-07
 NORM(A)=   0.11146262D+01
 Iteration Nr.  14
 **********************
 DD1Dir will call FoFMem   1 times, MxPair=       132
 NAB=    66 NAA=     0 NBB=     0.
 DE(Corr)= -0.70191045     E(CORR)=     -599.31904548     Delta=-2.23D-07
 NORM(A)=   0.11146264D+01
 Iteration Nr.  15
 **********************
 DD1Dir will call FoFMem   1 times, MxPair=       132
 NAB=    66 NAA=     0 NBB=     0.
 DE(Corr)= -0.70191040     E(CORR)=     -599.31904542     Delta= 5.59D-08
 NORM(A)=   0.11146265D+01
 Iteration Nr.  16
 **********************
 DD1Dir will call FoFMem   1 times, MxPair=       132
 NAB=    66 NAA=     0 NBB=     0.
 DE(Corr)= -0.70191061     E(CORR)=     -599.31904563     Delta=-2.09D-07
 NORM(A)=   0.11146264D+01
 Iteration Nr.  17
 **********************
 DD1Dir will call FoFMem   1 times, MxPair=       132
 NAB=    66 NAA=     0 NBB=     0.
 DE(Corr)= -0.70191050     E(CORR)=     -599.31904552     Delta= 1.10D-07
 NORM(A)=   0.11146263D+01
 Iteration Nr.  18
 **********************
 DD1Dir will call FoFMem   1 times, MxPair=       132
 NAB=    66 NAA=     0 NBB=     0.
 DE(Corr)= -0.70191053     E(CORR)=     -599.31904556     Delta=-3.93D-08
 NORM(A)=   0.11146262D+01
 Iteration Nr.  19
 **********************
 DD1Dir will call FoFMem   1 times, MxPair=       132
 NAB=    66 NAA=     0 NBB=     0.
 DE(Corr)= -0.70191049     E(CORR)=     -599.31904552     Delta= 4.25D-08
 NORM(A)=   0.11146261D+01
 Iteration Nr.  20
 **********************
 DD1Dir will call FoFMem   1 times, MxPair=       132
 NAB=    66 NAA=     0 NBB=     0.
 DE(Corr)= -0.70191049     E(CORR)=     -599.31904552     Delta=-2.55D-09
 NORM(A)=   0.11146261D+01
 Iteration Nr.  21
 **********************
 DD1Dir will call FoFMem   1 times, MxPair=       132
 NAB=    66 NAA=     0 NBB=     0.
 DE(Corr)= -0.70191048     E(CORR)=     -599.31904550     Delta= 1.80D-08
 NORM(A)=   0.11146260D+01
 Iteration Nr.  22
 **********************
 DD1Dir will call FoFMem   1 times, MxPair=       132
 NAB=    66 NAA=     0 NBB=     0.
 DE(Corr)= -0.70191047     E(CORR)=     -599.31904550     Delta= 2.70D-09
 NORM(A)=   0.11146260D+01
 Iteration Nr.  23
 **********************
 DD1Dir will call FoFMem   1 times, MxPair=       132
 NAB=    66 NAA=     0 NBB=     0.
 DE(Corr)= -0.70191047     E(CORR)=     -599.31904549     Delta= 4.91D-09
 NORM(A)=   0.11146260D+01
 Iteration Nr.  24
 **********************
 DD1Dir will call FoFMem   1 times, MxPair=       132
 NAB=    66 NAA=     0 NBB=     0.
 DE(Corr)= -0.70191047     E(CORR)=     -599.31904549     Delta=-3.28D-10
 NORM(A)=   0.11146260D+01
 Iteration Nr.  25
 **********************
 DD1Dir will call FoFMem   1 times, MxPair=       132
 NAB=    66 NAA=     0 NBB=     0.
 DE(Corr)= -0.70191046     E(CORR)=     -599.31904549     Delta= 4.81D-09
 NORM(A)=   0.11146260D+01
 Iteration Nr.  26
 **********************
 DD1Dir will call FoFMem   1 times, MxPair=       132
 NAB=    66 NAA=     0 NBB=     0.
 DE(Corr)= -0.70191047     E(CORR)=     -599.31904549     Delta=-4.74D-09
 NORM(A)=   0.11146260D+01
 Iteration Nr.  27
 **********************
 DD1Dir will call FoFMem   1 times, MxPair=       132
 NAB=    66 NAA=     0 NBB=     0.
 DE(Corr)= -0.70191047     E(CORR)=     -599.31904549     Delta= 3.43D-09
 NORM(A)=   0.11146260D+01
 Largest amplitude= 6.75D-02

 Z-AMPLITUDE ITERATIONS

 Iteration Nr.   1
 **********************
 DD1Dir will call FoFMem   1 times, MxPair=       132
 NAB=    66 NAA=     0 NBB=     0.
 DE(Z)  -0.68248828D+00          E(Z)=    -0.59929962331D+03
 NORM(A)=   0.11146700D+01
 Iteration Nr.   2
 **********************
 DD1Dir will call FoFMem   1 times, MxPair=       132
 NAB=    66 NAA=     0 NBB=     0.
 DE(Z)  -0.68249307D+00          E(Z)=    -0.59929962809D+03
 NORM(A)=   0.11148145D+01
 Iteration Nr.   3
 **********************
 DD1Dir will call FoFMem   1 times, MxPair=       132
 NAB=    66 NAA=     0 NBB=     0.
 DE(Z)  -0.68250610D+00          E(Z)=    -0.59929964113D+03
 NORM(A)=   0.11147658D+01
 Iteration Nr.   4
 **********************
 DD1Dir will call FoFMem   1 times, MxPair=       132
 NAB=    66 NAA=     0 NBB=     0.
 DE(Z)  -0.68250213D+00          E(Z)=    -0.59929963715D+03
 NORM(A)=   0.11143390D+01
 Iteration Nr.   5
 **********************
 DD1Dir will call FoFMem   1 times, MxPair=       132
 NAB=    66 NAA=     0 NBB=     0.
 DE(Z)  -0.68246044D+00          E(Z)=    -0.59929959547D+03
 NORM(A)=   0.11079402D+01
 Iteration Nr.   6
 **********************
 DD1Dir will call FoFMem   1 times, MxPair=       132
 NAB=    66 NAA=     0 NBB=     0.
 DE(Z)  -0.68182100D+00          E(Z)=    -0.59929895602D+03
 NORM(A)=   0.11079336D+01
 Iteration Nr.   7
 **********************
 DD1Dir will call FoFMem   1 times, MxPair=       132
 NAB=    66 NAA=     0 NBB=     0.
 DE(Z)  -0.68182391D+00          E(Z)=    -0.59929895894D+03
 NORM(A)=   0.11079291D+01
 Iteration Nr.   8
 **********************
 DD1Dir will call FoFMem   1 times, MxPair=       132
 NAB=    66 NAA=     0 NBB=     0.
 DE(Z)  -0.68182123D+00          E(Z)=    -0.59929895626D+03
 NORM(A)=   0.11079255D+01
 Iteration Nr.   9
 **********************
 DD1Dir will call FoFMem   1 times, MxPair=       132
 NAB=    66 NAA=     0 NBB=     0.
 DE(Z)  -0.68182128D+00          E(Z)=    -0.59929895630D+03
 NORM(A)=   0.11079245D+01
 Iteration Nr.  10
 **********************
 DD1Dir will call FoFMem   1 times, MxPair=       132
 NAB=    66 NAA=     0 NBB=     0.
 DE(Z)  -0.68182126D+00          E(Z)=    -0.59929895629D+03
 NORM(A)=   0.11079242D+01
 Iteration Nr.  11
 **********************
 DD1Dir will call FoFMem   1 times, MxPair=       132
 NAB=    66 NAA=     0 NBB=     0.
 DE(Z)  -0.68182121D+00          E(Z)=    -0.59929895624D+03
 NORM(A)=   0.11079241D+01
 Iteration Nr.  12
 **********************
 DD1Dir will call FoFMem   1 times, MxPair=       132
 NAB=    66 NAA=     0 NBB=     0.
 DE(Z)  -0.68182126D+00          E(Z)=    -0.59929895629D+03
 NORM(A)=   0.11079242D+01
 Iteration Nr.  13
 **********************
 DD1Dir will call FoFMem   1 times, MxPair=       132
 NAB=    66 NAA=     0 NBB=     0.
 DE(Z)  -0.68182130D+00          E(Z)=    -0.59929895633D+03
 NORM(A)=   0.11079242D+01
 Iteration Nr.  14
 **********************
 DD1Dir will call FoFMem   1 times, MxPair=       132
 NAB=    66 NAA=     0 NBB=     0.
 DE(Z)  -0.68182128D+00          E(Z)=    -0.59929895631D+03
 NORM(A)=   0.11079242D+01
 Iteration Nr.  15
 **********************
 DD1Dir will call FoFMem   1 times, MxPair=       132
 NAB=    66 NAA=     0 NBB=     0.
 DE(Z)  -0.68182130D+00          E(Z)=    -0.59929895633D+03
 NORM(A)=   0.11079242D+01
 Iteration Nr.  16
 **********************
 DD1Dir will call FoFMem   1 times, MxPair=       132
 NAB=    66 NAA=     0 NBB=     0.
 DE(Z)  -0.68182130D+00          E(Z)=    -0.59929895633D+03
 NORM(A)=   0.11079242D+01
 Iteration Nr.  17
 **********************
 DD1Dir will call FoFMem   1 times, MxPair=       132
 NAB=    66 NAA=     0 NBB=     0.
 DE(Z)  -0.68182130D+00          E(Z)=    -0.59929895633D+03
 NORM(A)=   0.11079241D+01
 Iteration Nr.  18
 **********************
 DD1Dir will call FoFMem   1 times, MxPair=       132
 NAB=    66 NAA=     0 NBB=     0.
 DE(Z)  -0.68182128D+00          E(Z)=    -0.59929895630D+03
 NORM(A)=   0.11079242D+01
 Iteration Nr.  19
 **********************
 DD1Dir will call FoFMem   1 times, MxPair=       132
 NAB=    66 NAA=     0 NBB=     0.
 DE(Z)  -0.68182131D+00          E(Z)=    -0.59929895633D+03
 NORM(A)=   0.11079242D+01
 Iteration Nr.  20
 **********************
 DD1Dir will call FoFMem   1 times, MxPair=       132
 NAB=    66 NAA=     0 NBB=     0.
 DE(Z)  -0.68182130D+00          E(Z)=    -0.59929895632D+03
 NORM(A)=   0.11079242D+01
 Iteration Nr.  21
 **********************
 DD1Dir will call FoFMem   1 times, MxPair=       132
 NAB=    66 NAA=     0 NBB=     0.
 DE(Z)  -0.68182130D+00          E(Z)=    -0.59929895632D+03
 NORM(A)=   0.11079242D+01
 Discarding MO integrals.
          Differentiating once with respect to electric field.
                with respect to dipole field.
          Electric field/nuclear overlap derivatives assumed to be zero.
          Keep R1 ints in memory in canonical form, NReq=448662239.
          There are     1 degrees of freedom in the 1st order CPHF.  IDoFFX=0.
 LinEq1:  Iter=  0 NonCon=     1 RMS=3.12D-03 Max=1.22D-01
 AX will form     1 AO Fock derivatives at one time.
 LinEq1:  Iter=  1 NonCon=     1 RMS=6.97D-04 Max=8.25D-03
 LinEq1:  Iter=  2 NonCon=     1 RMS=2.31D-04 Max=5.65D-03
 LinEq1:  Iter=  3 NonCon=     1 RMS=9.61D-05 Max=1.46D-03
 LinEq1:  Iter=  4 NonCon=     1 RMS=3.86D-05 Max=4.10D-04
 LinEq1:  Iter=  5 NonCon=     1 RMS=1.05D-05 Max=2.20D-04
 LinEq1:  Iter=  6 NonCon=     1 RMS=2.41D-06 Max=4.37D-05
 LinEq1:  Iter=  7 NonCon=     1 RMS=5.98D-07 Max=8.66D-06
 LinEq1:  Iter=  8 NonCon=     1 RMS=1.47D-07 Max=1.80D-06
 LinEq1:  Iter=  9 NonCon=     1 RMS=2.94D-08 Max=7.34D-07
 LinEq1:  Iter= 10 NonCon=     1 RMS=6.48D-09 Max=8.92D-08
 LinEq1:  Iter= 11 NonCon=     1 RMS=1.06D-09 Max=1.16D-08
 LinEq1:  Iter= 12 NonCon=     1 RMS=1.70D-10 Max=2.79D-09
 LinEq1:  Iter= 13 NonCon=     0 RMS=2.40D-11 Max=3.22D-10
 Linear equations converged to 1.000D-10 1.000D-09 after    13 iterations.
 End of Minotr Frequency-dependent properties file   721 does not exist.
 End of Minotr Frequency-dependent properties file   722 does not exist.

 **********************************************************************

            Population analysis using the QCI/CC density.

 **********************************************************************

     Natural Orbital Coefficients:
                           1         2         3         4         5
     Eigenvalues --     2.00003   2.00003   2.00002   2.00001   2.00001
   1 1   C  1S          0.00000   0.00000  -0.04149   0.08400   0.97592
   2        2S          0.00000   0.00000   0.00128   0.00040  -0.01334
   3        3S          0.00000   0.00000  -0.00125   0.00411   0.03985
   4        4S          0.00000   0.00000  -0.01263  -0.02319   0.00253
   5        5S          0.00000   0.00000  -0.00116  -0.00053  -0.00068
   6        6PX        -0.00001   0.00005   0.00000   0.00000   0.00000
   7        6PY         0.00005   0.00001   0.00000   0.00000   0.00000
   8        6PZ         0.00000   0.00000   0.00054   0.00165   0.00080
   9        7PX        -0.00022   0.00086   0.00000   0.00000   0.00000
  10        7PY         0.00086   0.00022   0.00000   0.00000   0.00000
  11        7PZ         0.00000   0.00000   0.00144   0.00304  -0.00088
  12        8PX        -0.00113   0.00446   0.00000   0.00000   0.00000
  13        8PY         0.00446   0.00113   0.00000   0.00000   0.00000
  14        8PZ         0.00000   0.00000  -0.00380  -0.00413  -0.00284
  15        9PX        -0.00010   0.00039   0.00000   0.00000   0.00000
  16        9PY         0.00039   0.00010   0.00000   0.00000   0.00000
  17        9PZ         0.00000   0.00000   0.00022   0.00018  -0.00047
  18       10D 0        0.00000   0.00000   0.00011   0.00033  -0.00059
  19       10D+1        0.00004  -0.00014   0.00000   0.00000   0.00000
  20       10D-1       -0.00014  -0.00004   0.00000   0.00000   0.00000
  21       10D+2        0.00004   0.00001   0.00000   0.00000   0.00000
  22       10D-2       -0.00001   0.00004   0.00000   0.00000   0.00000
  23       11D 0        0.00000   0.00000   0.00024  -0.00002  -0.00020
  24       11D+1       -0.00006   0.00025   0.00000   0.00000   0.00000
  25       11D-1        0.00025   0.00006   0.00000   0.00000   0.00000
  26       11D+2        0.00102   0.00026   0.00000   0.00000   0.00000
  27       11D-2       -0.00026   0.00102   0.00000   0.00000   0.00000
  28       12D 0        0.00000   0.00000  -0.00076   0.00124  -0.00238
  29       12D+1        0.00031  -0.00123   0.00000   0.00000   0.00000
  30       12D-1       -0.00123  -0.00031   0.00000   0.00000   0.00000
  31       12D+2        0.00163   0.00041   0.00000   0.00000   0.00000
  32       12D-2       -0.00041   0.00163   0.00000   0.00000   0.00000
  33       13F 0        0.00000   0.00000   0.00002   0.00004   0.00018
  34       13F+1        0.00005  -0.00018   0.00000   0.00000   0.00000
  35       13F-1       -0.00018  -0.00005   0.00000   0.00000   0.00000
  36       13F+2        0.00002   0.00000   0.00000   0.00000   0.00000
  37       13F-2        0.00000   0.00002   0.00000   0.00000   0.00000
  38       13F+3        0.00000   0.00000   0.00000   0.00000   0.00000
  39       13F-3        0.00000   0.00000  -0.00006   0.00007   0.00091
  40       14F 0        0.00000   0.00000  -0.00115  -0.00214  -0.00014
  41       14F+1       -0.00014   0.00055   0.00000   0.00000   0.00000
  42       14F-1        0.00055   0.00014   0.00000   0.00000   0.00000
  43       14F+2        0.00033   0.00008   0.00000   0.00000   0.00000
  44       14F-2       -0.00008   0.00033   0.00000   0.00000   0.00000
  45       14F+3        0.00000   0.00000   0.00000   0.00000   0.00000
  46       14F-3        0.00000   0.00000  -0.00087  -0.00137  -0.00199
  47 2   H  1S         -0.00015  -0.00004  -0.00002  -0.00035  -0.00135
  48        2S          0.00124   0.00031   0.00246   0.00328  -0.00050
  49        3S          0.00856   0.00218   0.00184   0.00524  -0.00422
  50        4S         -0.00028  -0.00007   0.00011   0.00009  -0.00012
  51        5PX         0.00000   0.00000   0.00000   0.00000   0.00000
  52        5PY         0.00003   0.00001   0.00004  -0.00003  -0.00048
  53        5PZ         0.00001   0.00000   0.00001   0.00002  -0.00008
  54        6PX        -0.00005   0.00020   0.00000   0.00000   0.00000
  55        6PY         0.00067   0.00017   0.00046   0.00068  -0.00078
  56        6PZ         0.00060   0.00015  -0.00003  -0.00011   0.00025
  57        7PX        -0.00024   0.00094   0.00000   0.00000   0.00000
  58        7PY         0.00206   0.00052   0.00054   0.00134  -0.00098
  59        7PZ         0.00028   0.00007   0.00048   0.00091  -0.00004
  60        8D 0        0.00003   0.00001   0.00001   0.00007   0.00014
  61        8D+1        0.00000  -0.00001   0.00000   0.00000   0.00000
  62        8D-1        0.00009   0.00002   0.00002   0.00005  -0.00003
  63        8D+2       -0.00005  -0.00001  -0.00004  -0.00005   0.00028
  64        8D-2        0.00000   0.00001   0.00000   0.00000   0.00000
  65        9D 0        0.00038   0.00010   0.00016   0.00026   0.00065
  66        9D+1       -0.00006   0.00023   0.00000   0.00000   0.00000
  67        9D-1        0.00013   0.00003  -0.00014  -0.00025   0.00002
  68        9D+2       -0.00013  -0.00003   0.00001   0.00002  -0.00010
  69        9D-2       -0.00003   0.00013   0.00000   0.00000   0.00000
  70 3   H  1S          0.00010  -0.00011  -0.00002  -0.00035  -0.00135
  71        2S         -0.00089   0.00091   0.00246   0.00328  -0.00050
  72        3S         -0.00616   0.00632   0.00184   0.00524  -0.00422
  73        4S          0.00021  -0.00021   0.00011   0.00009  -0.00012
  74        5PX        -0.00002   0.00002   0.00004  -0.00002  -0.00042
  75        5PY         0.00001  -0.00001  -0.00002   0.00001   0.00024
  76        5PZ        -0.00001   0.00001   0.00001   0.00002  -0.00008
  77        6PX        -0.00034   0.00050   0.00039   0.00059  -0.00067
  78        6PY         0.00037  -0.00012  -0.00023  -0.00034   0.00039
  79        6PZ        -0.00044   0.00045  -0.00002  -0.00011   0.00025
  80        7PX        -0.00093   0.00166   0.00047   0.00116  -0.00085
  81        7PY         0.00135  -0.00017  -0.00027  -0.00067   0.00049
  82        7PZ        -0.00020   0.00020   0.00048   0.00092  -0.00004
  83        8D 0       -0.00002   0.00003   0.00001   0.00007   0.00014
  84        8D+1       -0.00006   0.00005   0.00002   0.00004  -0.00003
  85        8D-1        0.00002  -0.00004  -0.00001  -0.00002   0.00002
  86        8D+2       -0.00001   0.00002   0.00002   0.00003  -0.00014
  87        8D-2        0.00003  -0.00003  -0.00004  -0.00004   0.00024
  88        9D 0       -0.00027   0.00028   0.00016   0.00026   0.00065
  89        9D+1        0.00001   0.00016  -0.00012  -0.00021   0.00001
  90        9D-1        0.00019   0.00010   0.00007   0.00012  -0.00001
  91        9D+2        0.00003   0.00013   0.00000  -0.00001   0.00005
  92        9D-2        0.00013  -0.00004   0.00001   0.00002  -0.00009
  93 4   H  1S          0.00004   0.00014  -0.00002  -0.00035  -0.00135
  94        2S         -0.00035  -0.00123   0.00246   0.00328  -0.00050
  95        3S         -0.00239  -0.00850   0.00184   0.00524  -0.00422
  96        4S          0.00008   0.00028   0.00011   0.00009  -0.00012
  97        5PX         0.00001   0.00003  -0.00004   0.00002   0.00042
  98        5PY         0.00001   0.00002  -0.00002   0.00001   0.00024
  99        5PZ         0.00000  -0.00001   0.00001   0.00002  -0.00008
 100        6PX         0.00006   0.00060  -0.00039  -0.00059   0.00067
 101        6PY         0.00027   0.00028  -0.00023  -0.00034   0.00039
 102        6PZ        -0.00017  -0.00060  -0.00002  -0.00011   0.00025
 103        7PX         0.00003   0.00190  -0.00047  -0.00116   0.00085
 104        7PY         0.00110   0.00079  -0.00027  -0.00067   0.00049
 105        7PZ        -0.00008  -0.00027   0.00048   0.00092  -0.00004
 106        8D 0       -0.00001  -0.00003   0.00001   0.00007   0.00014
 107        8D+1        0.00003   0.00008  -0.00002  -0.00004   0.00003
 108        8D-1        0.00000   0.00005  -0.00001  -0.00002   0.00002
 109        8D+2        0.00000  -0.00003   0.00002   0.00003  -0.00014
 110        8D-2       -0.00002  -0.00004   0.00004   0.00004  -0.00024
 111        9D 0       -0.00011  -0.00037   0.00016   0.00026   0.00065
 112        9D+1       -0.00008   0.00014   0.00012   0.00021  -0.00001
 113        9D-1        0.00022   0.00001   0.00007   0.00012  -0.00001
 114        9D+2        0.00009  -0.00009   0.00000  -0.00001   0.00005
 115        9D-2       -0.00009  -0.00009  -0.00001  -0.00002   0.00009
 116 5   Cl 1S          0.00000   0.00000  -0.24982   0.14927  -0.02301
 117        2S          0.00000   0.00000   0.84329  -0.50457   0.07885
 118        3S          0.00000   0.00000  -0.02300   0.00951  -0.00238
 119        4S          0.00000   0.00000   0.06635  -0.04107   0.00649
 120        5S          0.00000   0.00000  -0.00210   0.00769   0.00336
 121        6S          0.00000   0.00000  -0.00160  -0.00220   0.00294
 122        7PX        -0.24111   0.94868   0.00009   0.00015  -0.00001
 123        7PY         0.94868   0.24111   0.00022   0.00036  -0.00002
 124        7PZ        -0.00037  -0.00027   0.50530   0.83306  -0.05078
 125        8PX         0.00470  -0.01851   0.00000   0.00000   0.00000
 126        8PY        -0.01851  -0.00470   0.00000  -0.00001   0.00000
 127        8PZ         0.00001   0.00001  -0.00886  -0.01401   0.00019
 128        9PX        -0.01290   0.05075   0.00001   0.00001   0.00000
 129        9PY         0.05075   0.01290   0.00001   0.00002   0.00000
 130        9PZ        -0.00002  -0.00001   0.02869   0.04930  -0.00290
 131       10PX         0.00142  -0.00559   0.00000   0.00000   0.00000
 132       10PY        -0.00559  -0.00142   0.00000   0.00000   0.00000
 133       10PZ         0.00000   0.00000  -0.00435  -0.00268  -0.00336
 134       11PX         0.00053  -0.00210   0.00000   0.00000   0.00000
 135       11PY        -0.00210  -0.00053   0.00000   0.00000   0.00000
 136       11PZ         0.00000   0.00000  -0.00037  -0.00015  -0.00052
 137       12D 0        0.00000   0.00000   0.00000  -0.00050  -0.00017
 138       12D+1        0.00008  -0.00030   0.00000   0.00000   0.00000
 139       12D-1       -0.00030  -0.00008   0.00000   0.00000   0.00000
 140       12D+2        0.00001   0.00000   0.00000   0.00000   0.00000
 141       12D-2        0.00000   0.00001   0.00000   0.00000   0.00000
 142       13D 0        0.00000   0.00000   0.00089   0.00239   0.00037
 143       13D+1       -0.00020   0.00077   0.00000   0.00000   0.00000
 144       13D-1        0.00077   0.00020   0.00000   0.00000   0.00000
 145       13D+2       -0.00002   0.00000   0.00000   0.00000   0.00000
 146       13D-2        0.00000  -0.00002   0.00000   0.00000   0.00000
 147       14D 0        0.00000   0.00000   0.00057  -0.00021   0.00078
 148       14D+1        0.00017  -0.00068   0.00000   0.00000   0.00000
 149       14D-1       -0.00068  -0.00017   0.00000   0.00000   0.00000
 150       14D+2        0.00003   0.00001   0.00000   0.00000   0.00000
 151       14D-2       -0.00001   0.00003   0.00000   0.00000   0.00000
 152       15F 0        0.00000   0.00000   0.00001  -0.00007  -0.00002
 153       15F+1        0.00000  -0.00001   0.00000   0.00000   0.00000
 154       15F-1       -0.00001   0.00000   0.00000   0.00000   0.00000
 155       15F+2        0.00003   0.00001   0.00000   0.00000   0.00000
 156       15F-2       -0.00001   0.00003   0.00000   0.00000   0.00000
 157       15F+3        0.00000   0.00000   0.00000   0.00000   0.00000
 158       15F-3        0.00000   0.00000   0.00001   0.00003   0.00000
 159       16F 0        0.00000   0.00000  -0.00032  -0.00057  -0.00030
 160       16F+1        0.00005  -0.00021   0.00000   0.00000   0.00000
 161       16F-1       -0.00021  -0.00005   0.00000   0.00000   0.00000
 162       16F+2       -0.00004  -0.00001   0.00000   0.00000   0.00000
 163       16F-2        0.00001  -0.00004   0.00000   0.00000   0.00000
 164       16F+3        0.00000   0.00000   0.00000   0.00000   0.00000
 165       16F-3        0.00000   0.00000  -0.00003  -0.00005   0.00001
 166 6   F  1S          0.00000   0.00000  -0.00142  -0.01019  -0.05068
 167        2S          0.00000   0.00000   0.00020   0.00042   0.00080
 168        3S          0.00000   0.00000  -0.00007  -0.00044  -0.00206
 169        4S          0.00000   0.00000  -0.00058  -0.00107   0.00064
 170        5S          0.00000   0.00000   0.00007  -0.00172   0.00188
 171        6PX         0.00001  -0.00004   0.00000   0.00000   0.00000
 172        6PY        -0.00004  -0.00001   0.00000   0.00000   0.00000
 173        6PZ         0.00000   0.00000   0.00059   0.00112   0.00009
 174        7PX         0.00000  -0.00001   0.00000   0.00000   0.00000
 175        7PY        -0.00001   0.00000   0.00000   0.00000   0.00000
 176        7PZ         0.00000   0.00000   0.00070   0.00133   0.00000
 177        8PX         0.00006  -0.00024   0.00000   0.00000   0.00000
 178        8PY        -0.00024  -0.00006   0.00000   0.00000   0.00000
 179        8PZ         0.00000   0.00000   0.00007   0.00017   0.00053
 180        9PX         0.00009  -0.00035   0.00000   0.00000   0.00000
 181        9PY        -0.00035  -0.00009   0.00000   0.00000   0.00000
 182        9PZ         0.00000   0.00000   0.00016  -0.00010   0.00073
 183       10D 0        0.00000   0.00000   0.00001   0.00001  -0.00002
 184       10D+1        0.00000  -0.00001   0.00000   0.00000   0.00000
 185       10D-1       -0.00001   0.00000   0.00000   0.00000   0.00000
 186       10D+2        0.00001   0.00000   0.00000   0.00000   0.00000
 187       10D-2        0.00000   0.00001   0.00000   0.00000   0.00000
 188       11D 0        0.00000   0.00000  -0.00004  -0.00010   0.00002
 189       11D+1       -0.00001   0.00005   0.00000   0.00000   0.00000
 190       11D-1        0.00005   0.00001   0.00000   0.00000   0.00000
 191       11D+2       -0.00003  -0.00001   0.00000   0.00000   0.00000
 192       11D-2        0.00001  -0.00003   0.00000   0.00000   0.00000
 193       12D 0        0.00000   0.00000  -0.00019  -0.00012   0.00013
 194       12D+1        0.00006  -0.00022   0.00000   0.00000   0.00000
 195       12D-1       -0.00022  -0.00006   0.00000   0.00000   0.00000
 196       12D+2        0.00010   0.00003   0.00000   0.00000   0.00000
 197       12D-2       -0.00003   0.00010   0.00000   0.00000   0.00000
 198       13F 0        0.00000   0.00000   0.00001  -0.00001  -0.00004
 199       13F+1        0.00000   0.00002   0.00000   0.00000   0.00000
 200       13F-1        0.00002   0.00000   0.00000   0.00000   0.00000
 201       13F+2       -0.00001   0.00000   0.00000   0.00000   0.00000
 202       13F-2        0.00000  -0.00001   0.00000   0.00000   0.00000
 203       13F+3        0.00000   0.00000   0.00000   0.00000   0.00000
 204       13F-3        0.00000   0.00000   0.00000   0.00000   0.00000
 205       14F 0        0.00000   0.00000  -0.00004   0.00002   0.00013
 206       14F+1        0.00001  -0.00006   0.00000   0.00000   0.00000
 207       14F-1       -0.00006  -0.00001   0.00000   0.00000   0.00000
 208       14F+2        0.00004   0.00001   0.00000   0.00000   0.00000
 209       14F-2       -0.00001   0.00004   0.00000   0.00000   0.00000
 210       14F+3        0.00000   0.00000   0.00000   0.00000   0.00000
 211       14F-3        0.00000   0.00000   0.00000  -0.00001  -0.00001
                           6         7         8         9        10
     Eigenvalues --     2.00000   2.00000   1.98361   1.97542   1.96951
   1 1   C  1S          0.05131  -0.00046   0.01565  -0.07305  -0.14413
   2        2S         -0.00011  -0.00001  -0.04259   0.19824   0.39842
   3        3S          0.00235  -0.00003  -0.01058   0.04605   0.09647
   4        4S         -0.00753   0.00016   0.00709   0.07946   0.19075
   5        5S         -0.00024   0.00010   0.00803  -0.00678  -0.02918
   6        6PX         0.00000   0.00000   0.00000   0.00000   0.00000
   7        6PY         0.00000   0.00000   0.00000   0.00001  -0.00001
   8        6PZ         0.00003   0.00000   0.00638   0.01063  -0.02579
   9        7PX         0.00000   0.00000   0.00000   0.00000   0.00000
  10        7PY         0.00000   0.00000   0.00000   0.00001  -0.00001
  11        7PZ        -0.00073   0.00000   0.00701   0.01801  -0.03070
  12        8PX         0.00000   0.00000   0.00000   0.00000   0.00000
  13        8PY         0.00000   0.00000   0.00001   0.00000  -0.00001
  14        8PZ         0.00515   0.00009   0.01622   0.00671  -0.02195
  15        9PX         0.00000   0.00000   0.00000   0.00000   0.00000
  16        9PY         0.00000   0.00000   0.00000   0.00000   0.00000
  17        9PZ         0.00011   0.00001  -0.00070   0.00033  -0.00416
  18       10D 0        0.00003   0.00000   0.00052  -0.00223  -0.00961
  19       10D+1        0.00000   0.00000   0.00000   0.00000   0.00000
  20       10D-1        0.00000   0.00000   0.00000   0.00000  -0.00001
  21       10D+2        0.00000   0.00000   0.00000   0.00000   0.00000
  22       10D-2        0.00000   0.00000   0.00000   0.00000   0.00000
  23       11D 0       -0.00022  -0.00002  -0.00560   0.00444  -0.01864
  24       11D+1        0.00000   0.00000   0.00000   0.00000  -0.00001
  25       11D-1        0.00000   0.00000   0.00000   0.00000  -0.00001
  26       11D+2        0.00000   0.00000   0.00000   0.00000   0.00000
  27       11D-2        0.00000   0.00000   0.00000   0.00000   0.00000
  28       12D 0        0.00026   0.00008   0.00217  -0.00820  -0.01699
  29       12D+1        0.00000   0.00000   0.00000   0.00000  -0.00001
  30       12D-1        0.00000   0.00000   0.00000  -0.00001  -0.00001
  31       12D+2        0.00000   0.00000   0.00000   0.00000   0.00000
  32       12D-2        0.00000   0.00000   0.00000   0.00000   0.00000
  33       13F 0       -0.00007   0.00000   0.00006   0.00232   0.00054
  34       13F+1        0.00000   0.00000   0.00000   0.00000   0.00000
  35       13F-1        0.00000   0.00000   0.00000   0.00000   0.00000
  36       13F+2        0.00000   0.00000   0.00000   0.00000   0.00000
  37       13F-2        0.00000   0.00000   0.00000   0.00000   0.00000
  38       13F+3        0.00000   0.00000   0.00000   0.00000   0.00000
  39       13F-3        0.00001   0.00000  -0.00013   0.00193   0.00397
  40       14F 0        0.00126   0.00000   0.00468   0.00277  -0.00192
  41       14F+1        0.00000   0.00000   0.00000   0.00000   0.00000
  42       14F-1        0.00000   0.00000   0.00001   0.00000   0.00000
  43       14F+2        0.00000   0.00000   0.00000   0.00000   0.00000
  44       14F-2        0.00000   0.00000   0.00000   0.00000   0.00000
  45       14F+3        0.00000   0.00000   0.00000   0.00000   0.00000
  46       14F-3       -0.00048   0.00003   0.00208  -0.00091   0.00394
  47 2   H  1S         -0.00008   0.00000  -0.00865   0.03716   0.08062
  48        2S          0.00107  -0.00006  -0.01587   0.04346   0.08384
  49        3S          0.00189   0.00004  -0.00131  -0.00501  -0.01214
  50        4S          0.00004   0.00000  -0.00049   0.00050   0.00043
  51        5PX         0.00000   0.00000   0.00000   0.00000   0.00000
  52        5PY         0.00001   0.00000  -0.00111   0.00400   0.00866
  53        5PZ        -0.00004   0.00000   0.00028   0.00092   0.00028
  54        6PX         0.00000   0.00000   0.00000   0.00000   0.00000
  55        6PY         0.00009   0.00000  -0.00080   0.00077   0.00121
  56        6PZ         0.00033  -0.00001   0.00009   0.00241  -0.00044
  57        7PX         0.00000   0.00000   0.00000   0.00000   0.00000
  58        7PY         0.00045   0.00001   0.00127  -0.00497  -0.01034
  59        7PZ        -0.00054   0.00001  -0.00272  -0.00165  -0.00115
  60        8D 0        0.00006   0.00000   0.00015  -0.00036  -0.00091
  61        8D+1        0.00000   0.00000   0.00000   0.00000   0.00000
  62        8D-1       -0.00001   0.00000  -0.00014   0.00048   0.00021
  63        8D+2       -0.00002   0.00000   0.00004  -0.00054  -0.00137
  64        8D-2        0.00000   0.00000   0.00000   0.00000   0.00000
  65        9D 0        0.00009  -0.00001  -0.00011   0.00122   0.00108
  66        9D+1        0.00000   0.00000   0.00000   0.00000   0.00000
  67        9D-1        0.00014   0.00000  -0.00005   0.00009  -0.00031
  68        9D+2        0.00004   0.00000  -0.00099   0.00226   0.00416
  69        9D-2        0.00000   0.00000   0.00000   0.00000   0.00000
  70 3   H  1S         -0.00008   0.00000  -0.00865   0.03716   0.08062
  71        2S          0.00107  -0.00006  -0.01587   0.04346   0.08385
  72        3S          0.00189   0.00004  -0.00131  -0.00501  -0.01214
  73        4S          0.00004   0.00000  -0.00049   0.00049   0.00043
  74        5PX         0.00001   0.00000  -0.00096   0.00347   0.00750
  75        5PY        -0.00001   0.00000   0.00055  -0.00200  -0.00433
  76        5PZ        -0.00004   0.00000   0.00028   0.00093   0.00029
  77        6PX         0.00008   0.00000  -0.00069   0.00066   0.00105
  78        6PY        -0.00004   0.00000   0.00040  -0.00038  -0.00061
  79        6PZ         0.00033  -0.00001   0.00009   0.00241  -0.00044
  80        7PX         0.00039   0.00001   0.00110  -0.00431  -0.00896
  81        7PY        -0.00023   0.00000  -0.00064   0.00249   0.00517
  82        7PZ        -0.00054   0.00001  -0.00272  -0.00165  -0.00115
  83        8D 0        0.00006   0.00000   0.00015  -0.00036  -0.00091
  84        8D+1       -0.00001   0.00000  -0.00012   0.00041   0.00019
  85        8D-1        0.00000   0.00000   0.00007  -0.00024  -0.00011
  86        8D+2        0.00001   0.00000  -0.00002   0.00027   0.00069
  87        8D-2       -0.00001   0.00000   0.00003  -0.00047  -0.00119
  88        9D 0        0.00009  -0.00001  -0.00011   0.00122   0.00108
  89        9D+1        0.00013   0.00000  -0.00004   0.00008  -0.00027
  90        9D-1       -0.00007   0.00000   0.00002  -0.00005   0.00016
  91        9D+2       -0.00002   0.00000   0.00050  -0.00113  -0.00208
  92        9D-2        0.00003   0.00000  -0.00086   0.00195   0.00360
  93 4   H  1S         -0.00008   0.00000  -0.00865   0.03716   0.08063
  94        2S          0.00107  -0.00006  -0.01587   0.04346   0.08385
  95        3S          0.00189   0.00004  -0.00131  -0.00501  -0.01214
  96        4S          0.00004   0.00000  -0.00049   0.00049   0.00043
  97        5PX        -0.00001   0.00000   0.00096  -0.00347  -0.00750
  98        5PY        -0.00001   0.00000   0.00055  -0.00200  -0.00433
  99        5PZ        -0.00004   0.00000   0.00028   0.00093   0.00029
 100        6PX        -0.00008   0.00000   0.00069  -0.00066  -0.00105
 101        6PY        -0.00004   0.00000   0.00040  -0.00038  -0.00061
 102        6PZ         0.00033  -0.00001   0.00009   0.00241  -0.00044
 103        7PX        -0.00039  -0.00001  -0.00110   0.00431   0.00896
 104        7PY        -0.00023   0.00000  -0.00064   0.00248   0.00517
 105        7PZ        -0.00054   0.00001  -0.00272  -0.00165  -0.00116
 106        8D 0        0.00006   0.00000   0.00015  -0.00036  -0.00091
 107        8D+1        0.00001   0.00000   0.00012  -0.00042  -0.00019
 108        8D-1        0.00000   0.00000   0.00007  -0.00024  -0.00011
 109        8D+2        0.00001   0.00000  -0.00002   0.00027   0.00069
 110        8D-2        0.00001   0.00000  -0.00003   0.00047   0.00119
 111        9D 0        0.00009  -0.00001  -0.00011   0.00122   0.00108
 112        9D+1       -0.00013   0.00000   0.00004  -0.00008   0.00027
 113        9D-1       -0.00007   0.00000   0.00002  -0.00005   0.00016
 114        9D+2       -0.00002   0.00000   0.00050  -0.00113  -0.00208
 115        9D-2       -0.00003   0.00000   0.00086  -0.00195  -0.00360
 116 5   Cl 1S          0.00002   0.99708  -0.00064   0.06653  -0.03473
 117        2S          0.00008   0.01040   0.00296  -0.25214   0.13055
 118        3S          0.00005   0.00017  -0.00390   0.52500  -0.27771
 119        4S          0.00009   0.00026  -0.00026   0.06433  -0.03737
 120        5S         -0.00175  -0.00020  -0.01225   0.35108  -0.17031
 121        6S         -0.00047  -0.00011  -0.00467   0.02465   0.01120
 122        7PX         0.00000   0.00000   0.00000   0.00000   0.00001
 123        7PY         0.00000   0.00000   0.00000   0.00000   0.00001
 124        7PZ         0.00687   0.00016   0.00160   0.00462   0.02895
 125        8PX         0.00000   0.00000   0.00000   0.00000  -0.00001
 126        8PY         0.00000   0.00000   0.00000   0.00000  -0.00003
 127        8PZ         0.00050  -0.00003  -0.00254  -0.00629  -0.07236
 128        9PX         0.00000   0.00000   0.00000   0.00000  -0.00001
 129        9PY         0.00000   0.00000   0.00000   0.00000  -0.00001
 130        9PZ         0.00029   0.00003  -0.00274   0.00050  -0.03160
 131       10PX         0.00000   0.00000   0.00000   0.00000  -0.00001
 132       10PY         0.00000   0.00000   0.00000   0.00000  -0.00002
 133       10PZ         0.00092   0.00015   0.00257   0.00284  -0.05285
 134       11PX         0.00000   0.00000   0.00000   0.00000   0.00000
 135       11PY         0.00000   0.00000   0.00000   0.00000   0.00000
 136       11PZ         0.00002   0.00002  -0.00044   0.00259  -0.00885
 137       12D 0       -0.00003   0.00001  -0.00035   0.00439   0.00448
 138       12D+1        0.00000   0.00000   0.00000   0.00000   0.00000
 139       12D-1        0.00000   0.00000   0.00000   0.00000   0.00000
 140       12D+2        0.00000   0.00000   0.00000   0.00000   0.00000
 141       12D-2        0.00000   0.00000   0.00000   0.00000   0.00000
 142       13D 0       -0.00022   0.00000  -0.00162   0.00806   0.00962
 143       13D+1        0.00000   0.00000   0.00000   0.00000   0.00000
 144       13D-1        0.00000   0.00000   0.00000   0.00001   0.00001
 145       13D+2        0.00000   0.00000   0.00000   0.00000   0.00000
 146       13D-2        0.00000   0.00000   0.00000   0.00000   0.00000
 147       14D 0       -0.00014  -0.00004  -0.00187  -0.00019   0.00540
 148       14D+1        0.00000   0.00000   0.00000   0.00000   0.00000
 149       14D-1        0.00000   0.00000   0.00000   0.00000   0.00000
 150       14D+2        0.00000   0.00000   0.00000   0.00000   0.00000
 151       14D-2        0.00000   0.00000   0.00000   0.00000   0.00000
 152       15F 0        0.00005   0.00000   0.00023  -0.00176  -0.00190
 153       15F+1        0.00000   0.00000   0.00000   0.00000   0.00000
 154       15F-1        0.00000   0.00000   0.00000   0.00000   0.00000
 155       15F+2        0.00000   0.00000   0.00000   0.00000   0.00000
 156       15F-2        0.00000   0.00000   0.00000   0.00000   0.00000
 157       15F+3        0.00000   0.00000   0.00000   0.00000   0.00000
 158       15F-3       -0.00001   0.00000  -0.00002   0.00002   0.00009
 159       16F 0       -0.00004   0.00001   0.00006  -0.00093  -0.00172
 160       16F+1        0.00000   0.00000   0.00000   0.00000   0.00000
 161       16F-1        0.00000   0.00000   0.00000   0.00000   0.00000
 162       16F+2        0.00000   0.00000   0.00000   0.00000   0.00000
 163       16F-2        0.00000   0.00000   0.00000   0.00000   0.00000
 164       16F+3        0.00000   0.00000   0.00000   0.00000   0.00000
 165       16F-3        0.00003   0.00000   0.00002  -0.00001  -0.00021
 166 6   F  1S          0.97738  -0.00002   0.21184   0.01322   0.02176
 167        2S         -0.01505   0.00000  -0.53161  -0.03428  -0.05775
 168        3S          0.04206   0.00000  -0.16471  -0.01088  -0.01868
 169        4S          0.00196  -0.00001  -0.36868  -0.02367  -0.04419
 170        5S         -0.00077  -0.00006  -0.04501   0.00440   0.00823
 171        6PX         0.00000   0.00000   0.00000   0.00000   0.00002
 172        6PY         0.00000   0.00000   0.00001   0.00001   0.00004
 173        6PZ         0.00049   0.00000   0.01408   0.01285   0.08639
 174        7PX         0.00000   0.00000   0.00000   0.00000   0.00002
 175        7PY         0.00000   0.00000   0.00001   0.00001   0.00005
 176        7PZ        -0.00012   0.00000   0.01538   0.01569   0.10399
 177        8PX         0.00000   0.00000   0.00000   0.00000   0.00002
 178        8PY         0.00000   0.00000   0.00001   0.00001   0.00004
 179        8PZ         0.00245  -0.00001   0.01301   0.01251   0.08265
 180        9PX         0.00000   0.00000   0.00000   0.00000   0.00000
 181        9PY         0.00000   0.00000   0.00000   0.00000   0.00001
 182        9PZ        -0.00006  -0.00002   0.00239   0.00323   0.02378
 183       10D 0       -0.00002   0.00000  -0.00013   0.00017   0.00061
 184       10D+1        0.00000   0.00000   0.00000   0.00000   0.00000
 185       10D-1        0.00000   0.00000   0.00000   0.00000   0.00000
 186       10D+2        0.00000   0.00000   0.00000   0.00000   0.00000
 187       10D-2        0.00000   0.00000   0.00000   0.00000   0.00000
 188       11D 0       -0.00003   0.00000  -0.00107   0.00092   0.00280
 189       11D+1        0.00000   0.00000   0.00000   0.00000   0.00000
 190       11D-1        0.00000   0.00000   0.00000   0.00000   0.00000
 191       11D+2        0.00000   0.00000   0.00000   0.00000   0.00000
 192       11D-2        0.00000   0.00000   0.00000   0.00000   0.00000
 193       12D 0        0.00081   0.00000  -0.00053   0.00040   0.00387
 194       12D+1        0.00000   0.00000   0.00000   0.00000   0.00000
 195       12D-1        0.00000   0.00000   0.00000   0.00000   0.00000
 196       12D+2        0.00000   0.00000   0.00000   0.00000   0.00000
 197       12D-2        0.00000   0.00000   0.00000   0.00000   0.00000
 198       13F 0       -0.00006   0.00000  -0.00002   0.00013   0.00028
 199       13F+1        0.00000   0.00000   0.00000   0.00000   0.00000
 200       13F-1        0.00000   0.00000   0.00000   0.00000   0.00000
 201       13F+2        0.00000   0.00000   0.00000   0.00000   0.00000
 202       13F-2        0.00000   0.00000   0.00000   0.00000   0.00000
 203       13F+3        0.00000   0.00000   0.00000   0.00000   0.00000
 204       13F-3        0.00001   0.00000   0.00001   0.00002   0.00003
 205       14F 0        0.00020   0.00000  -0.00041  -0.00006   0.00062
 206       14F+1        0.00000   0.00000   0.00000   0.00000   0.00000
 207       14F-1        0.00000   0.00000   0.00000   0.00000   0.00000
 208       14F+2        0.00000   0.00000   0.00000   0.00000   0.00000
 209       14F-2        0.00000   0.00000   0.00000   0.00000   0.00000
 210       14F+3        0.00000   0.00000   0.00000   0.00000   0.00000
 211       14F-3       -0.00001   0.00000  -0.00006  -0.00006  -0.00009
                          11        12        13        14        15
     Eigenvalues --     1.96446   1.96446   1.95930   1.95930   1.94909
   1 1   C  1S          0.00000   0.00000   0.00000   0.00000   0.00000
   2        2S          0.00000   0.00000   0.00000   0.00000   0.00000
   3        3S          0.00000   0.00000   0.00000   0.00000   0.00000
   4        4S          0.00000   0.00000   0.00000  -0.00001   0.00000
   5        5S          0.00000   0.00000   0.00000   0.00000   0.00000
   6        6PX         0.05124   0.08343   0.22544   0.05235   0.06524
   7        6PY         0.08343  -0.05123   0.05234  -0.22544   0.01708
   8        6PZ        -0.00005   0.00001  -0.00006   0.00009  -0.00002
   9        7PX         0.06872   0.11190   0.29889   0.06940   0.09068
  10        7PY         0.11190  -0.06871   0.06940  -0.29889   0.02374
  11        7PZ        -0.00006   0.00001  -0.00008   0.00012  -0.00003
  12        8PX         0.05017   0.08169   0.23112   0.05366   0.06927
  13        8PY         0.08169  -0.05017   0.05366  -0.23112   0.01814
  14        8PZ        -0.00004   0.00001  -0.00006   0.00009  -0.00002
  15        9PX        -0.00121  -0.00196   0.01850   0.00430   0.01171
  16        9PY        -0.00196   0.00121   0.00430  -0.01850   0.00307
  17        9PZ         0.00000   0.00000  -0.00001   0.00001   0.00000
  18       10D 0        0.00000   0.00000   0.00000   0.00000   0.00000
  19       10D+1       -0.00138  -0.00225  -0.00102  -0.00023  -0.00346
  20       10D-1       -0.00224   0.00138  -0.00024   0.00100  -0.00091
  21       10D+2        0.00532  -0.00327   0.00338  -0.01452   0.00126
  22       10D-2        0.00327   0.00532   0.01452   0.00338   0.00482
  23       11D 0        0.00001   0.00000   0.00000   0.00001   0.00001
  24       11D+1       -0.00672  -0.01094   0.00796   0.00186  -0.01461
  25       11D-1       -0.01093   0.00671   0.00185  -0.00800  -0.00382
  26       11D+2        0.01769  -0.01086   0.01036  -0.04453   0.00428
  27       11D-2        0.01085   0.01769   0.04454   0.01036   0.01633
  28       12D 0        0.00000   0.00000   0.00000   0.00000   0.00000
  29       12D+1       -0.00322  -0.00523   0.00581   0.00136   0.00098
  30       12D-1       -0.00522   0.00320   0.00135  -0.00585   0.00026
  31       12D+2        0.01704  -0.01046   0.00826  -0.03551   0.00248
  32       12D-2        0.01045   0.01703   0.03552   0.00826   0.00947
  33       13F 0        0.00000   0.00000   0.00000   0.00000   0.00000
  34       13F+1        0.00014   0.00023  -0.00203  -0.00047  -0.00213
  35       13F-1        0.00023  -0.00014  -0.00047   0.00203  -0.00056
  36       13F+2       -0.00054   0.00033  -0.00002   0.00007  -0.00008
  37       13F-2       -0.00033  -0.00054  -0.00007  -0.00002  -0.00031
  38       13F+3        0.00000   0.00000   0.00000   0.00000   0.00000
  39       13F-3        0.00000   0.00000   0.00000   0.00000   0.00000
  40       14F 0        0.00000   0.00000   0.00000  -0.00001   0.00001
  41       14F+1        0.00019   0.00030  -0.00573  -0.00133  -0.00702
  42       14F-1        0.00030  -0.00018  -0.00133   0.00573  -0.00184
  43       14F+2       -0.00329   0.00202   0.00003  -0.00014  -0.00080
  44       14F-2       -0.00202  -0.00329   0.00013   0.00003  -0.00307
  45       14F+3        0.00000   0.00000   0.00000   0.00000   0.00000
  46       14F-3        0.00000   0.00000   0.00000   0.00000   0.00000
  47 2   H  1S         -0.05729   0.03517  -0.03440   0.14807  -0.01171
  48        2S         -0.05133   0.03151  -0.03486   0.15002  -0.01151
  49        3S          0.04987  -0.03062   0.02741  -0.11798   0.00132
  50        4S         -0.00473   0.00290   0.00392  -0.01686   0.00024
  51        5PX         0.00109   0.00178   0.00427   0.00099   0.00101
  52        5PY        -0.00452   0.00277  -0.00282   0.01212  -0.00091
  53        5PZ         0.00009  -0.00005  -0.00060   0.00256   0.00006
  54        6PX         0.00421   0.00685   0.01331   0.00309   0.00354
  55        6PY         0.00622  -0.00382   0.00259  -0.01115   0.00140
  56        6PZ        -0.00253   0.00155   0.00014  -0.00059  -0.00030
  57        7PX         0.00485   0.00790   0.01325   0.00307   0.00254
  58        7PY         0.01215  -0.00746   0.01038  -0.04467   0.00243
  59        7PZ         0.00016  -0.00010   0.00165  -0.00711   0.00072
  60        8D 0        0.00036  -0.00022   0.00031  -0.00132   0.00010
  61        8D+1        0.00000   0.00001   0.00029   0.00007  -0.00004
  62        8D-1       -0.00064   0.00039  -0.00004   0.00017  -0.00007
  63        8D+2        0.00051  -0.00031   0.00044  -0.00187   0.00013
  64        8D-2        0.00055   0.00090   0.00219   0.00051   0.00058
  65        9D 0       -0.00044   0.00027   0.00032  -0.00139  -0.00003
  66        9D+1       -0.00082  -0.00134   0.00098   0.00023  -0.00115
  67        9D-1       -0.00294   0.00180   0.00076  -0.00328  -0.00013
  68        9D+2       -0.00140   0.00086  -0.00061   0.00261  -0.00027
  69        9D-2        0.00087   0.00142   0.00283   0.00066   0.00107
  70 3   H  1S         -0.00182  -0.06720  -0.11103  -0.10383  -0.03285
  71        2S         -0.00163  -0.06021  -0.11250  -0.10519  -0.03229
  72        3S          0.00158   0.05849   0.08847   0.08273   0.00370
  73        4S         -0.00015  -0.00555   0.01264   0.01182   0.00068
  74        5PX         0.00092  -0.00462  -0.00637  -0.00896  -0.00184
  75        5PY         0.00188   0.00260   0.00714   0.00148   0.00191
  76        5PZ         0.00000   0.00010  -0.00193  -0.00180   0.00016
  77        6PX         0.00419   0.00621   0.01191   0.00178   0.00469
  78        6PY         0.00686  -0.00384   0.00390  -0.01255   0.00026
  79        6PZ        -0.00008  -0.00296   0.00044   0.00042  -0.00084
  80        7PX         0.00497   0.01222   0.03365   0.02216   0.00683
  81        7PY         0.00783  -0.00735  -0.00871  -0.02426  -0.00182
  82        7PZ         0.00000   0.00019   0.00534   0.00500   0.00202
  83        8D 0        0.00001   0.00042   0.00099   0.00093   0.00029
  84        8D+1       -0.00001  -0.00065  -0.00001  -0.00021  -0.00019
  85        8D-1        0.00002   0.00037   0.00024  -0.00013   0.00008
  86        8D+2        0.00091  -0.00032   0.00063  -0.00208   0.00018
  87        8D-2        0.00054   0.00050   0.00199   0.00032   0.00053
  88        9D 0       -0.00001  -0.00052   0.00104   0.00098  -0.00009
  89        9D+1       -0.00087  -0.00296   0.00247   0.00163  -0.00073
  90        9D-1       -0.00131   0.00176  -0.00064  -0.00178  -0.00054
  91        9D+2        0.00147   0.00078   0.00270  -0.00092   0.00105
  92        9D-2        0.00079  -0.00145  -0.00070  -0.00265  -0.00027
  93 4   H  1S          0.05910   0.03203   0.14543  -0.04424   0.04456
  94        2S          0.05295   0.02870   0.14735  -0.04482   0.04380
  95        3S         -0.05145  -0.02788  -0.11588   0.03525  -0.00502
  96        4S          0.00488   0.00264  -0.01656   0.00504  -0.00092
  97        5PX        -0.00454  -0.00127  -0.00967   0.00523  -0.00285
  98        5PY        -0.00147  -0.00285  -0.00705  -0.00182  -0.00197
  99        5PZ        -0.00009  -0.00005   0.00253  -0.00077  -0.00022
 100        6PX         0.00364   0.00655   0.01148   0.00365   0.00511
 101        6PY         0.00653  -0.00438   0.00203  -0.01299   0.00183
 102        6PZ         0.00260   0.00141  -0.00059   0.00018   0.00113
 103        7PX         0.00865   0.00996   0.03997  -0.00506   0.00836
 104        7PY         0.01009  -0.00366   0.01850  -0.01794   0.00403
 105        7PZ        -0.00017  -0.00009  -0.00702   0.00214  -0.00274
 106        8D 0       -0.00037  -0.00020  -0.00130   0.00040  -0.00039
 107        8D+1       -0.00057  -0.00030  -0.00010   0.00019  -0.00025
 108        8D-1       -0.00032  -0.00018  -0.00016  -0.00022  -0.00013
 109        8D+2        0.00070  -0.00066   0.00035  -0.00214   0.00011
 110        8D-2        0.00020   0.00071   0.00192   0.00059   0.00051
 111        9D 0        0.00046   0.00025  -0.00137   0.00042   0.00012
 112        9D+1       -0.00225  -0.00211   0.00294  -0.00037  -0.00057
 113        9D-1       -0.00216   0.00038   0.00136  -0.00132   0.00003
 114        9D+2       -0.00003  -0.00166  -0.00201  -0.00201  -0.00077
 115        9D-2       -0.00165   0.00005  -0.00180   0.00206  -0.00075
 116 5   Cl 1S          0.00000   0.00000   0.00000   0.00000   0.00000
 117        2S          0.00000   0.00000   0.00000   0.00000   0.00000
 118        3S          0.00000   0.00000   0.00000   0.00000   0.00000
 119        4S          0.00000   0.00000   0.00000   0.00000   0.00000
 120        5S          0.00000   0.00000   0.00000   0.00000   0.00000
 121        6S          0.00000   0.00000   0.00000   0.00000   0.00000
 122        7PX        -0.00452  -0.00736  -0.04183  -0.00971   0.21631
 123        7PY        -0.00736   0.00452  -0.00971   0.04184   0.05663
 124        7PZ         0.00000   0.00000   0.00001  -0.00002  -0.00006
 125        8PX         0.01070   0.01742   0.09882   0.02295  -0.49458
 126        8PY         0.01742  -0.01070   0.02294  -0.09882  -0.12949
 127        8PZ        -0.00001   0.00000  -0.00003   0.00004   0.00014
 128        9PX         0.00497   0.00809   0.04572   0.01062  -0.23894
 129        9PY         0.00809  -0.00497   0.01062  -0.04572  -0.06256
 130        9PZ         0.00000   0.00000  -0.00001   0.00002   0.00007
 131       10PX         0.00539   0.00878   0.05369   0.01247  -0.35596
 132       10PY         0.00878  -0.00539   0.01247  -0.05369  -0.09320
 133       10PZ         0.00000   0.00000  -0.00001   0.00002   0.00010
 134       11PX         0.00113   0.00184   0.00335   0.00078  -0.06080
 135       11PY         0.00184  -0.00113   0.00078  -0.00335  -0.01592
 136       11PZ         0.00000   0.00000   0.00000   0.00000   0.00002
 137       12D 0        0.00000   0.00000   0.00000   0.00000   0.00000
 138       12D+1       -0.00096  -0.00157  -0.00590  -0.00137   0.00024
 139       12D-1       -0.00157   0.00096  -0.00137   0.00590   0.00006
 140       12D+2        0.00010  -0.00006   0.00012  -0.00053   0.00006
 141       12D-2        0.00006   0.00009   0.00053   0.00012   0.00023
 142       13D 0        0.00000   0.00000   0.00000  -0.00001   0.00000
 143       13D+1       -0.00148  -0.00242  -0.01046  -0.00243   0.00077
 144       13D-1       -0.00242   0.00148  -0.00243   0.01046   0.00020
 145       13D+2        0.00027  -0.00016   0.00014  -0.00062   0.00014
 146       13D-2        0.00016   0.00027   0.00061   0.00014   0.00052
 147       14D 0        0.00000   0.00000   0.00000   0.00000   0.00000
 148       14D+1        0.00001   0.00002   0.00007   0.00002   0.00335
 149       14D-1        0.00002  -0.00001   0.00002  -0.00007   0.00088
 150       14D+2       -0.00054   0.00033  -0.00001   0.00005   0.00002
 151       14D-2       -0.00033  -0.00054  -0.00005  -0.00001   0.00006
 152       15F 0        0.00000   0.00000   0.00000   0.00000   0.00000
 153       15F+1        0.00045   0.00073   0.00250   0.00058  -0.00133
 154       15F-1        0.00073  -0.00045   0.00058  -0.00250  -0.00035
 155       15F+2       -0.00009   0.00006  -0.00008   0.00033  -0.00003
 156       15F-2       -0.00006  -0.00009  -0.00033  -0.00008  -0.00010
 157       15F+3        0.00000   0.00000   0.00000   0.00000   0.00000
 158       15F-3        0.00000   0.00000   0.00000   0.00000   0.00000
 159       16F 0        0.00000   0.00000   0.00000   0.00000   0.00000
 160       16F+1        0.00031   0.00051   0.00190   0.00044  -0.00175
 161       16F-1        0.00051  -0.00031   0.00044  -0.00190  -0.00046
 162       16F+2        0.00001  -0.00001   0.00005  -0.00019  -0.00005
 163       16F-2        0.00001   0.00001   0.00019   0.00004  -0.00019
 164       16F+3        0.00000   0.00000   0.00000   0.00000   0.00000
 165       16F-3        0.00000   0.00000   0.00000   0.00000   0.00000
 166 6   F  1S          0.00000   0.00000   0.00000   0.00000   0.00000
 167        2S          0.00000   0.00000   0.00000   0.00000   0.00000
 168        3S          0.00000   0.00000   0.00000   0.00000   0.00000
 169        4S          0.00000   0.00000   0.00000   0.00000   0.00000
 170        5S          0.00000   0.00000   0.00000   0.00000   0.00000
 171        6PX         0.17398   0.28332  -0.15776  -0.03663  -0.02166
 172        6PY         0.28332  -0.17398  -0.03663   0.15775  -0.00567
 173        6PZ        -0.00016   0.00003   0.00004  -0.00006   0.00000
 174        7PX         0.20755   0.33799  -0.18705  -0.04343  -0.02564
 175        7PY         0.33799  -0.20755  -0.04343   0.18705  -0.00671
 176        7PZ        -0.00019   0.00004   0.00005  -0.00007   0.00000
 177        8PX         0.16768   0.27305  -0.15731  -0.03652  -0.02193
 178        8PY         0.27305  -0.16768  -0.03653   0.15731  -0.00574
 179        8PZ        -0.00016   0.00003   0.00004  -0.00006   0.00000
 180        9PX         0.05232   0.08521  -0.05509  -0.01279  -0.01066
 181        9PY         0.08521  -0.05233  -0.01279   0.05509  -0.00279
 182        9PZ        -0.00005   0.00001   0.00001  -0.00002   0.00000
 183       10D 0        0.00000   0.00000   0.00000   0.00000   0.00000
 184       10D+1        0.00032   0.00053   0.00009   0.00002   0.00012
 185       10D-1        0.00053  -0.00032   0.00002  -0.00009   0.00003
 186       10D+2        0.00002  -0.00001   0.00001  -0.00004   0.00000
 187       10D-2        0.00001   0.00002   0.00004   0.00001   0.00001
 188       11D 0        0.00000   0.00000   0.00000   0.00000   0.00000
 189       11D+1        0.00130   0.00211   0.00119   0.00028   0.00057
 190       11D-1        0.00211  -0.00130   0.00028  -0.00119   0.00015
 191       11D+2        0.00004  -0.00003   0.00006  -0.00025   0.00004
 192       11D-2        0.00003   0.00004   0.00025   0.00006   0.00017
 193       12D 0        0.00000   0.00000   0.00000   0.00000   0.00000
 194       12D+1        0.00313   0.00509  -0.00344  -0.00080   0.00035
 195       12D-1        0.00509  -0.00313  -0.00080   0.00344   0.00009
 196       12D+2        0.00001  -0.00001  -0.00007   0.00029  -0.00009
 197       12D-2        0.00001   0.00002  -0.00029  -0.00007  -0.00036
 198       13F 0        0.00000   0.00000   0.00000   0.00000   0.00000
 199       13F+1        0.00012   0.00020   0.00024   0.00006   0.00006
 200       13F-1        0.00020  -0.00012   0.00006  -0.00024   0.00001
 201       13F+2        0.00005  -0.00003   0.00003  -0.00011   0.00002
 202       13F-2        0.00003   0.00005   0.00011   0.00003   0.00006
 203       13F+3        0.00000   0.00000   0.00000   0.00000   0.00000
 204       13F-3        0.00000   0.00000   0.00000   0.00000   0.00000
 205       14F 0        0.00000   0.00000   0.00000   0.00000   0.00000
 206       14F+1        0.00078   0.00127  -0.00086  -0.00020   0.00002
 207       14F-1        0.00127  -0.00078  -0.00020   0.00086   0.00000
 208       14F+2       -0.00012   0.00007  -0.00006   0.00024  -0.00004
 209       14F-2       -0.00007  -0.00012  -0.00024  -0.00005  -0.00016
 210       14F+3        0.00000   0.00000   0.00000   0.00000   0.00000
 211       14F-3        0.00000   0.00000   0.00000   0.00000   0.00000
                          16        17        18        19        20
     Eigenvalues --     1.94909   1.94833   1.93547   0.06042   0.02483
   1 1   C  1S          0.00000   0.05277  -0.01663  -0.02194   0.00001
   2        2S          0.00001  -0.15030   0.05331   0.06020  -0.00002
   3        3S          0.00000  -0.03542   0.01737   0.02168  -0.00001
   4        4S          0.00002  -0.30082   0.08429  -0.19823   0.00004
   5        5S          0.00000  -0.05977   0.03865  -0.02493   0.00001
   6        6PX        -0.01708  -0.00001  -0.00002   0.00005   0.00959
   7        6PY         0.06524  -0.00001  -0.00006   0.00012   0.15009
   8        6PZ        -0.00002  -0.04723  -0.12721   0.28014  -0.00007
   9        7PX        -0.02374  -0.00001  -0.00003   0.00008   0.01774
  10        7PY         0.09069  -0.00002  -0.00008   0.00019   0.27763
  11        7PZ        -0.00003  -0.06686  -0.17832   0.44314  -0.00012
  12        8PX        -0.01814  -0.00001  -0.00001   0.00004   0.00837
  13        8PY         0.06927  -0.00002  -0.00003   0.00009   0.13094
  14        8PZ        -0.00002  -0.06541  -0.07715   0.20175  -0.00006
  15        9PX        -0.00307   0.00000   0.00000   0.00000   0.00188
  16        9PY         0.01171   0.00000   0.00000   0.00000   0.02940
  17        9PZ         0.00000  -0.00144  -0.00174   0.00035  -0.00001
  18       10D 0        0.00000   0.00952  -0.01088  -0.00842  -0.00002
  19       10D+1        0.00091   0.00000   0.00000   0.00000   0.00166
  20       10D-1       -0.00346   0.00001  -0.00001  -0.00001   0.02594
  21       10D+2        0.00482   0.00000   0.00000   0.00000   0.00421
  22       10D-2       -0.00126   0.00000   0.00000   0.00000   0.00027
  23       11D 0        0.00001   0.05123  -0.04490   0.06249  -0.00006
  24       11D+1        0.00382   0.00002  -0.00001   0.00002   0.00393
  25       11D-1       -0.01459   0.00004  -0.00003   0.00005   0.06178
  26       11D+2        0.01634   0.00000   0.00000   0.00000   0.06963
  27       11D-2       -0.00428   0.00000   0.00000   0.00000   0.00444
  28       12D 0        0.00000   0.02790  -0.00394  -0.01685  -0.00001
  29       12D+1       -0.00026   0.00001   0.00000  -0.00001   0.00125
  30       12D-1        0.00098   0.00002   0.00000  -0.00001   0.01964
  31       12D+2        0.00947   0.00000   0.00000   0.00000   0.01597
  32       12D-2       -0.00248   0.00000   0.00000   0.00000   0.00102
  33       13F 0        0.00000  -0.00216  -0.00323  -0.00637   0.00001
  34       13F+1        0.00056   0.00000   0.00000   0.00000  -0.00061
  35       13F-1       -0.00213   0.00000   0.00000  -0.00001  -0.00949
  36       13F+2       -0.00030   0.00000   0.00000   0.00000   0.00318
  37       13F-2        0.00008   0.00000   0.00000   0.00000   0.00020
  38       13F+3        0.00000   0.00000   0.00000   0.00000   0.00000
  39       13F-3        0.00000  -0.00310   0.00113  -0.00045   0.00000
  40       14F 0        0.00001  -0.00541  -0.00113   0.01137   0.00000
  41       14F+1        0.00184   0.00000   0.00000   0.00000  -0.00016
  42       14F-1       -0.00703  -0.00001   0.00000   0.00001  -0.00245
  43       14F+2       -0.00306   0.00001   0.00000   0.00002  -0.00140
  44       14F-2        0.00080   0.00000   0.00000   0.00001  -0.00009
  45       14F+3        0.00000  -0.00001   0.00000  -0.00001   0.00000
  46       14F-3        0.00000  -0.01595   0.00881  -0.03481   0.00000
  47 2   H  1S         -0.04469  -0.03399   0.02835  -0.00587   0.03748
  48        2S         -0.04393  -0.00129   0.02304   0.07475   0.24955
  49        3S          0.00503   0.02387   0.02074   0.06264   0.16459
  50        4S          0.00092   0.00030   0.00201   0.00668   0.06994
  51        5PX        -0.00027   0.00000   0.00000   0.00000   0.00016
  52        5PY        -0.00347  -0.00214   0.00243  -0.00188  -0.00874
  53        5PZ         0.00023  -0.00267  -0.00326   0.01438  -0.01223
  54        6PX        -0.00093   0.00000   0.00000   0.00001   0.00047
  55        6PY         0.00535   0.00588  -0.00143   0.00899   0.05711
  56        6PZ        -0.00114  -0.00108  -0.01017   0.02680  -0.00646
  57        7PX        -0.00066   0.00000   0.00000   0.00000  -0.00004
  58        7PY         0.00928   0.01163  -0.00149   0.01120   0.05039
  59        7PZ         0.00274   0.00786   0.00309  -0.01451   0.00512
  60        8D 0        0.00040   0.00014  -0.00082   0.00046   0.00260
  61        8D+1        0.00001   0.00000   0.00000   0.00000   0.00011
  62        8D-1       -0.00028  -0.00023  -0.00170   0.00663  -0.00399
  63        8D+2        0.00050   0.00052  -0.00059   0.00177   0.00262
  64        8D-2       -0.00015   0.00000   0.00000   0.00000   0.00013
  65        9D 0       -0.00012   0.00099  -0.00277   0.00536  -0.00308
  66        9D+1        0.00030   0.00000   0.00000   0.00000   0.00029
  67        9D-1       -0.00049   0.00198  -0.00054  -0.00613   0.01516
  68        9D+2       -0.00103   0.00107   0.00036  -0.00105  -0.00903
  69        9D-2       -0.00028   0.00000   0.00000   0.00000   0.00009
  70 3   H  1S          0.03249  -0.03399   0.02835  -0.00587  -0.01666
  71        2S          0.03193  -0.00128   0.02304   0.07474  -0.11099
  72        3S         -0.00366   0.02388   0.02074   0.06263  -0.07321
  73        4S         -0.00067   0.00030   0.00201   0.00668  -0.03111
  74        5PX         0.00255  -0.00185   0.00211  -0.00163   0.00454
  75        5PY        -0.00062   0.00107  -0.00122   0.00095   0.00009
  76        5PZ        -0.00016  -0.00267  -0.00326   0.01438   0.00544
  77        6PX        -0.00207   0.00509  -0.00124   0.00778  -0.01875
  78        6PY         0.00420  -0.00294   0.00071  -0.00448   0.01832
  79        6PZ         0.00082  -0.00108  -0.01017   0.02681   0.00286
  80        7PX        -0.00491   0.01007  -0.00129   0.00970  -0.01972
  81        7PY         0.00499  -0.00581   0.00075  -0.00561   0.01068
  82        7PZ        -0.00200   0.00786   0.00309  -0.01450  -0.00229
  83        8D 0       -0.00029   0.00014  -0.00082   0.00047  -0.00116
  84        8D+1        0.00016  -0.00020  -0.00147   0.00574   0.00232
  85        8D-1       -0.00012   0.00011   0.00085  -0.00331   0.00048
  86        8D+2        0.00055  -0.00026   0.00029  -0.00088   0.00216
  87        8D-2       -0.00010   0.00045  -0.00051   0.00154  -0.00010
  88        9D 0        0.00009   0.00099  -0.00277   0.00536   0.00136
  89        9D+1       -0.00012   0.00171  -0.00046  -0.00531  -0.00382
  90        9D-1       -0.00091  -0.00099   0.00026   0.00307   0.00687
  91        9D+2        0.00030  -0.00054  -0.00018   0.00052  -0.00103
  92        9D-2        0.00104   0.00093   0.00031  -0.00091   0.00404
  93 4   H  1S          0.01221  -0.03399   0.02835  -0.00587  -0.02080
  94        2S          0.01200  -0.00128   0.02304   0.07474  -0.13856
  95        3S         -0.00138   0.02388   0.02074   0.06263  -0.09139
  96        4S         -0.00025   0.00030   0.00201   0.00668  -0.03883
  97        5PX        -0.00132   0.00185  -0.00211   0.00164  -0.00529
  98        5PY         0.00040   0.00107  -0.00122   0.00095  -0.00053
  99        5PZ        -0.00006  -0.00267  -0.00326   0.01438   0.00679
 100        6PX        -0.00050  -0.00509   0.00123  -0.00777   0.02445
 101        6PY         0.00379  -0.00294   0.00071  -0.00448   0.02107
 102        6PZ         0.00031  -0.00107  -0.01017   0.02681   0.00356
 103        7PX         0.00093  -0.01007   0.00130  -0.00970   0.02452
 104        7PY         0.00346  -0.00581   0.00075  -0.00561   0.01350
 105        7PZ        -0.00075   0.00787   0.00309  -0.01450  -0.00286
 106        8D 0       -0.00011   0.00014  -0.00082   0.00047  -0.00144
 107        8D+1       -0.00005   0.00020   0.00147  -0.00574  -0.00265
 108        8D-1       -0.00007   0.00011   0.00085  -0.00331   0.00016
 109        8D+2        0.00057  -0.00026   0.00030  -0.00089   0.00219
 110        8D-2       -0.00017  -0.00045   0.00051  -0.00154   0.00041
 111        9D 0        0.00003   0.00099  -0.00277   0.00536   0.00170
 112        9D+1        0.00046  -0.00171   0.00046   0.00531   0.00542
 113        9D-1       -0.00106  -0.00099   0.00026   0.00307   0.00746
 114        9D+2        0.00078  -0.00054  -0.00018   0.00053  -0.00160
 115        9D-2       -0.00078  -0.00093  -0.00031   0.00091  -0.00486
 116 5   Cl 1S          0.00000   0.01007   0.00047  -0.01657   0.00000
 117        2S          0.00000  -0.03850  -0.00153   0.05564   0.00000
 118        3S          0.00000   0.07931   0.01086  -0.15461   0.00000
 119        4S          0.00000   0.01226   0.00443  -0.03968   0.00000
 120        5S          0.00000   0.06863   0.01195  -0.04447   0.00000
 121        6S          0.00000   0.02124  -0.01234   0.01554   0.00000
 122        7PX        -0.05663   0.00000  -0.00004  -0.00003   0.00134
 123        7PY         0.21631   0.00003  -0.00009  -0.00007   0.02093
 124        7PZ        -0.00009   0.02846  -0.21026  -0.16177  -0.00001
 125        8PX         0.12949  -0.00001   0.00008   0.00006  -0.00209
 126        8PY        -0.49458  -0.00006   0.00020   0.00015  -0.03266
 127        8PZ         0.00020  -0.06626   0.46497   0.35589   0.00001
 128        9PX         0.06256   0.00000   0.00004   0.00004  -0.00222
 129        9PY        -0.23894  -0.00003   0.00009   0.00009  -0.03480
 130        9PZ         0.00009  -0.03295   0.21860   0.20464   0.00001
 131       10PX         0.09320  -0.00001   0.00006   0.00000   0.00109
 132       10PY        -0.35596  -0.00006   0.00014   0.00001   0.01707
 133       10PZ         0.00014  -0.07542   0.31886   0.02782  -0.00001
 134       11PX         0.01592   0.00000   0.00001   0.00000   0.00036
 135       11PY        -0.06080  -0.00001   0.00002   0.00000   0.00569
 136       11PZ         0.00003  -0.02465   0.04707   0.00690   0.00000
 137       12D 0        0.00000  -0.00462  -0.01205   0.06615   0.00004
 138       12D+1       -0.00006   0.00000   0.00000   0.00002  -0.00372
 139       12D-1        0.00024   0.00000  -0.00001   0.00005  -0.05818
 140       12D+2        0.00023   0.00000   0.00000   0.00000   0.00134
 141       12D-2       -0.00006   0.00000   0.00000   0.00000   0.00007
 142       13D 0        0.00000  -0.00737  -0.01904   0.09669   0.00006
 143       13D+1       -0.00020   0.00000  -0.00001   0.00003  -0.00556
 144       13D-1        0.00077  -0.00001  -0.00001   0.00007  -0.08691
 145       13D+2        0.00052   0.00000   0.00000   0.00000   0.00208
 146       13D-2       -0.00014   0.00000   0.00000   0.00000   0.00011
 147       14D 0        0.00000   0.00178  -0.01307   0.03001   0.00001
 148       14D+1       -0.00088   0.00000   0.00000   0.00001  -0.00062
 149       14D-1        0.00335   0.00000  -0.00001   0.00002  -0.00967
 150       14D+2        0.00006   0.00000   0.00000   0.00000   0.00035
 151       14D-2       -0.00002   0.00000   0.00000   0.00000   0.00002
 152       15F 0        0.00000   0.00096   0.00445  -0.00353  -0.00001
 153       15F+1        0.00035   0.00000   0.00000   0.00000   0.00031
 154       15F-1       -0.00133   0.00000   0.00000   0.00000   0.00486
 155       15F+2       -0.00010   0.00000   0.00000   0.00000  -0.00025
 156       15F-2        0.00003   0.00000   0.00000   0.00000  -0.00001
 157       15F+3        0.00000   0.00000   0.00000   0.00000   0.00000
[...]
  79        6PZ        -0.01583   0.01547  -0.33408  -0.16952  -0.08978
  80        7PX         2.71181  -9.75379   0.97948  -1.77422  -5.33697
  81        7PY        -9.70101  -2.50875  -0.53660   1.02510  -0.19822
  82        7PZ         2.07718  -2.07525  -1.54829  -0.03816  -0.46625
  83        8D 0       -0.00857   0.00848  -0.03847   0.01921   0.01201
  84        8D+1        0.00031  -0.03236   0.00810   0.00982   0.01046
  85        8D-1       -0.03714  -0.01829  -0.00450  -0.00562  -0.00156
  86        8D+2        0.07934   0.07313   0.06578   0.03170   0.00801
  87        8D-2        0.03827   0.04911  -0.11465  -0.05494   0.03370
  88        9D 0       -0.40360   0.40098  -0.52592  -0.19322   0.16192
  89        9D+1        0.24860   0.04368  -0.22269  -0.04075  -0.16816
  90        9D-1        0.19368   0.31188   0.12672   0.02294   0.02081
  91        9D+2       -0.58179  -1.60881  -0.13091  -0.37638  -0.48580
  92        9D-2       -1.52068   0.25749   0.23604   0.65237  -0.09466
  93 4   H  1S         -0.00118  -0.00393  -0.03611  -0.01277   0.01041
  94        2S          0.87979   3.28523   0.10668  -0.52318  -0.84271
  95        3S          7.25379  27.00770   7.29433  -3.09896  -9.85065
  96        4S         -0.53450  -2.01779   1.57090  -1.94645  -4.27998
  97        5PX        -0.01956   0.11397  -0.02755  -0.08432  -0.06330
  98        5PY         0.09640   0.03697  -0.01625  -0.04866   0.02162
  99        5PZ         0.00438   0.01571   0.05843   0.03154   0.00339
 100        6PX         0.10158  -2.31153  -0.56612   0.55439   0.68052
 101        6PY        -1.49796  -0.91760  -0.32147   0.32000  -0.18185
 102        6PZ        -0.00613  -0.02003  -0.33392  -0.16971  -0.05636
 103        7PX         2.53148  -9.79972  -0.99487   1.77426   4.10827
 104        7PY        -9.65491  -2.68026  -0.53662   1.02459  -1.45291
 105        7PZ         0.75815   2.84186  -1.54430  -0.03872  -0.29269
 106        8D 0       -0.00320  -0.01156  -0.03848   0.01921   0.00752
 107        8D+1        0.01588  -0.02816  -0.00819  -0.00982  -0.00759
 108        8D-1       -0.04129  -0.00275  -0.00453  -0.00563   0.00085
 109        8D+2        0.10529  -0.02369   0.06577   0.03173   0.01611
 110        8D-2       -0.05773   0.02322   0.11467   0.05492  -0.02753
 111        9D 0       -0.14877  -0.54836  -0.52678  -0.19325   0.10135
 112        9D+1       -0.23654  -0.08768   0.22241   0.04076   0.12330
 113        9D-1        0.32346  -0.17357   0.12638   0.02315  -0.01804
 114        9D+2       -1.30839   1.10226  -0.12893  -0.37669  -0.52288
 115        9D-2        1.18832   0.98374  -0.23499  -0.65216   0.18580
 116 5   Cl 1S          0.00007   0.00000   0.02044   0.01199   0.00000
 117        2S          0.00099   0.00006   0.28387   0.16791   0.00000
 118        3S          0.00275   0.00016   0.78923   0.46909   0.00000
 119        4S         -0.00015  -0.00001  -0.04598  -0.01899   0.00000
 120        5S         -0.01528  -0.00087  -4.37046  -3.07545  -0.00002
 121        6S         -0.03394  -0.00189  -9.58600 -12.96348  -0.00010
 122        7PX        -0.00037   0.00138   0.00000   0.00000   0.00033
 123        7PY         0.00138   0.00037  -0.00001  -0.00001  -0.00252
 124        7PZ        -0.00002   0.00000  -0.00404  -0.02154   0.00000
 125        8PX        -0.00757   0.02822   0.00001  -0.00005   0.00712
 126        8PY         0.02822   0.00757  -0.00013  -0.00013  -0.05367
 127        8PZ        -0.00023  -0.00002  -0.05684  -0.29963   0.00002
 128        9PX         0.00157  -0.00586  -0.00001   0.00001  -0.00109
 129        9PY        -0.00587  -0.00157   0.00002   0.00003   0.00824
 130        9PZ         0.00001   0.00000  -0.00011   0.07521   0.00000
 131       10PX         0.05114  -0.19071   0.00088   0.00088  -0.05234
 132       10PY        -0.19069  -0.05113   0.00325   0.00214   0.39475
 133       10PZ         0.02064   0.00121   5.84448   5.01017  -0.00013
 134       11PX         0.30023  -1.11975  -0.00070   0.00057   0.03085
 135       11PY        -1.11969  -0.30021   0.00429   0.00144  -0.23265
 136       11PZ         0.00314   0.00048   0.74600   3.28599   0.00014
 137       12D 0        0.00022   0.00000   0.06890   0.00196   0.00000
 138       12D+1       -0.00752   0.02807   0.00004   0.00000   0.00046
 139       12D-1        0.02806   0.00753  -0.00005   0.00000  -0.00345
 140       12D+2       -0.00365  -0.00098   0.00001   0.00000   0.01184
 141       12D-2        0.00098  -0.00363   0.00000   0.00000  -0.00157
 142       13D 0       -0.00129  -0.00002  -0.38878  -0.07168  -0.00002
 143       13D+1        0.02750  -0.10257  -0.00020  -0.00002  -0.00330
 144       13D-1       -0.10256  -0.02750   0.00007  -0.00005   0.02491
 145       13D+2        0.00699   0.00186  -0.00002   0.00000  -0.04286
 146       13D-2       -0.00187   0.00689   0.00000   0.00000   0.00570
 147       14D 0       -0.00505  -0.00045  -1.36634  -1.21027   0.00021
 148       14D+1       -0.09419   0.35131  -0.00015  -0.00036   0.04149
 149       14D-1        0.35122   0.09418  -0.00227  -0.00089  -0.31300
 150       14D+2       -0.07665  -0.02051   0.00027   0.00000   0.19614
 151       14D-2        0.02057  -0.07634  -0.00006   0.00000  -0.02610
 152       15F 0       -0.00016  -0.00001  -0.04339   0.00224   0.00002
 153       15F+1       -0.00183   0.00685  -0.00001   0.00000   0.00253
 154       15F-1        0.00683   0.00184  -0.00007   0.00000  -0.01906
 155       15F+2       -0.01307  -0.00351   0.00005  -0.00001   0.00970
 156       15F-2        0.00351  -0.01306  -0.00001  -0.00001  -0.00129
 157       15F+3        0.00000   0.00000   0.00000   0.00001   0.00000
 158       15F-3       -0.00004  -0.00001  -0.00918   0.02342   0.00001
 159       16F 0        0.00084   0.00006   0.23050   0.08377  -0.00006
 160       16F+1        0.00699  -0.02613   0.00008   0.00004  -0.00836
 161       16F-1       -0.02605  -0.00700   0.00033   0.00008   0.06310
 162       16F+2        0.05441   0.01460  -0.00021   0.00002  -0.04023
 163       16F-2       -0.01461   0.05438   0.00004   0.00001   0.00536
 164       16F+3        0.00002  -0.00002   0.00001  -0.00002  -0.00001
 165       16F-3        0.00009   0.00002   0.01937  -0.04380  -0.00002
 166 6   F  1S          0.00015   0.00001   0.04219  -0.02113   0.00000
 167        2S          0.00052   0.00003   0.14996  -0.07944   0.00000
 168        3S         -0.00026  -0.00001  -0.07428   0.03523   0.00000
 169        4S         -0.00142  -0.00008  -0.41149  -0.05436   0.00000
 170        5S         -0.00055  -0.00001  -0.14361  -6.09158  -0.00004
 171        6PX         0.00176  -0.00658   0.00000   0.00000  -0.00024
 172        6PY        -0.00658  -0.00176   0.00003   0.00000   0.00181
 173        6PZ         0.00002   0.00000   0.00504   0.00200   0.00000
 174        7PX        -0.00938   0.03498   0.00001   0.00000   0.00087
 175        7PY         0.03498   0.00938  -0.00015   0.00000  -0.00653
 176        7PZ        -0.00023  -0.00002  -0.06218   0.00364   0.00000
 177        8PX         0.06863  -0.25594  -0.00008  -0.00004  -0.00030
 178        8PY        -0.25591  -0.06861   0.00118  -0.00013   0.00229
 179        8PZ         0.00225   0.00020   0.61629  -0.26402   0.00000
 180        9PX         0.24313  -0.90676  -0.00083  -0.00044   0.03097
 181        9PY        -0.90672  -0.24311   0.00287  -0.00116  -0.23360
 182        9PZ        -0.00278   0.00009  -0.88053  -2.53689   0.00008
 183       10D 0        0.00005   0.00001   0.01169  -0.00757   0.00000
 184       10D+1        0.00437  -0.01631  -0.00001   0.00000  -0.00030
 185       10D-1       -0.01631  -0.00437   0.00007  -0.00001   0.00224
 186       10D+2        0.00435   0.00117  -0.00001   0.00000   0.00298
 187       10D-2       -0.00117   0.00433   0.00000   0.00000  -0.00040
 188       11D 0       -0.00019  -0.00003  -0.04310   0.01398   0.00000
 189       11D+1       -0.01403   0.05233   0.00003   0.00000   0.00052
 190       11D-1        0.05232   0.01403  -0.00022   0.00001  -0.00391
 191       11D+2       -0.01368  -0.00367   0.00004   0.00000  -0.01061
 192       11D-2        0.00367  -0.01362  -0.00001   0.00000   0.00141
 193       12D 0        0.00156   0.00016   0.42005  -0.00773   0.00002
 194       12D+1        0.03972  -0.14817   0.00002   0.00000   0.00396
 195       12D-1       -0.14810  -0.03972   0.00085  -0.00001  -0.02986
 196       12D+2        0.05091   0.01365  -0.00017   0.00000   0.02090
 197       12D-2       -0.01365   0.05075   0.00004   0.00000  -0.00278
 198       13F 0       -0.00007   0.00001  -0.02715  -0.00747  -0.00001
 199       13F+1        0.00554  -0.02067  -0.00003   0.00000  -0.00102
 200       13F-1       -0.02068  -0.00554   0.00004  -0.00001   0.00769
 201       13F+2       -0.00879  -0.00237   0.00002   0.00000   0.00266
 202       13F-2        0.00236  -0.00882  -0.00001   0.00000  -0.00035
 203       13F+3        0.00000   0.00001   0.00001   0.00000   0.00000
 204       13F-3        0.00004   0.00000   0.01312  -0.00062   0.00000
 205       14F 0        0.00020  -0.00002   0.06852   0.01143   0.00002
 206       14F+1       -0.01155   0.04306   0.00006   0.00001   0.00221
 207       14F-1        0.04310   0.01155  -0.00008   0.00001  -0.01668
 208       14F+2        0.02487   0.00669  -0.00008   0.00000  -0.00629
 209       14F-2       -0.00668   0.02494   0.00002   0.00000   0.00084
 210       14F+3        0.00001  -0.00002  -0.00001   0.00000   0.00000
 211       14F-3       -0.00005   0.00001  -0.01768   0.00154   0.00000
                         211
     Eigenvalues --     0.00000
   1 1   C  1S          0.00000
   2        2S         -0.00002
   3        3S          0.00000
   4        4S         -0.00023
   5        5S         -0.00009
   6        6PX         0.00757
   7        6PY         0.00100
   8        6PZ         0.00000
   9        7PX        -1.51772
  10        7PY        -0.20126
  11        7PZ         0.00036
  12        8PX       -17.24861
  13        8PY        -2.28707
  14        8PZ         0.00406
  15        9PX        -7.83407
  16        9PY        -1.03874
  17        9PZ         0.00183
  18       10D 0        0.00000
  19       10D+1        0.00095
  20       10D-1        0.00013
  21       10D+2       -0.00300
  22       10D-2       -0.02255
  23       11D 0       -0.00008
  24       11D+1        0.19570
  25       11D-1        0.02597
  26       11D+2       -0.05112
  27       11D-2       -0.38444
  28       12D 0       -0.00054
  29       12D+1        1.18717
  30       12D-1        0.15738
  31       12D+2        0.08506
  32       12D-2        0.63893
  33       13F 0        0.00002
  34       13F+1       -0.03861
  35       13F-1       -0.00512
  36       13F+2       -0.00092
  37       13F-2       -0.00687
  38       13F+3        0.00000
  39       13F-3        0.00000
  40       14F 0       -0.00023
  41       14F+1        0.40613
  42       14F-1        0.05384
  43       14F+2        0.00913
  44       14F-2        0.06837
  45       14F+3       -0.00004
  46       14F-3        0.00001
  47 2   H  1S          0.00359
  48        2S         -0.29046
  49        3S         -3.39532
  50        4S         -1.47521
  51        5PX        -0.05401
  52        5PY         0.01518
  53        5PZ         0.00117
  54        6PX         0.53370
  55        6PY        -0.17190
  56        6PZ        -0.01943
  57        7PX         3.55178
  58        7PY        -0.97660
  59        7PZ        -0.10107
  60        8D 0        0.00259
  61        8D+1       -0.00484
  62        8D-1        0.00214
  63        8D+2        0.00543
  64        8D-2       -0.02974
  65        9D 0        0.03495
  66        9D+1        0.08242
  67        9D-1       -0.03379
  68        9D+2        0.03489
  69        9D-2        0.58527
  70 3   H  1S          0.02161
  71        2S         -1.75004
  72        3S        -20.45692
  73        4S         -8.88836
  74        5PX         0.06254
  75        5PY        -0.07447
  76        5PZ         0.00706
  77        6PX        -0.73233
  78        6PY         0.80189
  79        6PZ        -0.11716
  80        7PX        -4.00046
  81        7PY         4.83236
  82        7PZ        -0.60907
  83        8D 0        0.01562
  84        8D+1        0.00960
  85        8D-1       -0.00900
  86        8D+2       -0.03220
  87        8D-2        0.01924
  88        9D 0        0.21045
  89        9D+1       -0.15063
  90        9D-1        0.14580
  91        9D+2        0.20711
  92        9D-2        0.36098
  93 4   H  1S         -0.02520
  94        2S          2.04058
  95        3S         23.85236
  96        4S         10.36359
  97        5PX         0.08190
  98        5PY         0.07129
  99        5PZ        -0.00825
 100        6PX        -0.94265
 101        6PY        -0.78133
 102        6PZ         0.13686
 103        7PX        -5.25507
 104        7PY        -4.61206
 105        7PZ         0.71148
 106        8D 0       -0.01822
 107        8D+1        0.01198
 108        8D-1        0.00908
 109        8D+2        0.02902
 110        8D-2        0.02735
 111        9D 0       -0.24528
 112        9D+1       -0.18944
 113        9D-1       -0.14625
 114        9D+2       -0.07312
 115        9D-2        0.32379
 116 5   Cl 1S          0.00000
 117        2S          0.00000
 118        3S          0.00000
 119        4S          0.00000
 120        5S          0.00003
 121        6S          0.00006
 122        7PX         0.00252
 123        7PY         0.00033
 124        7PZ         0.00000
 125        8PX         0.05367
 126        8PY         0.00712
 127        8PZ        -0.00001
 128        9PX        -0.00824
 129        9PY        -0.00109
 130        9PZ         0.00000
 131       10PX        -0.39474
 132       10PY        -0.05234
 133       10PZ         0.00006
 134       11PX         0.23264
 135       11PY         0.03085
 136       11PZ        -0.00007
 137       12D 0        0.00000
 138       12D+1        0.00346
 139       12D-1        0.00046
 140       12D+2       -0.00157
 141       12D-2       -0.01184
 142       13D 0        0.00001
 143       13D+1       -0.02495
 144       13D-1       -0.00331
 145       13D+2        0.00569
 146       13D-2        0.04284
 147       14D 0       -0.00012
 148       14D+1        0.31317
 149       14D-1        0.04154
 150       14D+2       -0.02603
 151       14D-2       -0.19586
 152       15F 0       -0.00001
 153       15F+1        0.01907
 154       15F-1        0.00253
 155       15F+2       -0.00128
 156       15F-2       -0.00967
 157       15F+3        0.00001
 158       15F-3        0.00000
 159       16F 0        0.00004
 160       16F+1       -0.06315
 161       16F-1       -0.00838
 162       16F+2        0.00533
 163       16F-2        0.04014
 164       16F+3       -0.00002
 165       16F-3        0.00001
 166 6   F  1S          0.00000
 167        2S          0.00000
 168        3S          0.00000
 169        4S          0.00001
 170        5S          0.00003
 171        6PX        -0.00181
 172        6PY        -0.00024
 173        6PZ         0.00000
 174        7PX         0.00653
 175        7PY         0.00087
 176        7PZ         0.00000
 177        8PX        -0.00229
 178        8PY        -0.00030
 179        8PZ         0.00000
 180        9PX         0.23359
 181        9PY         0.03097
 182        9PZ        -0.00004
 183       10D 0        0.00000
 184       10D+1       -0.00224
 185       10D-1       -0.00030
 186       10D+2       -0.00040
 187       10D-2       -0.00299
 188       11D 0        0.00000
 189       11D+1        0.00390
 190       11D-1        0.00052
 191       11D+2        0.00141
 192       11D-2        0.01061
 193       12D 0       -0.00001
 194       12D+1        0.02988
 195       12D-1        0.00396
 196       12D+2       -0.00277
 197       12D-2       -0.02087
 198       13F 0        0.00000
 199       13F+1       -0.00769
 200       13F-1       -0.00102
 201       13F+2       -0.00036
 202       13F-2       -0.00267
 203       13F+3        0.00000
 204       13F-3        0.00000
 205       14F 0       -0.00001
 206       14F+1        0.01667
 207       14F-1        0.00221
 208       14F+2        0.00084
 209       14F-2        0.00632
 210       14F+3        0.00000
 211       14F-3        0.00000
          Condensed to atoms (all electrons):
              1          2          3          4          5          6
     1  C    7.033502  -0.013204  -0.013212  -0.013214  -0.053299  -0.103372
     2  H   -0.013204   0.547498   0.019872   0.019872  -0.018495   0.006029
     3  H   -0.013212   0.019872   0.547501   0.019872  -0.018494   0.006034
     4  H   -0.013214   0.019872   0.019872   0.547500  -0.018494   0.006033
     5  Cl  -0.053299  -0.018495  -0.018494  -0.018494  17.718108   0.026732
     6  F   -0.103372   0.006029   0.006034   0.006033   0.026732   9.900573
 Mulliken atomic charges:
              1
     1  C   -0.837200
     2  H    0.438429
     3  H    0.438427
     4  H    0.438431
     5  Cl  -0.636058
     6  F   -0.842028
 Sum of Mulliken atomic charges =  -1.00000
 Mulliken charges with hydrogens summed into heavy atoms:
              1
     1  C    0.478087
     5  Cl  -0.636058
     6  F   -0.842028
 Sum of Mulliken charges with hydrogens summed into heavy atoms =  -1.00000
 Electronic spatial extent (au):  <R**2>=            490.4816
 Charge=             -1.0000 electrons
 Dipole moment (field-independent basis, Debye):
    X=             -0.0006    Y=              0.0007    Z=              3.9045  Tot=              3.9045
 Quadrupole moment (field-independent basis, Debye-Ang):
   XX=            -28.1878   YY=            -28.1878   ZZ=            -62.7442
   XY=              0.0000   XZ=             -0.0050   YZ=             -0.0145
 Traceless Quadrupole moment (field-independent basis, Debye-Ang):
   XX=             11.5188   YY=             11.5188   ZZ=            -23.0376
   XY=              0.0000   XZ=             -0.0050   YZ=             -0.0145
 Octapole moment (field-independent basis, Debye-Ang**2):
  XXX=             -0.0244  YYY=             -0.9779  ZZZ=             48.5773  XYY=             -0.0086
  XXY=              0.9436  XXZ=             -4.3129  XZZ=             -0.0067  YZZ=              0.0106
  YYZ=             -4.3121  XYZ=             -0.0002
 Hexadecapole moment (field-independent basis, Debye-Ang**3):
 XXXX=            -41.3033 YYYY=            -41.3033 ZZZZ=           -760.7061 XXXY=              0.0004
 XXXZ=             -0.0508 YYYX=             -0.0002 YYYZ=              0.5114 ZZZX=             -0.0658
 ZZZY=             -0.1887 XXYY=            -13.7679 XXZZ=           -103.4124 YYZZ=           -103.4135
 XXYZ=             -0.6745 YYXZ=             -0.0166 ZZXY=              0.0002
 N-N= 8.494220792526D+01 E-N=-1.604107751414D+03  KE= 5.991998439590D+02
 1\1\GINC-TRAPISTA\SP\RQCISD-FC\Aug-CC-pVTZ\C1H3Cl1F1(1-)\BRUNS\10-Aug-
 2021\0\\# QCISD aug-cc-pvtz nosymm density=current output=wfn\\title l
 ine\\-1,1\C,0,0.000175,0.000029,-0.507709\H,0,0.000019,-1.05257,-0.620
 726\H,0,-0.911312,0.526365,-0.621245\H,0,0.91175,0.526132,-0.62157\Cl,
 0,0.000555,0.000962,1.644718\F,0,-0.000186,-0.000921,-2.59346\\Version
 =EM64L-G09RevB.01\HF=-598.617135\MP2=-599.291098\MP3=-599.3097826\MP4D
 =-599.3246721\MP4DQ=-599.3102258\MP4SDQ=-599.3196483\QCISD=-599.319045
 5\RMSD=9.687e-09\Dipole=0.000261,0.0006974,1.5204691\Quadrupole=8.5639
 37,8.5639261,-17.1278631,-0.0000002,-0.0037155,-0.0107535\PG=C01 [X(C1
 H3Cl1F1)]\\@

 Writing a WFN file to GAUSSIAN-ZC_1.wfn.


 Children are likely to live up to what you believe of them.
 -- Lady Bird Johnson
 Job cpu time:  0 days  7 hours 20 minutes  6.2 seconds.
 File lengths (MBytes):  RWF=  29002 Int=      0 D2E=      0 Chk=      4 Scr=      1
 Normal termination of Gaussian 09 at Tue Aug 10 19:25:48 2021.
