 Entering Gaussian System, Link 0=g09
 Input=GAUSSIAN+XH_4.com
 Output=GAUSSIAN+XH_4.log
 Initial command:
 /home/bruns/programas/chemistry/gaussian/g09/l1.exe /home/bruns/programas/chemistry/gaussian/work/Gau-18164.inp -scrdir=/home/bruns/programas/chemistry/gaussian/work/
 Entering Link 1 = /home/bruns/programas/chemistry/gaussian/g09/l1.exe PID=     18166.
  
 Copyright (c) 1988,1990,1992,1993,1995,1998,2003,2009,2010,
            Gaussian, Inc.  All Rights Reserved.
  
 This is part of the Gaussian(R) 09 program.  It is based on
 the Gaussian(R) 03 system (copyright 2003, Gaussian, Inc.),
 the Gaussian(R) 98 system (copyright 1998, Gaussian, Inc.),
 the Gaussian(R) 94 system (copyright 1995, Gaussian, Inc.),
 the Gaussian 92(TM) system (copyright 1992, Gaussian, Inc.),
 the Gaussian 90(TM) system (copyright 1990, Gaussian, Inc.),
 the Gaussian 88(TM) system (copyright 1988, Gaussian, Inc.),
 the Gaussian 86(TM) system (copyright 1986, Carnegie Mellon
 University), and the Gaussian 82(TM) system (copyright 1983,
 Carnegie Mellon University). Gaussian is a federally registered
 trademark of Gaussian, Inc.
  
 This software contains proprietary and confidential information,
 including trade secrets, belonging to Gaussian, Inc.
  
 This software is provided under written license and may be
 used, copied, transmitted, or stored only in accord with that
 written license.
  
 The following legend is applicable only to US Government
 contracts under FAR:
  
                    RESTRICTED RIGHTS LEGEND
  
 Use, reproduction and disclosure by the US Government is
 subject to restrictions as set forth in subparagraphs (a)
 and (c) of the Commercial Computer Software - Restricted
 Rights clause in FAR 52.227-19.
  
 Gaussian, Inc.
 340 Quinnipiac St., Bldg. 40, Wallingford CT 06492
  
  
 ---------------------------------------------------------------
 Warning -- This program may not be used in any manner that
 competes with the business of Gaussian, Inc. or will provide
 assistance to any competitor of Gaussian, Inc.  The licensee
 of this program is prohibited from giving any competitor of
 Gaussian, Inc. access to this program.  By using this program,
 the user acknowledges that Gaussian, Inc. is engaged in the
 business of creating and licensing software in the field of
 computational chemistry and represents and warrants to the
 licensee that it is not a competitor of Gaussian, Inc. and that
 it will not use this program in any manner prohibited above.
 ---------------------------------------------------------------
  

 Cite this work as:
 Gaussian 09, Revision B.01,
 M. J. Frisch, G. W. Trucks, H. B. Schlegel, G. E. Scuseria, 
 M. A. Robb, J. R. Cheeseman, G. Scalmani, V. Barone, B. Mennucci, 
 G. A. Petersson, H. Nakatsuji, M. Caricato, X. Li, H. P. Hratchian, 
 A. F. Izmaylov, J. Bloino, G. Zheng, J. L. Sonnenberg, M. Hada, 
 M. Ehara, K. Toyota, R. Fukuda, J. Hasegawa, M. Ishida, T. Nakajima, 
 Y. Honda, O. Kitao, H. Nakai, T. Vreven, J. A. Montgomery, Jr., 
 J. E. Peralta, F. Ogliaro, M. Bearpark, J. J. Heyd, E. Brothers, 
 K. N. Kudin, V. N. Staroverov, T. Keith, R. Kobayashi, J. Normand, 
 K. Raghavachari, A. Rendell, J. C. Burant, S. S. Iyengar, J. Tomasi, 
 M. Cossi, N. Rega, J. M. Millam, M. Klene, J. E. Knox, J. B. Cross, 
 V. Bakken, C. Adamo, J. Jaramillo, R. Gomperts, R. E. Stratmann, 
 O. Yazyev, A. J. Austin, R. Cammi, C. Pomelli, J. W. Ochterski, 
 R. L. Martin, K. Morokuma, V. G. Zakrzewski, G. A. Voth, 
 P. Salvador, J. J. Dannenberg, S. Dapprich, A. D. Daniels, 
 O. Farkas, J. B. Foresman, J. V. Ortiz, J. Cioslowski, 
 and D. J. Fox, Gaussian, Inc., Wallingford CT, 2010.
 
 ******************************************
 Gaussian 09:  EM64L-G09RevB.01 12-Aug-2010
                10-Aug-2021 
 ******************************************
 %nproc=8
 Will use up to    8 processors via shared memory.
 %mem=8GB
 -----------------------------------------------------
 # QCISD aug-cc-pvtz nosymm density=current output=wfn
 -----------------------------------------------------
 1/30=1,38=1/1;
 2/12=2,15=1,17=6,18=5,40=1/2;
 3/5=16,6=1,7=10,11=9,16=1,25=1,30=1,71=1/1,2,3;
 4//1;
 5/5=2,38=5/2;
 8/6=4,9=120000,10=1/1,4;
 9/5=8,15=1/13;
 11/28=-7,31=1,32=3,42=3/11;
 10/5=6,13=10,31=1/2;
 6/7=2,8=2,9=2,10=2,22=-1,31=1/1;
 99/5=1,6=1100,9=1/99;
 ----------
 title line
 ----------
 Symbolic Z-matrix:
 Charge = -1 Multiplicity = 1
 C                     0.00018   0.00003  -0.49771 
 H                     0.00002  -1.05257  -0.62073 
 H                    -0.91131   0.52637  -0.62125 
 H                     0.92175   0.52613  -0.62157 
 Cl                    0.00056   0.00096   1.64472 
 F                    -0.00019  -0.00092  -2.59346 
 
                          Input orientation:                          
 ---------------------------------------------------------------------
 Center     Atomic      Atomic             Coordinates (Angstroms)
 Number     Number       Type             X           Y           Z
 ---------------------------------------------------------------------
      1          6           0        0.000175    0.000029   -0.497709
      2          1           0        0.000019   -1.052570   -0.620726
      3          1           0       -0.911312    0.526365   -0.621245
      4          1           0        0.921750    0.526132   -0.621570
      5         17           0        0.000555    0.000962    1.644718
      6          9           0       -0.000186   -0.000921   -2.593460
 ---------------------------------------------------------------------
                    Distance matrix (angstroms):
                    1          2          3          4          5
     1  C    0.000000
     2  H    1.059763   0.000000
     3  H    1.059764   1.823063   0.000000
     4  H    1.068376   1.828083   1.833062   0.000000
     5  Cl   2.142427   2.498433   2.498427   2.502092   0.000000
     6  F    2.095751   2.235541   2.235579   2.239665   4.238178
                    6
     6  F    0.000000
 Symmetry turned off by external request.
 Stoichiometry    CH3ClF(1-)
 Framework group  C1[X(CH3ClF)]
 Deg. of freedom    12
 Full point group                 C1      NOp   1
 Rotational constants (GHZ):    150.0514950      2.2147436      2.2145369
 Standard basis: Aug-CC-pVTZ (5D, 7F)
 Integral buffers will be    131072 words long.
 Raffenetti 1 integral format.
 Two-electron integral symmetry is turned off.
   211 basis functions,   339 primitive gaussians,   244 cartesian basis functions
    18 alpha electrons       18 beta electrons
       nuclear repulsion energy        84.9486806908 Hartrees.
 NAtoms=    6 NActive=    6 NUniq=    6 SFac= 1.00D+00 NAtFMM=   50 NAOKFM=F Big=F
 One-electron integrals computed using PRISM.
 NBasis=   211 RedAO= T  NBF=   211
 NBsUse=   211 1.00D-06 NBFU=   211
 Harris functional with IExCor=  205 diagonalized for initial guess.
 ExpMin= 2.53D-02 ExpMax= 4.56D+05 ExpMxC= 1.44D+03 IAcc=3 IRadAn=         0 AccDes= 0.00D+00
 HarFok:  IExCor=  205 AccDes= 0.00D+00 IRadAn=         0 IDoV= 1
 ScaDFX=  1.000000  1.000000  1.000000  1.000000
 FoFCou: FMM=F IPFlag=           0 FMFlag=      100000 FMFlg1=           0
         NFxFlg=           0 DoJE=T BraDBF=F KetDBF=T FulRan=T
         Omega=  0.000000  0.000000  1.000000  0.000000  0.000000 ICntrl=     500 IOpCl=  0
         NMat0=    1 NMatS0=    1 NMatT0=    0 NMatD0=    1 NMtDS0=    0 NMtDT0=    0
         I1Cent=           4 NGrid=           0.
 Symmetry not used in FoFCou.
 Requested convergence on RMS density matrix=1.00D-08 within 128 cycles.
 Requested convergence on MAX density matrix=1.00D-06.
 Requested convergence on             energy=1.00D-06.
 No special actions if energy rises.
 Keep R1 ints in memory in canonical form, NReq=454274131.
 SCF Done:  E(RHF) =  -598.617066262     A.U. after   12 cycles
             Convg  =    0.9365D-08             -V/T =  2.0001
 ExpMin= 2.53D-02 ExpMax= 4.56D+05 ExpMxC= 1.44D+03 IAcc=3 IRadAn=         5 AccDes= 0.00D+00
 HarFok:  IExCor=  205 AccDes= 0.00D+00 IRadAn=         5 IDoV=-2
 ScaDFX=  1.000000  1.000000  1.000000  1.000000
 DSYEVD returned Info=          93 IAlg= 4 N=    46 NDim=    46 NE2=    21472034 trying DSYEV.
 Range of M.O.s used for correlation:     8   211
 NBasis=   211 NAE=    18 NBE=    18 NFC=     7 NFV=     0
 NROrb=    204 NOA=    11 NOB=    11 NVA=   193 NVB=   193

 **** Warning!!: The largest alpha MO coefficient is  0.35271595D+02

 Semi-Direct transformation.
 ModeAB=           2 MOrb=            11 LenV=    1072528250
 LASXX=     44979418 LTotXX=    44979418 LenRXX=    44979418
 LTotAB=    45631872 MaxLAS=    67073160 LenRXY=    67073160
 NonZer=    89958836 LenScr=   135708672 LnRSAI=           0
 LnScr1=           0 LExtra=           0 Total=    247761250
 MaxDsk=          -1 SrtSym=           F ITran=            4
 JobTyp=0 Pass  1:  I=   1 to  11.
 (rs|ai) integrals will be sorted in core.
 Spin components of T(2) and E(2):
     alpha-alpha T2 =       0.2569072601D-01 E2=     -0.8209670464D-01
     alpha-beta  T2 =       0.1453961143D+00 E2=     -0.5100813372D+00
     beta-beta   T2 =       0.2569072601D-01 E2=     -0.8209670464D-01
 ANorm=    0.1093973293D+01
 E2 =    -0.6742747465D+00 EUMP2 =    -0.59929134100859D+03
 R2 and R3 integrals will be kept in memory, NReq=   900794930.
 Iterations=  50 Convergence= 0.100D-07
 Iteration Nr.   1
 **********************
 DD1Dir will call FoFMem   1 times, MxPair=       132
 NAB=    66 NAA=     0 NBB=     0.
 MP4(R+Q)=  0.14451173D-01
 E3=       -0.18690324D-01        EUMP3=      -0.59931003133D+03
 E4(DQ)=   -0.45675970D-03        UMP4(DQ)=   -0.59931048809D+03
 E4(SDQ)=  -0.98333221D-02        UMP4(SDQ)=  -0.59931986465D+03
 DE(Corr)= -0.67851390     E(Corr)=     -599.29558016    
 NORM(A)=   0.10997742D+01
 Iteration Nr.   2
 **********************
 DD1Dir will call FoFMem   1 times, MxPair=       132
 NAB=    66 NAA=     0 NBB=     0.
 DE(Corr)= -0.70073801     E(CORR)=     -599.31780427     Delta=-2.22D-02
 NORM(A)=   0.11071429D+01
 Iteration Nr.   3
 **********************
 DD1Dir will call FoFMem   1 times, MxPair=       132
 NAB=    66 NAA=     0 NBB=     0.
 DE(Corr)= -0.69834061     E(CORR)=     -599.31540687     Delta= 2.40D-03
 NORM(A)=   0.11111343D+01
 Iteration Nr.   4
 **********************
 DD1Dir will call FoFMem   1 times, MxPair=       132
 NAB=    66 NAA=     0 NBB=     0.
 DE(Corr)= -0.70140461     E(CORR)=     -599.31847087     Delta=-3.06D-03
 NORM(A)=   0.11132384D+01
 Iteration Nr.   5
 **********************
 DD1Dir will call FoFMem   1 times, MxPair=       132
 NAB=    66 NAA=     0 NBB=     0.
 DE(Corr)= -0.70199993     E(CORR)=     -599.31906619     Delta=-5.95D-04
 NORM(A)=   0.11142702D+01
 Iteration Nr.   6
 **********************
 DD1Dir will call FoFMem   1 times, MxPair=       132
 NAB=    66 NAA=     0 NBB=     0.
 DE(Corr)= -0.70214685     E(CORR)=     -599.31921311     Delta=-1.47D-04
 NORM(A)=   0.11145969D+01
 Iteration Nr.   7
 **********************
 DD1Dir will call FoFMem   1 times, MxPair=       132
 NAB=    66 NAA=     0 NBB=     0.
 DE(Corr)= -0.70217665     E(CORR)=     -599.31924291     Delta=-2.98D-05
 NORM(A)=   0.11146281D+01
 Iteration Nr.   8
 **********************
 DD1Dir will call FoFMem   1 times, MxPair=       132
 NAB=    66 NAA=     0 NBB=     0.
 DE(Corr)= -0.70219056     E(CORR)=     -599.31925682     Delta=-1.39D-05
 NORM(A)=   0.11146460D+01
 Iteration Nr.   9
 **********************
 DD1Dir will call FoFMem   1 times, MxPair=       132
 NAB=    66 NAA=     0 NBB=     0.
 DE(Corr)= -0.70216730     E(CORR)=     -599.31923356     Delta= 2.33D-05
 NORM(A)=   0.11146491D+01
 Iteration Nr.  10
 **********************
 DD1Dir will call FoFMem   1 times, MxPair=       132
 NAB=    66 NAA=     0 NBB=     0.
 DE(Corr)= -0.70218662     E(CORR)=     -599.31925288     Delta=-1.93D-05
 NORM(A)=   0.11146494D+01
 Iteration Nr.  11
 **********************
 DD1Dir will call FoFMem   1 times, MxPair=       132
 NAB=    66 NAA=     0 NBB=     0.
 DE(Corr)= -0.70217741     E(CORR)=     -599.31924367     Delta= 9.21D-06
 NORM(A)=   0.11146522D+01
 Iteration Nr.  12
 **********************
 DD1Dir will call FoFMem   1 times, MxPair=       132
 NAB=    66 NAA=     0 NBB=     0.
 DE(Corr)= -0.70218117     E(CORR)=     -599.31924743     Delta=-3.76D-06
 NORM(A)=   0.11146527D+01
 Iteration Nr.  13
 **********************
 DD1Dir will call FoFMem   1 times, MxPair=       132
 NAB=    66 NAA=     0 NBB=     0.
 DE(Corr)= -0.70218174     E(CORR)=     -599.31924800     Delta=-5.69D-07
 NORM(A)=   0.11146534D+01
 Iteration Nr.  14
 **********************
 DD1Dir will call FoFMem   1 times, MxPair=       132
 NAB=    66 NAA=     0 NBB=     0.
 DE(Corr)= -0.70218197     E(CORR)=     -599.31924823     Delta=-2.26D-07
 NORM(A)=   0.11146535D+01
 Iteration Nr.  15
 **********************
 DD1Dir will call FoFMem   1 times, MxPair=       132
 NAB=    66 NAA=     0 NBB=     0.
 DE(Corr)= -0.70218188     E(CORR)=     -599.31924814     Delta= 9.08D-08
 NORM(A)=   0.11146535D+01
 Iteration Nr.  16
 **********************
 DD1Dir will call FoFMem   1 times, MxPair=       132
 NAB=    66 NAA=     0 NBB=     0.
 DE(Corr)= -0.70218208     E(CORR)=     -599.31924834     Delta=-2.03D-07
 NORM(A)=   0.11146533D+01
 Iteration Nr.  17
 **********************
 DD1Dir will call FoFMem   1 times, MxPair=       132
 NAB=    66 NAA=     0 NBB=     0.
 DE(Corr)= -0.70218195     E(CORR)=     -599.31924821     Delta= 1.31D-07
 NORM(A)=   0.11146532D+01
 Iteration Nr.  18
 **********************
 DD1Dir will call FoFMem   1 times, MxPair=       132
 NAB=    66 NAA=     0 NBB=     0.
 DE(Corr)= -0.70218199     E(CORR)=     -599.31924825     Delta=-3.67D-08
 NORM(A)=   0.11146530D+01
 Iteration Nr.  19
 **********************
 DD1Dir will call FoFMem   1 times, MxPair=       132
 NAB=    66 NAA=     0 NBB=     0.
 DE(Corr)= -0.70218193     E(CORR)=     -599.31924820     Delta= 5.27D-08
 NORM(A)=   0.11146529D+01
 Iteration Nr.  20
 **********************
 DD1Dir will call FoFMem   1 times, MxPair=       132
 NAB=    66 NAA=     0 NBB=     0.
 DE(Corr)= -0.70218194     E(CORR)=     -599.31924820     Delta=-2.38D-09
 NORM(A)=   0.11146529D+01
 Iteration Nr.  21
 **********************
 DD1Dir will call FoFMem   1 times, MxPair=       132
 NAB=    66 NAA=     0 NBB=     0.
 DE(Corr)= -0.70218192     E(CORR)=     -599.31924818     Delta= 1.89D-08
 NORM(A)=   0.11146528D+01
 Iteration Nr.  22
 **********************
 DD1Dir will call FoFMem   1 times, MxPair=       132
 NAB=    66 NAA=     0 NBB=     0.
 DE(Corr)= -0.70218191     E(CORR)=     -599.31924817     Delta= 3.66D-09
 NORM(A)=   0.11146528D+01
 Iteration Nr.  23
 **********************
 DD1Dir will call FoFMem   1 times, MxPair=       132
 NAB=    66 NAA=     0 NBB=     0.
 DE(Corr)= -0.70218191     E(CORR)=     -599.31924817     Delta= 5.19D-09
 NORM(A)=   0.11146528D+01
 Iteration Nr.  24
 **********************
 DD1Dir will call FoFMem   1 times, MxPair=       132
 NAB=    66 NAA=     0 NBB=     0.
 DE(Corr)= -0.70218191     E(CORR)=     -599.31924817     Delta=-1.50D-09
 NORM(A)=   0.11146528D+01
 Iteration Nr.  25
 **********************
 DD1Dir will call FoFMem   1 times, MxPair=       132
 NAB=    66 NAA=     0 NBB=     0.
 DE(Corr)= -0.70218190     E(CORR)=     -599.31924817     Delta= 4.64D-09
 NORM(A)=   0.11146528D+01
 Iteration Nr.  26
 **********************
 DD1Dir will call FoFMem   1 times, MxPair=       132
 NAB=    66 NAA=     0 NBB=     0.
 DE(Corr)= -0.70218191     E(CORR)=     -599.31924817     Delta=-4.10D-09
 NORM(A)=   0.11146528D+01
 Iteration Nr.  27
 **********************
 DD1Dir will call FoFMem   1 times, MxPair=       132
 NAB=    66 NAA=     0 NBB=     0.
 DE(Corr)= -0.70218190     E(CORR)=     -599.31924817     Delta= 3.72D-09
 NORM(A)=   0.11146528D+01
 Iteration Nr.  28
 **********************
 DD1Dir will call FoFMem   1 times, MxPair=       132
 NAB=    66 NAA=     0 NBB=     0.
 DE(Corr)= -0.70218191     E(CORR)=     -599.31924817     Delta=-3.86D-09
 NORM(A)=   0.11146528D+01
 Largest amplitude= 6.61D-02

 Z-AMPLITUDE ITERATIONS

 Iteration Nr.   1
 **********************
 DD1Dir will call FoFMem   1 times, MxPair=       132
 NAB=    66 NAA=     0 NBB=     0.
 DE(Z)  -0.68277013D+00          E(Z)=    -0.59929983639D+03
 NORM(A)=   0.11161917D+01
 Iteration Nr.   2
 **********************
 DD1Dir will call FoFMem   1 times, MxPair=       132
 NAB=    66 NAA=     0 NBB=     0.
 DE(Z)  -0.68293822D+00          E(Z)=    -0.59930000448D+03
 NORM(A)=   0.11154531D+01
 Iteration Nr.   3
 **********************
 DD1Dir will call FoFMem   1 times, MxPair=       132
 NAB=    66 NAA=     0 NBB=     0.
 DE(Z)  -0.68284600D+00          E(Z)=    -0.59929991226D+03
 NORM(A)=   0.11158159D+01
 Iteration Nr.   4
 **********************
 DD1Dir will call FoFMem   1 times, MxPair=       132
 NAB=    66 NAA=     0 NBB=     0.
 DE(Z)  -0.68288582D+00          E(Z)=    -0.59929995208D+03
 NORM(A)=   0.11134985D+01
 Iteration Nr.   5
 **********************
 DD1Dir will call FoFMem   1 times, MxPair=       132
 NAB=    66 NAA=     0 NBB=     0.
 DE(Z)  -0.68265716D+00          E(Z)=    -0.59929972342D+03
 NORM(A)=   0.11079865D+01
 Iteration Nr.   6
 **********************
 DD1Dir will call FoFMem   1 times, MxPair=       132
 NAB=    66 NAA=     0 NBB=     0.
 DE(Z)  -0.68210049D+00          E(Z)=    -0.59929916676D+03
 NORM(A)=   0.11079803D+01
 Iteration Nr.   7
 **********************
 DD1Dir will call FoFMem   1 times, MxPair=       132
 NAB=    66 NAA=     0 NBB=     0.
 DE(Z)  -0.68210321D+00          E(Z)=    -0.59929916947D+03
 NORM(A)=   0.11079761D+01
 Iteration Nr.   8
 **********************
 DD1Dir will call FoFMem   1 times, MxPair=       132
 NAB=    66 NAA=     0 NBB=     0.
 DE(Z)  -0.68210083D+00          E(Z)=    -0.59929916709D+03
 NORM(A)=   0.11079723D+01
 Iteration Nr.   9
 **********************
 DD1Dir will call FoFMem   1 times, MxPair=       132
 NAB=    66 NAA=     0 NBB=     0.
 DE(Z)  -0.68210080D+00          E(Z)=    -0.59929916706D+03
 NORM(A)=   0.11079714D+01
 Iteration Nr.  10
 **********************
 DD1Dir will call FoFMem   1 times, MxPair=       132
 NAB=    66 NAA=     0 NBB=     0.
 DE(Z)  -0.68210080D+00          E(Z)=    -0.59929916707D+03
 NORM(A)=   0.11079711D+01
 Iteration Nr.  11
 **********************
 DD1Dir will call FoFMem   1 times, MxPair=       132
 NAB=    66 NAA=     0 NBB=     0.
 DE(Z)  -0.68210076D+00          E(Z)=    -0.59929916702D+03
 NORM(A)=   0.11079710D+01
 Iteration Nr.  12
 **********************
 DD1Dir will call FoFMem   1 times, MxPair=       132
 NAB=    66 NAA=     0 NBB=     0.
 DE(Z)  -0.68210079D+00          E(Z)=    -0.59929916705D+03
 NORM(A)=   0.11079710D+01
 Iteration Nr.  13
 **********************
 DD1Dir will call FoFMem   1 times, MxPair=       132
 NAB=    66 NAA=     0 NBB=     0.
 DE(Z)  -0.68210083D+00          E(Z)=    -0.59929916710D+03
 NORM(A)=   0.11079710D+01
 Iteration Nr.  14
 **********************
 DD1Dir will call FoFMem   1 times, MxPair=       132
 NAB=    66 NAA=     0 NBB=     0.
 DE(Z)  -0.68210082D+00          E(Z)=    -0.59929916708D+03
 NORM(A)=   0.11079710D+01
 Iteration Nr.  15
 **********************
 DD1Dir will call FoFMem   1 times, MxPair=       132
 NAB=    66 NAA=     0 NBB=     0.
 DE(Z)  -0.68210084D+00          E(Z)=    -0.59929916710D+03
 NORM(A)=   0.11079710D+01
 Iteration Nr.  16
 **********************
 DD1Dir will call FoFMem   1 times, MxPair=       132
 NAB=    66 NAA=     0 NBB=     0.
 DE(Z)  -0.68210083D+00          E(Z)=    -0.59929916709D+03
 NORM(A)=   0.11079711D+01
 Iteration Nr.  17
 **********************
 DD1Dir will call FoFMem   1 times, MxPair=       132
 NAB=    66 NAA=     0 NBB=     0.
 DE(Z)  -0.68210085D+00          E(Z)=    -0.59929916711D+03
 NORM(A)=   0.11079710D+01
 Iteration Nr.  18
 **********************
 DD1Dir will call FoFMem   1 times, MxPair=       132
 NAB=    66 NAA=     0 NBB=     0.
 DE(Z)  -0.68210083D+00          E(Z)=    -0.59929916710D+03
 NORM(A)=   0.11079710D+01
 Iteration Nr.  19
 **********************
 DD1Dir will call FoFMem   1 times, MxPair=       132
 NAB=    66 NAA=     0 NBB=     0.
 DE(Z)  -0.68210083D+00          E(Z)=    -0.59929916710D+03
 NORM(A)=   0.11079710D+01
 Iteration Nr.  20
 **********************
 DD1Dir will call FoFMem   1 times, MxPair=       132
 NAB=    66 NAA=     0 NBB=     0.
 DE(Z)  -0.68210083D+00          E(Z)=    -0.59929916709D+03
 NORM(A)=   0.11079710D+01
 Iteration Nr.  21
 **********************
 DD1Dir will call FoFMem   1 times, MxPair=       132
 NAB=    66 NAA=     0 NBB=     0.
 DE(Z)  -0.68210083D+00          E(Z)=    -0.59929916709D+03
 NORM(A)=   0.11079710D+01
 Discarding MO integrals.
          Differentiating once with respect to electric field.
                with respect to dipole field.
          Electric field/nuclear overlap derivatives assumed to be zero.
          Keep R1 ints in memory in canonical form, NReq=448662239.
          There are     1 degrees of freedom in the 1st order CPHF.  IDoFFX=0.
 LinEq1:  Iter=  0 NonCon=     1 RMS=3.11D-03 Max=1.20D-01
 AX will form     1 AO Fock derivatives at one time.
 LinEq1:  Iter=  1 NonCon=     1 RMS=6.96D-04 Max=9.49D-03
 LinEq1:  Iter=  2 NonCon=     1 RMS=2.30D-04 Max=5.74D-03
 LinEq1:  Iter=  3 NonCon=     1 RMS=9.49D-05 Max=1.22D-03
 LinEq1:  Iter=  4 NonCon=     1 RMS=3.85D-05 Max=4.12D-04
 LinEq1:  Iter=  5 NonCon=     1 RMS=1.07D-05 Max=2.27D-04
 LinEq1:  Iter=  6 NonCon=     1 RMS=2.43D-06 Max=4.27D-05
 LinEq1:  Iter=  7 NonCon=     1 RMS=6.08D-07 Max=9.16D-06
 LinEq1:  Iter=  8 NonCon=     1 RMS=1.50D-07 Max=1.81D-06
 LinEq1:  Iter=  9 NonCon=     1 RMS=3.05D-08 Max=7.51D-07
 LinEq1:  Iter= 10 NonCon=     1 RMS=6.57D-09 Max=8.15D-08
 LinEq1:  Iter= 11 NonCon=     1 RMS=1.06D-09 Max=1.16D-08
 LinEq1:  Iter= 12 NonCon=     1 RMS=1.69D-10 Max=2.85D-09
 LinEq1:  Iter= 13 NonCon=     0 RMS=2.41D-11 Max=3.23D-10
 Linear equations converged to 1.000D-10 1.000D-09 after    13 iterations.
 End of Minotr Frequency-dependent properties file   721 does not exist.
 End of Minotr Frequency-dependent properties file   722 does not exist.

 **********************************************************************

            Population analysis using the QCI/CC density.

 **********************************************************************

     Natural Orbital Coefficients:
                           1         2         3         4         5
     Eigenvalues --     2.00003   2.00003   2.00002   2.00001   2.00001
   1 1   C  1S          0.00004   0.00001  -0.04333   0.07936   0.97627
   2        2S          0.00000   0.00000   0.00131   0.00052  -0.01332
   3        3S          0.00000   0.00000  -0.00132   0.00396   0.03982
   4        4S         -0.00015  -0.00005  -0.01260  -0.02348   0.00321
   5        5S         -0.00001   0.00000  -0.00119  -0.00060  -0.00058
   6        6PX         0.00003  -0.00004   0.00000   0.00000   0.00003
   7        6PY         0.00004   0.00004   0.00000   0.00000   0.00002
   8        6PZ         0.00000   0.00000   0.00053   0.00168   0.00087
   9        7PX         0.00057  -0.00061   0.00002   0.00004  -0.00005
  10        7PY         0.00059   0.00059   0.00002   0.00002  -0.00005
  11        7PZ        -0.00001   0.00000   0.00141   0.00303  -0.00090
  12        8PX         0.00314  -0.00327   0.00003   0.00007  -0.00005
  13        8PY         0.00323   0.00318   0.00004   0.00006  -0.00006
  14        8PZ         0.00001   0.00000  -0.00372  -0.00409  -0.00310
  15        9PX         0.00029  -0.00030   0.00000   0.00000   0.00000
  16        9PY         0.00031   0.00030   0.00000   0.00000   0.00000
  17        9PZ         0.00000   0.00000   0.00021   0.00017  -0.00049
  18       10D 0        0.00000   0.00000   0.00011   0.00033  -0.00057
  19       10D+1       -0.00011   0.00011   0.00000   0.00000   0.00000
  20       10D-1       -0.00011  -0.00011   0.00000   0.00000   0.00000
  21       10D+2        0.00003   0.00003   0.00000   0.00000   0.00000
  22       10D-2        0.00003  -0.00003   0.00000   0.00000  -0.00001
  23       11D 0        0.00001   0.00001   0.00022  -0.00008  -0.00031
  24       11D+1        0.00017  -0.00018  -0.00001  -0.00001   0.00002
  25       11D-1        0.00018   0.00018   0.00000  -0.00001   0.00001
  26       11D+2        0.00072   0.00070   0.00001   0.00001  -0.00003
  27       11D-2        0.00069  -0.00072   0.00001   0.00002  -0.00003
  28       12D 0        0.00000  -0.00002  -0.00078   0.00122  -0.00234
  29       12D+1       -0.00091   0.00094   0.00000   0.00001   0.00000
  30       12D-1       -0.00093  -0.00091   0.00001   0.00001  -0.00001
  31       12D+2        0.00116   0.00112   0.00001   0.00001  -0.00002
  32       12D-2        0.00112  -0.00117   0.00000   0.00002  -0.00001
  33       13F 0        0.00000   0.00000   0.00001   0.00003   0.00019
  34       13F+1       -0.00013   0.00014   0.00000   0.00000   0.00000
  35       13F-1       -0.00014  -0.00013   0.00000   0.00000   0.00000
  36       13F+2        0.00001   0.00001   0.00000   0.00000   0.00000
  37       13F-2        0.00001  -0.00001   0.00000   0.00000   0.00000
  38       13F+3        0.00000   0.00000   0.00000   0.00000   0.00000
  39       13F-3        0.00000   0.00000  -0.00006   0.00007   0.00090
  40       14F 0        0.00000   0.00000  -0.00112  -0.00215  -0.00020
  41       14F+1        0.00040  -0.00041   0.00000   0.00000   0.00000
  42       14F-1        0.00041   0.00040   0.00000   0.00000   0.00001
  43       14F+2        0.00024   0.00023   0.00000   0.00000   0.00001
  44       14F-2        0.00024  -0.00024   0.00000  -0.00001   0.00001
  45       14F+3        0.00001  -0.00001   0.00000  -0.00001  -0.00001
  46       14F-3       -0.00001  -0.00001  -0.00086  -0.00136  -0.00188
  47 2   H  1S         -0.00011  -0.00011  -0.00002  -0.00035  -0.00135
  48        2S          0.00086   0.00085   0.00247   0.00335  -0.00079
  49        3S          0.00620   0.00604   0.00188   0.00537  -0.00447
  50        4S         -0.00019  -0.00019   0.00011   0.00009  -0.00013
  51        5PX         0.00000   0.00000   0.00000   0.00000   0.00000
  52        5PY         0.00002   0.00002   0.00004  -0.00003  -0.00048
  53        5PZ         0.00001   0.00001   0.00001   0.00002  -0.00009
  54        6PX         0.00014  -0.00014   0.00000   0.00000  -0.00001
  55        6PY         0.00047   0.00046   0.00047   0.00071  -0.00084
  56        6PZ         0.00044   0.00043  -0.00001  -0.00010   0.00023
  57        7PX         0.00064  -0.00067   0.00000   0.00001  -0.00001
  58        7PY         0.00149   0.00147   0.00055   0.00138  -0.00105
  59        7PZ         0.00019   0.00019   0.00048   0.00093  -0.00007
  60        8D 0        0.00003   0.00003   0.00001   0.00006   0.00014
  61        8D+1       -0.00001   0.00001   0.00000   0.00000   0.00000
  62        8D-1        0.00007   0.00007   0.00002   0.00005  -0.00004
  63        8D+2       -0.00003  -0.00003  -0.00004  -0.00005   0.00028
  64        8D-2        0.00001  -0.00001   0.00000   0.00000   0.00000
  65        9D 0        0.00028   0.00027   0.00015   0.00025   0.00062
  66        9D+1        0.00017  -0.00018   0.00000   0.00000   0.00000
  67        9D-1        0.00009   0.00009  -0.00014  -0.00026   0.00001
  68        9D+2       -0.00009  -0.00009   0.00001   0.00002  -0.00009
  69        9D-2        0.00008  -0.00009   0.00000   0.00000   0.00000
  70 3   H  1S         -0.00004   0.00015  -0.00002  -0.00035  -0.00135
  71        2S          0.00030  -0.00114   0.00246   0.00335  -0.00076
  72        3S          0.00211  -0.00841   0.00183   0.00535  -0.00442
  73        4S         -0.00007   0.00026   0.00011   0.00010  -0.00014
  74        5PX         0.00001  -0.00003   0.00004  -0.00002  -0.00042
  75        5PY         0.00000   0.00002  -0.00002   0.00001   0.00024
  76        5PZ         0.00000  -0.00001   0.00001   0.00002  -0.00009
  77        6PX         0.00023  -0.00053   0.00040   0.00062  -0.00072
  78        6PY         0.00008   0.00036  -0.00023  -0.00035   0.00041
  79        6PZ         0.00015  -0.00060  -0.00001  -0.00010   0.00024
  80        7PX         0.00088  -0.00165   0.00047   0.00119  -0.00091
  81        7PY         0.00051   0.00120  -0.00026  -0.00067   0.00050
  82        7PZ         0.00006  -0.00026   0.00047   0.00092  -0.00006
  83        8D 0        0.00001  -0.00004   0.00001   0.00006   0.00014
  84        8D+1        0.00001  -0.00008   0.00002   0.00004  -0.00003
  85        8D-1       -0.00002   0.00004  -0.00001  -0.00002   0.00002
  86        8D+2        0.00001  -0.00002   0.00002   0.00003  -0.00014
  87        8D-2       -0.00001   0.00004  -0.00004  -0.00005   0.00024
  88        9D 0        0.00010  -0.00037   0.00015   0.00025   0.00062
  89        9D+1        0.00015  -0.00008  -0.00012  -0.00022   0.00001
  90        9D-1        0.00019   0.00011   0.00007   0.00013   0.00000
  91        9D+2        0.00011  -0.00004   0.00000  -0.00001   0.00004
  92        9D-2        0.00003   0.00012   0.00001   0.00002  -0.00008
  93 4   H  1S          0.00015  -0.00004  -0.00002  -0.00035  -0.00130
  94        2S         -0.00109   0.00034   0.00240   0.00325  -0.00057
  95        3S         -0.00819   0.00237   0.00172   0.00506  -0.00417
  96        4S          0.00026  -0.00008   0.00011   0.00009  -0.00013
  97        5PX         0.00003  -0.00001  -0.00004   0.00003   0.00041
  98        5PY         0.00002   0.00000  -0.00002   0.00001   0.00023
  99        5PZ        -0.00001   0.00000   0.00001   0.00001  -0.00008
 100        6PX         0.00052  -0.00025  -0.00040  -0.00060   0.00063
 101        6PY         0.00035   0.00006  -0.00022  -0.00034   0.00037
 102        6PZ        -0.00058   0.00017   0.00000  -0.00009   0.00023
 103        7PX         0.00161  -0.00094  -0.00045  -0.00113   0.00084
 104        7PY         0.00120   0.00047  -0.00025  -0.00065   0.00047
 105        7PZ        -0.00026   0.00007   0.00046   0.00090  -0.00005
 106        8D 0       -0.00003   0.00001   0.00001   0.00007   0.00015
 107        8D+1        0.00008  -0.00002  -0.00002  -0.00004   0.00004
 108        8D-1        0.00004  -0.00003  -0.00001  -0.00002   0.00002
 109        8D+2       -0.00002   0.00001   0.00002   0.00003  -0.00015
 110        8D-2       -0.00004   0.00001   0.00004   0.00004  -0.00025
 111        9D 0       -0.00037   0.00011   0.00015   0.00025   0.00060
 112        9D+1        0.00007  -0.00015   0.00012   0.00022  -0.00001
 113        9D-1        0.00012   0.00019   0.00007   0.00012   0.00000
 114        9D+2       -0.00004   0.00011  -0.00001  -0.00001   0.00005
 115        9D-2       -0.00012  -0.00002  -0.00001  -0.00002   0.00010
 116 5   Cl 1S         -0.00009   0.00000  -0.25066   0.14790  -0.02268
 117        2S          0.00029  -0.00001   0.84614  -0.49996   0.07776
 118        3S         -0.00001   0.00000  -0.02309   0.00933  -0.00238
 119        4S          0.00002   0.00000   0.06657  -0.04073   0.00639
 120        5S         -0.00001   0.00001  -0.00211   0.00776   0.00350
 121        6S          0.00000   0.00001  -0.00155  -0.00214   0.00299
 122        7PX         0.68212  -0.70206   0.00005   0.00048  -0.00006
 123        7PY         0.70206   0.68212   0.00015   0.00064  -0.00009
 124        7PZ        -0.00076  -0.00012   0.50048   0.83617  -0.04635
 125        8PX        -0.01334   0.01373   0.00000  -0.00001   0.00000
 126        8PY        -0.01373  -0.01334   0.00000  -0.00001   0.00000
 127        8PZ         0.00002   0.00000  -0.00877  -0.01404   0.00009
 128        9PX         0.03647  -0.03754   0.00000   0.00003   0.00000
 129        9PY         0.03753   0.03647   0.00001   0.00004   0.00000
 130        9PZ        -0.00004  -0.00001   0.02841   0.04955  -0.00263
 131       10PX        -0.00403   0.00414   0.00000   0.00000   0.00000
 132       10PY        -0.00415  -0.00403   0.00000   0.00000   0.00000
 133       10PZ         0.00001   0.00000  -0.00434  -0.00274  -0.00346
 134       11PX        -0.00150   0.00154   0.00000   0.00000   0.00000
 135       11PY        -0.00154  -0.00150   0.00000   0.00000   0.00000
 136       11PZ         0.00000   0.00000  -0.00036  -0.00014  -0.00053
 137       12D 0        0.00000   0.00000   0.00001  -0.00051  -0.00017
 138       12D+1       -0.00022   0.00023   0.00000   0.00000   0.00000
 139       12D-1       -0.00023  -0.00022   0.00000   0.00000   0.00000
 140       12D+2        0.00001   0.00001   0.00000   0.00000   0.00000
 141       12D-2        0.00001  -0.00001   0.00000   0.00000   0.00000
 142       13D 0        0.00000   0.00000   0.00087   0.00243   0.00042
 143       13D+1        0.00056  -0.00058   0.00000   0.00000   0.00000
 144       13D-1        0.00058   0.00056   0.00000   0.00000   0.00000
 145       13D+2       -0.00001  -0.00001   0.00000   0.00000   0.00000
 146       13D-2       -0.00001   0.00001   0.00000   0.00000   0.00000
 147       14D 0        0.00000   0.00000   0.00058  -0.00018   0.00080
 148       14D+1       -0.00050   0.00051   0.00000   0.00000   0.00000
 149       14D-1       -0.00051  -0.00050   0.00000   0.00000   0.00000
 150       14D+2        0.00002   0.00002   0.00000   0.00000   0.00000
 151       14D-2        0.00002  -0.00002   0.00000   0.00000   0.00000
 152       15F 0        0.00000   0.00000   0.00001  -0.00007  -0.00003
 153       15F+1        0.00000   0.00000   0.00000   0.00000   0.00000
 154       15F-1        0.00000   0.00000   0.00000   0.00000   0.00000
 155       15F+2        0.00002   0.00002   0.00000   0.00000   0.00000
 156       15F-2        0.00002  -0.00002   0.00000   0.00000   0.00000
 157       15F+3        0.00000   0.00000   0.00000   0.00000   0.00000
 158       15F-3        0.00000   0.00000   0.00001   0.00003   0.00000
 159       16F 0        0.00000   0.00000  -0.00031  -0.00058  -0.00031
 160       16F+1       -0.00016   0.00016   0.00000   0.00000   0.00000
 161       16F-1       -0.00016  -0.00016   0.00000   0.00000   0.00000
 162       16F+2       -0.00003  -0.00002   0.00000   0.00000   0.00000
 163       16F-2       -0.00002   0.00003   0.00000   0.00000   0.00000
 164       16F+3        0.00000   0.00000   0.00000   0.00000   0.00000
 165       16F-3        0.00000   0.00000  -0.00002  -0.00005   0.00002
 166 6   F  1S          0.00000   0.00000  -0.00144  -0.01040  -0.04984
 167        2S          0.00000   0.00000   0.00020   0.00043   0.00080
 168        3S          0.00000   0.00000  -0.00007  -0.00045  -0.00203
 169        4S          0.00000   0.00001  -0.00054  -0.00105   0.00055
 170        5S          0.00000   0.00001   0.00011  -0.00168   0.00176
 171        6PX        -0.00003   0.00003   0.00000   0.00000   0.00000
 172        6PY        -0.00003  -0.00003   0.00000   0.00000   0.00000
 173        6PZ         0.00000   0.00000   0.00058   0.00111   0.00011
 174        7PX         0.00000   0.00000   0.00000   0.00000   0.00000
 175        7PY         0.00000   0.00000   0.00000   0.00000   0.00000
 176        7PZ         0.00000   0.00000   0.00069   0.00132   0.00002
 177        8PX        -0.00017   0.00018   0.00000   0.00000   0.00000
 178        8PY        -0.00018  -0.00017   0.00000   0.00000   0.00000
 179        8PZ         0.00000   0.00000   0.00008   0.00017   0.00048
 180        9PX        -0.00025   0.00026   0.00000   0.00000   0.00000
 181        9PY        -0.00026  -0.00025   0.00000   0.00000   0.00000
 182        9PZ         0.00000   0.00000   0.00017  -0.00009   0.00071
 183       10D 0        0.00000   0.00000   0.00001   0.00001  -0.00002
 184       10D+1        0.00000   0.00000   0.00000   0.00000   0.00000
 185       10D-1        0.00000   0.00000   0.00000   0.00000   0.00000
 186       10D+2        0.00000   0.00000   0.00000   0.00000   0.00000
 187       10D-2        0.00000   0.00000   0.00000   0.00000   0.00000
 188       11D 0        0.00000   0.00000  -0.00003  -0.00010   0.00001
 189       11D+1        0.00003  -0.00003   0.00000   0.00000   0.00000
 190       11D-1        0.00003   0.00003   0.00000   0.00000   0.00000
 191       11D+2       -0.00002  -0.00002   0.00000   0.00000   0.00000
 192       11D-2       -0.00002   0.00002   0.00000   0.00000   0.00000
 193       12D 0        0.00000   0.00000  -0.00019  -0.00012   0.00012
 194       12D+1       -0.00016   0.00016   0.00000   0.00000   0.00000
 195       12D-1       -0.00016  -0.00016   0.00000   0.00000   0.00000
 196       12D+2        0.00008   0.00008   0.00000   0.00000   0.00000
 197       12D-2        0.00007  -0.00008   0.00000   0.00000   0.00000
 198       13F 0        0.00000   0.00000   0.00001  -0.00001  -0.00004
 199       13F+1        0.00001  -0.00001   0.00000   0.00000   0.00000
 200       13F-1        0.00001   0.00001   0.00000   0.00000   0.00000
 201       13F+2       -0.00001  -0.00001   0.00000   0.00000   0.00000
 202       13F-2       -0.00001   0.00001   0.00000   0.00000   0.00000
 203       13F+3        0.00000   0.00000   0.00000   0.00000   0.00000
 204       13F-3        0.00000   0.00000   0.00000   0.00000   0.00000
 205       14F 0        0.00000   0.00000  -0.00004   0.00002   0.00013
 206       14F+1       -0.00004   0.00004   0.00000   0.00000   0.00000
 207       14F-1       -0.00004  -0.00004   0.00000   0.00000   0.00000
 208       14F+2        0.00003   0.00003   0.00000   0.00000   0.00000
 209       14F-2        0.00003  -0.00003   0.00000   0.00000   0.00000
 210       14F+3        0.00000   0.00000   0.00000   0.00000   0.00000
 211       14F-3        0.00000   0.00000   0.00000  -0.00001  -0.00001
                           6         7         8         9        10
     Eigenvalues --     2.00000   2.00000   1.98361   1.97541   1.96941
   1 1   C  1S          0.05045  -0.00046   0.01532  -0.07252  -0.14399
   2        2S         -0.00012  -0.00001  -0.04173   0.19679   0.39811
   3        3S          0.00230  -0.00003  -0.01034   0.04562   0.09629
   4        4S         -0.00696   0.00016   0.00576   0.07805   0.19116
   5        5S         -0.00015   0.00010   0.00784  -0.00668  -0.02891
   6        6PX         0.00000   0.00000   0.00012  -0.00086  -0.00324
   7        6PY         0.00000   0.00000   0.00008  -0.00060  -0.00234
   8        6PZ         0.00004   0.00000   0.00645   0.01052  -0.02709
   9        7PX         0.00001   0.00000   0.00016  -0.00106  -0.00409
  10        7PY         0.00000   0.00000   0.00013  -0.00077  -0.00302
  11        7PZ        -0.00074   0.00000   0.00704   0.01813  -0.03228
  12        8PX        -0.00001   0.00000   0.00009  -0.00075  -0.00285
  13        8PY         0.00001   0.00000   0.00002  -0.00032  -0.00175
  14        8PZ         0.00517   0.00009   0.01653   0.00594  -0.02273
  15        9PX         0.00000   0.00000   0.00001  -0.00002  -0.00014
  16        9PY         0.00000   0.00000  -0.00001   0.00001  -0.00004
  17        9PZ         0.00011   0.00001  -0.00071   0.00035  -0.00407
  18       10D 0        0.00004   0.00000   0.00050  -0.00207  -0.00954
  19       10D+1        0.00000   0.00000   0.00000   0.00002   0.00005
  20       10D-1        0.00000   0.00000   0.00000   0.00001   0.00004
  21       10D+2        0.00000   0.00000   0.00000  -0.00002  -0.00012
  22       10D-2        0.00000   0.00000   0.00001  -0.00008  -0.00025
  23       11D 0       -0.00023  -0.00002  -0.00530   0.00472  -0.01871
  24       11D+1        0.00000   0.00000  -0.00003   0.00004   0.00008
  25       11D-1        0.00000   0.00000  -0.00003   0.00004   0.00006
  26       11D+2        0.00000   0.00000   0.00004  -0.00007  -0.00031
  27       11D-2        0.00000   0.00000   0.00005  -0.00021  -0.00070
  28       12D 0        0.00027   0.00008   0.00206  -0.00831  -0.01672
  29       12D+1        0.00000   0.00000  -0.00002  -0.00001   0.00000
  30       12D-1       -0.00001   0.00000  -0.00002  -0.00004  -0.00003
  31       12D+2        0.00000   0.00000   0.00006  -0.00010  -0.00033
  32       12D-2       -0.00001   0.00000   0.00001  -0.00017  -0.00051
  33       13F 0       -0.00007   0.00000   0.00001   0.00242   0.00066
  34       13F+1        0.00000   0.00000   0.00000  -0.00001   0.00000
  35       13F-1        0.00000   0.00000   0.00000   0.00000   0.00001
  36       13F+2        0.00000   0.00000   0.00000   0.00000  -0.00001
  37       13F-2        0.00000   0.00000   0.00000   0.00000   0.00000
  38       13F+3        0.00000   0.00000   0.00000   0.00001   0.00002
  39       13F-3        0.00001   0.00000  -0.00014   0.00194   0.00403
  40       14F 0        0.00126  -0.00001   0.00470   0.00261  -0.00198
  41       14F+1        0.00000   0.00000   0.00000   0.00003   0.00007
  42       14F-1        0.00000   0.00000   0.00001   0.00001   0.00004
  43       14F+2        0.00000   0.00000  -0.00002   0.00001   0.00002
  44       14F-2        0.00000   0.00000  -0.00001   0.00002   0.00005
  45       14F+3        0.00000   0.00000   0.00001  -0.00001   0.00002
  46       14F-3       -0.00044   0.00003   0.00190  -0.00103   0.00401
  47 2   H  1S         -0.00008   0.00000  -0.00856   0.03704   0.08208
  48        2S          0.00098  -0.00006  -0.01526   0.04356   0.08525
  49        3S          0.00181   0.00004  -0.00085  -0.00504  -0.01300
  50        4S          0.00003   0.00000  -0.00048   0.00052   0.00039
  51        5PX         0.00000   0.00000   0.00000  -0.00001  -0.00005
  52        5PY         0.00001   0.00000  -0.00109   0.00397   0.00876
  53        5PZ        -0.00004   0.00000   0.00028   0.00095   0.00036
  54        6PX         0.00000   0.00000   0.00002  -0.00006  -0.00018
  55        6PY         0.00008   0.00000  -0.00071   0.00075   0.00109
  56        6PZ         0.00032  -0.00001   0.00006   0.00244  -0.00048
  57        7PX        -0.00001   0.00000   0.00000  -0.00009  -0.00022
  58        7PY         0.00044   0.00001   0.00135  -0.00496  -0.01067
  59        7PZ        -0.00056   0.00001  -0.00281  -0.00175  -0.00137
  60        8D 0        0.00006   0.00000   0.00014  -0.00035  -0.00093
  61        8D+1        0.00000   0.00000   0.00000   0.00000   0.00000
  62        8D-1       -0.00001   0.00000  -0.00015   0.00049   0.00024
  63        8D+2       -0.00002   0.00000   0.00003  -0.00054  -0.00138
  64        8D-2        0.00000   0.00000   0.00000  -0.00001  -0.00003
  65        9D 0        0.00009  -0.00001  -0.00006   0.00122   0.00101
  66        9D+1        0.00000   0.00000   0.00000   0.00000   0.00001
  67        9D-1        0.00014   0.00000  -0.00006   0.00004  -0.00038
  68        9D+2        0.00004   0.00000  -0.00099   0.00224   0.00420
  69        9D-2        0.00000   0.00000   0.00000  -0.00002  -0.00004
  70 3   H  1S         -0.00008   0.00000  -0.00856   0.03699   0.08175
  71        2S          0.00097  -0.00006  -0.01530   0.04348   0.08487
  72        3S          0.00178   0.00004  -0.00092  -0.00531  -0.01316
  73        4S          0.00003   0.00000  -0.00046   0.00048   0.00031
  74        5PX         0.00001   0.00000  -0.00094   0.00342   0.00753
  75        5PY        -0.00001   0.00000   0.00054  -0.00199  -0.00442
  76        5PZ        -0.00004   0.00000   0.00028   0.00096   0.00036
  77        6PX         0.00007   0.00000  -0.00063   0.00065   0.00090
  78        6PY        -0.00004   0.00000   0.00038  -0.00041  -0.00073
  79        6PZ         0.00032  -0.00001   0.00008   0.00243  -0.00049
  80        7PX         0.00037   0.00001   0.00118  -0.00439  -0.00934
  81        7PY        -0.00022   0.00000  -0.00064   0.00242   0.00511
  82        7PZ        -0.00055   0.00001  -0.00280  -0.00173  -0.00136
  83        8D 0        0.00006   0.00000   0.00014  -0.00035  -0.00093
  84        8D+1       -0.00001   0.00000  -0.00013   0.00043   0.00021
  85        8D-1        0.00000   0.00000   0.00007  -0.00025  -0.00013
  86        8D+2        0.00001   0.00000  -0.00002   0.00026   0.00067
  87        8D-2       -0.00001   0.00000   0.00003  -0.00047  -0.00121
  88        9D 0        0.00008  -0.00001  -0.00006   0.00121   0.00099
  89        9D+1        0.00012   0.00000  -0.00005   0.00003  -0.00033
  90        9D-1       -0.00007   0.00000   0.00003  -0.00002   0.00020
  91        9D+2       -0.00002   0.00000   0.00049  -0.00111  -0.00210
  92        9D-2        0.00003   0.00000  -0.00084   0.00193   0.00360
  93 4   H  1S         -0.00008   0.00000  -0.00835   0.03573   0.07744
  94        2S          0.00097  -0.00006  -0.01531   0.04295   0.08198
  95        3S          0.00179   0.00004  -0.00103  -0.00408  -0.00972
  96        4S          0.00003   0.00000  -0.00047   0.00051   0.00046
  97        5PX        -0.00001   0.00000   0.00092  -0.00332  -0.00720
  98        5PY        -0.00001   0.00000   0.00053  -0.00190  -0.00412
  99        5PZ        -0.00004   0.00000   0.00028   0.00093   0.00031
 100        6PX        -0.00007   0.00000   0.00075  -0.00093  -0.00150
 101        6PY        -0.00004   0.00000   0.00042  -0.00050  -0.00085
 102        6PZ         0.00031  -0.00001   0.00010   0.00240  -0.00051
 103        7PX        -0.00037  -0.00001  -0.00115   0.00405   0.00834
 104        7PY        -0.00021   0.00000  -0.00061   0.00230   0.00473
 105        7PZ        -0.00053   0.00001  -0.00275  -0.00165  -0.00120
 106        8D 0        0.00006   0.00000   0.00014  -0.00034  -0.00088
 107        8D+1        0.00001   0.00000   0.00012  -0.00042  -0.00019
 108        8D-1        0.00000   0.00000   0.00007  -0.00024  -0.00011
 109        8D+2        0.00001   0.00000  -0.00002   0.00027   0.00067
 110        8D-2        0.00001   0.00000  -0.00003   0.00045   0.00114
 111        9D 0        0.00009  -0.00001  -0.00005   0.00118   0.00096
 112        9D+1       -0.00012   0.00000   0.00005  -0.00004   0.00032
 113        9D-1       -0.00007   0.00000   0.00002  -0.00002   0.00018
 114        9D+2       -0.00002   0.00000   0.00048  -0.00109  -0.00203
 115        9D-2       -0.00003   0.00000   0.00082  -0.00187  -0.00348
 116 5   Cl 1S          0.00007   0.99708  -0.00063   0.06668  -0.03441
 117        2S         -0.00008   0.01040   0.00289  -0.25267   0.12931
 118        3S          0.00005   0.00017  -0.00385   0.52627  -0.27522
 119        4S          0.00008   0.00026  -0.00024   0.06449  -0.03711
 120        5S         -0.00180  -0.00020  -0.01225   0.35193  -0.16853
 121        6S         -0.00050  -0.00011  -0.00461   0.02446   0.01145
 122        7PX         0.00000   0.00000   0.00000   0.00003   0.00018
 123        7PY         0.00000   0.00000   0.00000   0.00002   0.00015
 124        7PZ         0.00735   0.00016   0.00153   0.00447   0.02897
 125        8PX         0.00000   0.00000   0.00001  -0.00008  -0.00044
 126        8PY         0.00000   0.00000   0.00000  -0.00006  -0.00037
 127        8PZ         0.00051  -0.00003  -0.00229  -0.00572  -0.07243
 128        9PX         0.00000   0.00000   0.00000  -0.00003  -0.00019
 129        9PY         0.00000   0.00000   0.00000  -0.00002  -0.00016
 130        9PZ         0.00032   0.00003  -0.00265   0.00081  -0.03155
 131       10PX         0.00000   0.00000   0.00000  -0.00002  -0.00013
 132       10PY         0.00000   0.00000   0.00000  -0.00001  -0.00014
 133       10PZ         0.00095   0.00015   0.00270   0.00323  -0.05259
 134       11PX         0.00000   0.00000   0.00000   0.00000   0.00002
 135       11PY         0.00000   0.00000   0.00000   0.00000   0.00000
 136       11PZ         0.00002   0.00002  -0.00040   0.00267  -0.00877
 137       12D 0       -0.00003   0.00001  -0.00035   0.00446   0.00457
 138       12D+1        0.00000   0.00000   0.00000   0.00002   0.00007
 139       12D-1        0.00000   0.00000   0.00000   0.00001   0.00005
 140       12D+2        0.00000   0.00000   0.00000   0.00000   0.00000
 141       12D-2        0.00000   0.00000   0.00000   0.00000  -0.00001
 142       13D 0       -0.00022   0.00000  -0.00162   0.00815   0.00977
 143       13D+1        0.00000   0.00000   0.00000   0.00003   0.00011
 144       13D-1        0.00000   0.00000   0.00000   0.00003   0.00008
 145       13D+2        0.00000   0.00000   0.00000   0.00000  -0.00001
 146       13D-2        0.00000   0.00000   0.00000   0.00000  -0.00001
 147       14D 0       -0.00014  -0.00004  -0.00184  -0.00020   0.00541
 148       14D+1        0.00000   0.00000   0.00000   0.00000  -0.00001
 149       14D-1        0.00000   0.00000   0.00000   0.00000   0.00000
 150       14D+2        0.00000   0.00000   0.00000   0.00001   0.00001
 151       14D-2        0.00000   0.00000   0.00000   0.00000   0.00001
 152       15F 0        0.00005   0.00000   0.00023  -0.00179  -0.00193
 153       15F+1        0.00000   0.00000   0.00000  -0.00001  -0.00003
 154       15F-1        0.00000   0.00000   0.00000  -0.00001  -0.00002
 155       15F+2        0.00000   0.00000   0.00000   0.00000   0.00000
 156       15F-2        0.00000   0.00000   0.00000   0.00000   0.00000
 157       15F+3        0.00000   0.00000   0.00000   0.00000   0.00000
 158       15F-3       -0.00001   0.00000  -0.00001   0.00002   0.00009
 159       16F 0       -0.00005   0.00001   0.00005  -0.00093  -0.00173
 160       16F+1        0.00000   0.00000   0.00000   0.00000  -0.00001
 161       16F-1        0.00000   0.00000   0.00000   0.00000  -0.00001
 162       16F+2        0.00000   0.00000   0.00000   0.00000   0.00000
 163       16F-2        0.00000   0.00000   0.00000   0.00000  -0.00001
 164       16F+3        0.00000   0.00000   0.00000   0.00000   0.00000
 165       16F-3        0.00003   0.00000   0.00002   0.00000  -0.00020
 166 6   F  1S          0.97742  -0.00002   0.21190   0.01295   0.02157
 167        2S         -0.01503   0.00000  -0.53164  -0.03352  -0.05722
 168        3S          0.04206   0.00000  -0.16472  -0.01065  -0.01850
 169        4S          0.00192  -0.00001  -0.36879  -0.02326  -0.04386
 170        5S         -0.00084  -0.00006  -0.04529   0.00417   0.00785
 171        6PX         0.00000   0.00000  -0.00001  -0.00013  -0.00110
 172        6PY         0.00000   0.00000  -0.00001  -0.00009  -0.00080
 173        6PZ         0.00048   0.00000   0.01354   0.01235   0.08796
 174        7PX         0.00000   0.00000  -0.00001  -0.00016  -0.00133
 175        7PY         0.00000   0.00000  -0.00002  -0.00011  -0.00096
 176        7PZ        -0.00012   0.00000   0.01477   0.01509   0.10582
 177        8PX         0.00000   0.00000  -0.00001  -0.00011  -0.00101
 178        8PY         0.00000   0.00000  -0.00001  -0.00008  -0.00074
 179        8PZ         0.00240  -0.00001   0.01248   0.01193   0.08419
 180        9PX         0.00000   0.00000  -0.00001  -0.00002  -0.00027
 181        9PY         0.00000   0.00000   0.00000  -0.00002  -0.00020
 182        9PZ        -0.00008  -0.00002   0.00220   0.00306   0.02438
 183       10D 0       -0.00002   0.00000  -0.00013   0.00017   0.00060
 184       10D+1        0.00000   0.00000   0.00000   0.00000  -0.00001
 185       10D-1        0.00000   0.00000   0.00000   0.00000   0.00000
 186       10D+2        0.00000   0.00000   0.00000   0.00000   0.00000
 187       10D-2        0.00000   0.00000   0.00000   0.00000   0.00000
 188       11D 0       -0.00003   0.00000  -0.00104   0.00089   0.00276
 189       11D+1        0.00000   0.00000   0.00000  -0.00001  -0.00003
 190       11D-1        0.00000   0.00000   0.00000   0.00000  -0.00002
 191       11D+2        0.00000   0.00000   0.00000   0.00000   0.00000
 192       11D-2        0.00000   0.00000   0.00000   0.00000   0.00000
 193       12D 0        0.00080   0.00000  -0.00055   0.00034   0.00389
 194       12D+1        0.00000   0.00000   0.00000   0.00001  -0.00001
 195       12D-1        0.00000   0.00000   0.00000   0.00000  -0.00001
 196       12D+2        0.00000   0.00000   0.00000   0.00000   0.00001
 197       12D-2        0.00000   0.00000   0.00000   0.00001   0.00001
 198       13F 0       -0.00006   0.00000  -0.00002   0.00013   0.00027
 199       13F+1        0.00000   0.00000   0.00000   0.00000   0.00000
 200       13F-1        0.00000   0.00000   0.00000   0.00000   0.00000
 201       13F+2        0.00000   0.00000   0.00000   0.00000   0.00000
 202       13F-2        0.00000   0.00000   0.00000   0.00000   0.00000
 203       13F+3        0.00000   0.00000   0.00000   0.00000   0.00000
 204       13F-3        0.00001   0.00000   0.00001   0.00002   0.00003
 205       14F 0        0.00020   0.00000  -0.00040  -0.00006   0.00063
 206       14F+1        0.00000   0.00000   0.00000   0.00000   0.00000
 207       14F-1        0.00000   0.00000   0.00000   0.00000   0.00000
 208       14F+2        0.00000   0.00000   0.00000   0.00000   0.00000
 209       14F-2        0.00000   0.00000   0.00000   0.00000   0.00001
 210       14F+3        0.00000   0.00000   0.00000   0.00000   0.00000
 211       14F-3       -0.00001   0.00000  -0.00007  -0.00006  -0.00009
                          11        12        13        14        15
     Eigenvalues --     1.96436   1.96433   1.95922   1.95900   1.94910
   1 1   C  1S         -0.00009  -0.00138  -0.00007  -0.00144   0.00012
   2        2S          0.00027   0.00379   0.00024   0.00390  -0.00035
   3        3S          0.00007   0.00083   0.00007   0.00075  -0.00008
   4        4S          0.00036   0.00081   0.00056  -0.00137  -0.00053
   5        5S          0.00007  -0.00058   0.00023  -0.00103  -0.00003
   6        6PX        -0.05377   0.07800  -0.13165   0.19023  -0.03706
   7        6PY         0.08158   0.05107   0.18998   0.13207   0.05710
   8        6PZ        -0.00005  -0.00021  -0.00008  -0.00023  -0.00014
   9        7PX        -0.07209   0.10467  -0.17455   0.25217  -0.05152
  10        7PY         0.10936   0.06853   0.25191   0.17508   0.07937
  11        7PZ        -0.00007  -0.00018  -0.00010  -0.00032  -0.00020
  12        8PX        -0.05253   0.07622  -0.13441   0.19423  -0.03950
  13        8PY         0.07997   0.05010   0.19426   0.13507   0.06097
  14        8PZ        -0.00003  -0.00026  -0.00010  -0.00035  -0.00020
  15        9PX         0.00129  -0.00219  -0.01070   0.01540  -0.00665
  16        9PY        -0.00187  -0.00137   0.01554   0.01077   0.01027
  17        9PZ         0.00001  -0.00006  -0.00001  -0.00005   0.00000
  18       10D 0        0.00000  -0.00006   0.00001  -0.00002   0.00003
  19       10D+1        0.00149  -0.00222   0.00073  -0.00105   0.00204
  20       10D-1       -0.00226  -0.00146  -0.00104  -0.00072  -0.00313
  21       10D+2        0.00520   0.00329   0.01220   0.00856   0.00423
  22       10D-2       -0.00344   0.00493  -0.00848   0.01210  -0.00275
  23       11D 0        0.00000  -0.00007  -0.00001   0.00015   0.00012
  24       11D+1        0.00702  -0.01068  -0.00434   0.00617   0.00845
  25       11D-1       -0.01064  -0.00699   0.00629   0.00431  -0.01297
  26       11D+2        0.01719   0.01096   0.03718   0.02620   0.01431
  27       11D-2       -0.01138   0.01644  -0.02588   0.03709  -0.00932
  28       12D 0       -0.00006  -0.00024  -0.00002  -0.00018   0.00011
  29       12D+1        0.00335  -0.00520  -0.00323   0.00463  -0.00065
  30       12D-1       -0.00508  -0.00341   0.00467   0.00322   0.00099
  31       12D+2        0.01672   0.01075   0.02952   0.02091   0.00846
  32       12D-2       -0.01099   0.01599  -0.02045   0.02945  -0.00547
  33       13F 0        0.00000   0.00000   0.00000   0.00002   0.00000
  34       13F+1       -0.00013   0.00022   0.00115  -0.00166   0.00122
  35       13F-1        0.00021   0.00015  -0.00165  -0.00114  -0.00188
  36       13F+2       -0.00053  -0.00035  -0.00010  -0.00009  -0.00028
  37       13F-2        0.00035  -0.00053   0.00007  -0.00013   0.00018
  38       13F+3       -0.00001   0.00000  -0.00003   0.00002  -0.00001
  39       13F-3        0.00001   0.00006   0.00001   0.00009   0.00000
  40       14F 0        0.00001  -0.00002   0.00001  -0.00006  -0.00001
  41       14F+1       -0.00021   0.00041   0.00333  -0.00474   0.00396
  42       14F-1        0.00032   0.00027  -0.00478  -0.00327  -0.00607
  43       14F+2       -0.00321  -0.00213  -0.00009  -0.00010  -0.00270
  44       14F-2        0.00213  -0.00321   0.00008  -0.00017   0.00177
  45       14F+3       -0.00001   0.00004  -0.00003   0.00012   0.00000
  46       14F-3       -0.00001  -0.00002   0.00000  -0.00007  -0.00003
  47 2   H  1S         -0.05606  -0.03456  -0.12454  -0.08614  -0.03936
  48        2S         -0.05054  -0.03070  -0.12691  -0.08742  -0.03873
  49        3S          0.04812   0.03044   0.09781   0.06820   0.00446
  50        4S         -0.00488  -0.00329   0.01423   0.00985   0.00090
  51        5PX        -0.00115   0.00168  -0.00249   0.00362  -0.00058
  52        5PY        -0.00440  -0.00268  -0.01018  -0.00701  -0.00303
  53        5PZ         0.00003   0.00005  -0.00230  -0.00159   0.00014
  54        6PX        -0.00442   0.00653  -0.00778   0.01138  -0.00203
  55        6PY         0.00603   0.00390   0.00927   0.00655   0.00472
  56        6PZ        -0.00231  -0.00151   0.00033   0.00018  -0.00099
  57        7PX        -0.00508   0.00743  -0.00759   0.01101  -0.00151
  58        7PY         0.01170   0.00713   0.03747   0.02595   0.00818
  59        7PZ         0.00054   0.00026   0.00622   0.00428   0.00249
  60        8D 0        0.00034   0.00020   0.00111   0.00076   0.00034
  61        8D+1       -0.00001   0.00001  -0.00018   0.00026   0.00002
  62        8D-1       -0.00062  -0.00040  -0.00020  -0.00014  -0.00025
  63        8D+2        0.00050   0.00030   0.00158   0.00109   0.00044
  64        8D-2       -0.00058   0.00084  -0.00128   0.00186  -0.00033
  65        9D 0       -0.00045  -0.00029   0.00119   0.00087  -0.00013
  66        9D+1        0.00085  -0.00130  -0.00057   0.00079   0.00065
  67        9D-1       -0.00278  -0.00186   0.00281   0.00191  -0.00038
  68        9D+2       -0.00136  -0.00081  -0.00222  -0.00146  -0.00091
  69        9D-2       -0.00091   0.00133  -0.00164   0.00239  -0.00061
  70 3   H  1S          0.06015  -0.02816   0.13716  -0.06388   0.04166
  71        2S          0.05420  -0.02502   0.13965  -0.06473   0.04105
  72        3S         -0.05154   0.02449  -0.10770   0.05027  -0.00460
  73        4S          0.00526  -0.00275  -0.01565   0.00724  -0.00096
  74        5PX         0.00456  -0.00100   0.01064  -0.00252   0.00302
  75        5PY        -0.00155   0.00265  -0.00399   0.00605  -0.00119
  76        5PZ        -0.00003   0.00004   0.00253  -0.00119  -0.00017
  77        6PX        -0.00382   0.00627  -0.00596   0.01045  -0.00350
  78        6PY         0.00634   0.00445   0.01014   0.00838   0.00397
  79        6PZ         0.00248  -0.00124  -0.00035   0.00011   0.00104
  80        7PX        -0.00879   0.00909  -0.03284   0.02279  -0.00683
  81        7PY         0.00986   0.00407   0.02556   0.00099   0.00543
  82        7PZ        -0.00059   0.00020  -0.00686   0.00318  -0.00261
  83        8D 0       -0.00036   0.00016  -0.00123   0.00057  -0.00036
  84        8D+1        0.00058  -0.00028   0.00026   0.00005   0.00022
  85        8D-1       -0.00033   0.00017   0.00001   0.00030  -0.00014
  86        8D+2        0.00068   0.00066   0.00170   0.00137   0.00047
  87        8D-2       -0.00023   0.00066  -0.00102   0.00173  -0.00026
  88        9D 0        0.00050  -0.00025  -0.00131   0.00062   0.00013
  89        9D+1        0.00224  -0.00201  -0.00246   0.00167   0.00010
  90        9D-1       -0.00208  -0.00045   0.00192   0.00005  -0.00067
  91        9D+2       -0.00009   0.00159  -0.00016   0.00284  -0.00005
  92        9D-2        0.00162   0.00015   0.00270   0.00040   0.00109
  93 4   H  1S         -0.00412   0.06479  -0.01283   0.15187  -0.00262
  94        2S         -0.00384   0.05962  -0.01340   0.15829  -0.00261
  95        3S          0.00312  -0.05422   0.00940  -0.11502   0.00019
  96        4S         -0.00040   0.00606   0.00138  -0.01688   0.00004
  97        5PX        -0.00072  -0.00447  -0.00119  -0.01092  -0.00033
  98        5PY         0.00193  -0.00241   0.00422  -0.00580   0.00100
  99        5PZ         0.00000  -0.00010  -0.00024   0.00275   0.00000
 100        6PX        -0.00432   0.00568  -0.00742   0.00869  -0.00209
 101        6PY         0.00670   0.00376   0.01123   0.00633   0.00306
 102        6PZ        -0.00017   0.00271   0.00000  -0.00013  -0.00006
 103        7PX        -0.00534   0.01134  -0.00992   0.03883  -0.00187
 104        7PY         0.00757   0.00704   0.00961   0.02348   0.00216
 105        7PZ         0.00002  -0.00044   0.00062  -0.00740   0.00019
 106        8D 0        0.00003  -0.00040   0.00012  -0.00139   0.00002
 107        8D+1        0.00003  -0.00064  -0.00013  -0.00025   0.00003
 108        8D-1        0.00003  -0.00037   0.00028  -0.00011  -0.00002
 109        8D+2        0.00087   0.00035   0.00180   0.00117   0.00049
 110        8D-2       -0.00056   0.00048  -0.00127   0.00161  -0.00033
 111        9D 0       -0.00004   0.00062   0.00010  -0.00144  -0.00002
 112        9D+1        0.00093  -0.00289  -0.00075   0.00282   0.00060
 113        9D-1       -0.00122  -0.00175   0.00072   0.00171  -0.00100
 114        9D+2        0.00151  -0.00076   0.00262  -0.00120   0.00101
 115        9D-2       -0.00076  -0.00144  -0.00127  -0.00249  -0.00053
 116 5   Cl 1S         -0.00001  -0.00019  -0.00001  -0.00017   0.00003
 117        2S          0.00004   0.00072   0.00002   0.00060  -0.00010
 118        3S         -0.00010  -0.00159  -0.00004  -0.00138   0.00021
 119        4S         -0.00001  -0.00023  -0.00001  -0.00021   0.00003
 120        5S         -0.00005  -0.00083  -0.00005  -0.00068   0.00014
 121        6S          0.00000   0.00028  -0.00007   0.00038   0.00002
 122        7PX         0.00484  -0.00703   0.02487  -0.03721  -0.12189
 123        7PY        -0.00733  -0.00460  -0.03587  -0.02582   0.18743
 124        7PZ         0.00002   0.00042   0.00003   0.00076   0.00000
 125        8PX        -0.01145   0.01664  -0.05877   0.08785   0.27884
 126        8PY         0.01736   0.01088   0.08476   0.06095  -0.42877
 127        8PZ        -0.00005  -0.00101  -0.00006  -0.00179   0.00000
 128        9PX        -0.00531   0.00773  -0.02718   0.04068   0.13470
 129        9PY         0.00806   0.00506   0.03921   0.02823  -0.20712
 130        9PZ        -0.00002  -0.00043  -0.00003  -0.00079  -0.00001
 131       10PX        -0.00572   0.00838  -0.03186   0.04801   0.20044
 132       10PY         0.00866   0.00548   0.04591   0.03328  -0.30821
 133       10PZ        -0.00003  -0.00077   0.00000  -0.00136  -0.00005
 134       11PX        -0.00118   0.00181  -0.00196   0.00312   0.03389
 135       11PY         0.00178   0.00118   0.00280   0.00215  -0.05212
 136       11PZ         0.00000  -0.00013   0.00002  -0.00024  -0.00003
 137       12D 0        0.00001   0.00006   0.00001   0.00008  -0.00001
 138       12D+1        0.00104  -0.00149   0.00352  -0.00512  -0.00012
 139       12D-1       -0.00157  -0.00098  -0.00508  -0.00356   0.00018
 140       12D+2        0.00009   0.00006   0.00045   0.00032   0.00020
 141       12D-2       -0.00006   0.00009  -0.00031   0.00044  -0.00013
 142       13D 0        0.00001   0.00013   0.00001   0.00019  -0.00002
 143       13D+1        0.00160  -0.00228   0.00624  -0.00909  -0.00038
 144       13D-1       -0.00242  -0.00149  -0.00900  -0.00631   0.00057
 145       13D+2        0.00027   0.00017   0.00054   0.00038   0.00046
 146       13D-2       -0.00018   0.00026  -0.00037   0.00053  -0.00030
 147       14D 0        0.00000   0.00008  -0.00001   0.00013   0.00000
 148       14D+1       -0.00003   0.00005  -0.00002   0.00000  -0.00183
 149       14D-1        0.00005   0.00003   0.00004   0.00001   0.00280
 150       14D+2       -0.00055  -0.00037  -0.00006  -0.00004   0.00005
 151       14D-2        0.00036  -0.00055   0.00004  -0.00006  -0.00004
 152       15F 0        0.00000  -0.00002   0.00000  -0.00003   0.00000
 153       15F+1       -0.00049   0.00070  -0.00150   0.00218   0.00077
 154       15F-1        0.00074   0.00046   0.00216   0.00151  -0.00118
 155       15F+2       -0.00009  -0.00006  -0.00028  -0.00020  -0.00008
 156       15F-2        0.00006  -0.00009   0.00019  -0.00028   0.00006
 157       15F+3        0.00000   0.00000   0.00000   0.00000   0.00000
 158       15F-3        0.00000   0.00000   0.00000   0.00000   0.00000
 159       16F 0        0.00000  -0.00003   0.00000  -0.00004   0.00000
 160       16F+1       -0.00033   0.00047  -0.00115   0.00169   0.00098
 161       16F-1        0.00049   0.00031   0.00165   0.00117  -0.00150
 162       16F+2        0.00001   0.00001   0.00015   0.00010  -0.00016
 163       16F-2       -0.00001   0.00001  -0.00011   0.00015   0.00011
 164       16F+3        0.00000   0.00000   0.00000   0.00000   0.00000
 165       16F-3        0.00000   0.00000   0.00000   0.00000   0.00000
 166 6   F  1S          0.00001   0.00018   0.00000   0.00015  -0.00003
 167        2S         -0.00004  -0.00050  -0.00001  -0.00044   0.00007
 168        3S         -0.00001  -0.00016   0.00000  -0.00014   0.00002
 169        4S         -0.00002  -0.00037  -0.00003  -0.00035   0.00003
 170        5S          0.00001   0.00019  -0.00003   0.00019  -0.00003
 171        6PX        -0.18238   0.27999   0.09227  -0.12809   0.01235
 172        6PY         0.27780   0.18411  -0.13285  -0.08872  -0.01899
 173        6PZ         0.00002   0.00120   0.00010   0.00263   0.00093
 174        7PX        -0.21755   0.33398   0.10941  -0.15184   0.01461
 175        7PY         0.33138   0.21961  -0.15752  -0.10518  -0.02248
 176        7PZ         0.00002   0.00144   0.00011   0.00314   0.00111
 177        8PX        -0.17589   0.27011   0.09203  -0.12793   0.01252
 178        8PY         0.26791   0.17761  -0.13252  -0.08862  -0.01926
 179        8PZ         0.00002   0.00119   0.00008   0.00260   0.00091
 180        9PX        -0.05531   0.08501   0.03245  -0.04530   0.00609
 181        9PY         0.08423   0.05589  -0.04674  -0.03140  -0.00937
 182        9PZ         0.00000   0.00037   0.00002   0.00077   0.00027
 183       10D 0        0.00000   0.00001   0.00000   0.00001   0.00000
 184       10D+1       -0.00033   0.00050  -0.00005   0.00008  -0.00006
 185       10D-1        0.00050   0.00033   0.00008   0.00006   0.00010
 186       10D+2        0.00002   0.00001   0.00003   0.00002   0.00001
 187       10D-2       -0.00001   0.00002  -0.00002   0.00003  -0.00001
 188       11D 0        0.00000   0.00003   0.00000   0.00004   0.00000
 189       11D+1       -0.00133   0.00201  -0.00069   0.00104  -0.00032
 190       11D-1        0.00202   0.00132   0.00100   0.00072   0.00050
 191       11D+2        0.00004   0.00002   0.00021   0.00015   0.00015
 192       11D-2       -0.00003   0.00004  -0.00014   0.00021  -0.00010
 193       12D 0        0.00000   0.00006   0.00000   0.00011   0.00003
 194       12D+1       -0.00326   0.00501   0.00203  -0.00284  -0.00017
 195       12D-1        0.00496   0.00329  -0.00292  -0.00196   0.00026
 196       12D+2        0.00003   0.00002  -0.00023  -0.00016  -0.00031
 197       12D-2       -0.00002   0.00003   0.00016  -0.00023   0.00020
 198       13F 0        0.00000   0.00000   0.00000   0.00000   0.00000
 199       13F+1       -0.00012   0.00018  -0.00014   0.00021  -0.00003
 200       13F-1        0.00018   0.00012   0.00021   0.00015   0.00005
 201       13F+2        0.00005   0.00003   0.00009   0.00007   0.00005
 202       13F-2       -0.00003   0.00004  -0.00006   0.00009  -0.00003
 203       13F+3        0.00000   0.00000   0.00000   0.00000   0.00000
 204       13F-3        0.00000   0.00000   0.00000   0.00000   0.00000
 205       14F 0        0.00000   0.00001   0.00000   0.00002   0.00001
 206       14F+1       -0.00080   0.00123   0.00050  -0.00069  -0.00001
 207       14F-1        0.00122   0.00081  -0.00072  -0.00048   0.00001
 208       14F+2       -0.00011  -0.00007  -0.00020  -0.00014  -0.00014
 209       14F-2        0.00007  -0.00011   0.00014  -0.00020   0.00009
 210       14F+3        0.00000   0.00000   0.00000   0.00000   0.00000
 211       14F-3        0.00000   0.00000   0.00000   0.00000   0.00000
                          16        17        18        19        20
     Eigenvalues --     1.94908   1.94876   1.93532   0.06021   0.02496
   1 1   C  1S          0.00205   0.05345  -0.01584  -0.02405  -0.00176
   2        2S         -0.00587  -0.15218   0.05113   0.06666   0.00643
   3        3S         -0.00146  -0.03587   0.01677   0.02434   0.00296
   4        4S         -0.01215  -0.29227   0.08711  -0.22020   0.00005
   5        5S         -0.00241  -0.05756   0.03919  -0.02860  -0.00099
   6        6PX         0.05820  -0.00309   0.00019   0.00005   0.14303
   7        6PY         0.03791  -0.00232   0.00010   0.00011   0.07093
   8        6PZ        -0.00183  -0.04567  -0.12874   0.27950  -0.00049
   9        7PX         0.08083  -0.00434   0.00039  -0.00012   0.26671
  10        7PY         0.05264  -0.00327   0.00023   0.00003   0.13238
  11        7PZ        -0.00258  -0.06467  -0.18068   0.44343  -0.00082
  12        8PX         0.06213  -0.00341   0.00048   0.00009   0.12258
  13        8PY         0.04055  -0.00241   0.00031   0.00025   0.06050
  14        8PZ        -0.00268  -0.06406  -0.07645   0.20138  -0.00003
  15        9PX         0.01037  -0.00051   0.00007   0.00006   0.02648
  16        9PY         0.00677  -0.00033   0.00002   0.00001   0.01282
  17        9PZ        -0.00005  -0.00123  -0.00164  -0.00008   0.00001
  18       10D 0        0.00040   0.00935  -0.01106  -0.00876  -0.00007
  19       10D+1       -0.00313   0.00014   0.00000  -0.00008   0.02282
  20       10D-1       -0.00203   0.00011   0.00000  -0.00006   0.01116
  21       10D+2        0.00283  -0.00019   0.00003  -0.00002   0.00157
  22       10D-2        0.00426  -0.00020   0.00000  -0.00003   0.00334
  23       11D 0        0.00208   0.04987  -0.04571   0.06666   0.00065
  24       11D+1       -0.01289   0.00058  -0.00004   0.00004   0.05341
  25       11D-1       -0.00837   0.00048  -0.00005   0.00003   0.02605
  26       11D+2        0.00960  -0.00078   0.00017  -0.00025   0.03257
  27       11D-2        0.01448  -0.00077   0.00007  -0.00001   0.06446
  28       12D 0        0.00113   0.02814  -0.00385  -0.01681   0.00012
  29       12D+1        0.00101  -0.00002   0.00003  -0.00003   0.01692
  30       12D-1        0.00065  -0.00005   0.00012  -0.00014   0.00843
  31       12D+2        0.00571  -0.00063   0.00016  -0.00028   0.00769
  32       12D-2        0.00854  -0.00048   0.00005   0.00013   0.01455
  33       13F 0       -0.00008  -0.00209  -0.00327  -0.00587   0.00014
  34       13F+1       -0.00189   0.00009  -0.00001   0.00000  -0.00888
  35       13F-1       -0.00123   0.00006  -0.00001   0.00000  -0.00439
  36       13F+2       -0.00018   0.00002  -0.00001   0.00005   0.00139
  37       13F-2       -0.00028   0.00003  -0.00001   0.00000   0.00276
  38       13F+3        0.00001  -0.00002   0.00001   0.00000   0.00003
  39       13F-3       -0.00010  -0.00311   0.00116  -0.00056   0.00009
  40       14F 0       -0.00024  -0.00544  -0.00087   0.01163   0.00020
  41       14F+1       -0.00611   0.00025  -0.00002   0.00008  -0.00257
  42       14F-1       -0.00397   0.00015  -0.00001   0.00007  -0.00129
  43       14F+2       -0.00178   0.00015  -0.00003  -0.00003  -0.00113
  44       14F-2       -0.00270   0.00014  -0.00002   0.00005  -0.00211
  45       14F+3        0.00001  -0.00008   0.00005  -0.00019   0.00019
  46       14F-3       -0.00061  -0.01517   0.00916  -0.03760  -0.00005
  47 2   H  1S         -0.02747  -0.03222   0.02871  -0.00680   0.01755
  48        2S         -0.02586  -0.00159   0.02283   0.07952   0.11727
  49        3S          0.00417   0.02151   0.02062   0.06861   0.07672
  50        4S          0.00064   0.00012   0.00191   0.00720   0.03152
  51        5PX         0.00092  -0.00006   0.00001   0.00000   0.00272
  52        5PY        -0.00209  -0.00202   0.00248  -0.00200  -0.00389
  53        5PZ        -0.00002  -0.00267  -0.00322   0.01430  -0.00541
  54        6PX         0.00323  -0.00025   0.00006  -0.00012   0.00729
  55        6PY         0.00334   0.00529  -0.00146   0.00970   0.02733
  56        6PZ        -0.00069  -0.00089  -0.01030   0.02812  -0.00230
  57        7PX         0.00241  -0.00016   0.00004   0.00007  -0.00076
  58        7PY         0.00595   0.01077  -0.00153   0.01279   0.02303
  59        7PZ         0.00194   0.00796   0.00323  -0.01403   0.00276
  60        8D 0        0.00023   0.00013  -0.00085   0.00060   0.00114
  61        8D+1       -0.00003   0.00000   0.00000   0.00000   0.00164
  62        8D-1       -0.00017  -0.00019  -0.00171   0.00673  -0.00175
  63        8D+2        0.00031   0.00051  -0.00061   0.00186   0.00112
  64        8D-2        0.00052  -0.00004   0.00001  -0.00001   0.00202
  65        9D 0       -0.00004   0.00084  -0.00282   0.00594  -0.00153
  66        9D+1       -0.00098   0.00003   0.00000  -0.00001   0.00399
  67        9D-1       -0.00016   0.00204  -0.00055  -0.00589   0.00691
  68        9D+2       -0.00054   0.00113   0.00034  -0.00111  -0.00440
  69        9D-2        0.00097  -0.00006   0.00002  -0.00001   0.00109
  70 3   H  1S         -0.02289  -0.03285   0.02884  -0.00683   0.02167
  71        2S         -0.02134  -0.00212   0.02291   0.07977   0.14479
  72        3S          0.00347   0.02184   0.02054   0.06901   0.09480
  73        4S          0.00051   0.00004   0.00197   0.00727   0.04003
  74        5PX        -0.00103  -0.00182   0.00215  -0.00174  -0.00295
  75        5PY         0.00172   0.00098  -0.00124   0.00101   0.00467
  76        5PZ        -0.00004  -0.00267  -0.00321   0.01430  -0.00685
  77        6PX         0.00416   0.00457  -0.00128   0.00847   0.03255
  78        6PY         0.00162  -0.00293   0.00078  -0.00483  -0.01089
  79        6PZ        -0.00056  -0.00096  -0.01031   0.02825  -0.00304
  80        7PX         0.00562   0.00929  -0.00129   0.01094   0.02469
  81        7PY        -0.00022  -0.00574   0.00089  -0.00645  -0.01483
  82        7PZ         0.00168   0.00805   0.00313  -0.01393   0.00318
  83        8D 0        0.00019   0.00014  -0.00085   0.00060   0.00142
  84        8D+1       -0.00014  -0.00017  -0.00148   0.00583  -0.00116
  85        8D-1        0.00005   0.00010   0.00085  -0.00336   0.00243
  86        8D+2        0.00035  -0.00029   0.00031  -0.00093   0.00093
  87        8D-2        0.00051   0.00042  -0.00052   0.00161   0.00218
  88        9D 0       -0.00004   0.00085  -0.00283   0.00595  -0.00189
  89        9D+1       -0.00063   0.00178  -0.00047  -0.00512   0.00938
  90        9D-1       -0.00085  -0.00096   0.00026   0.00292  -0.00120
  91        9D+2        0.00113  -0.00062  -0.00015   0.00056   0.00361
  92        9D-2        0.00014   0.00090   0.00032  -0.00100  -0.00411
  93 4   H  1S          0.04634  -0.03645   0.02901  -0.00683  -0.04540
  94        2S          0.04791  -0.00619   0.02337   0.07966  -0.27199
  95        3S         -0.00417   0.02178   0.02037   0.06762  -0.17316
  96        4S         -0.00108   0.00010   0.00196   0.00722  -0.07124
  97        5PX        -0.00313   0.00201  -0.00214   0.00166  -0.00749
  98        5PY        -0.00171   0.00114  -0.00122   0.00095  -0.00444
  99        5PZ        -0.00028  -0.00264  -0.00314   0.01400   0.01198
 100        6PX         0.00454  -0.00528   0.00149  -0.00923   0.05440
 101        6PY         0.00282  -0.00302   0.00082  -0.00507   0.03057
 102        6PZ         0.00108  -0.00114  -0.01019   0.02833   0.00553
 103        7PX         0.00831  -0.01010   0.00154  -0.01081   0.04543
 104        7PY         0.00492  -0.00595   0.00097  -0.00638   0.02628
 105        7PZ        -0.00259   0.00812   0.00300  -0.01345  -0.00569
 106        8D 0       -0.00042   0.00016  -0.00084   0.00056  -0.00249
 107        8D+1       -0.00025   0.00020   0.00146  -0.00581  -0.00341
 108        8D-1       -0.00014   0.00011   0.00083  -0.00330  -0.00207
 109        8D+2        0.00029  -0.00027   0.00030  -0.00089   0.00115
 110        8D-2        0.00043  -0.00045   0.00052  -0.00152   0.00216
 111        9D 0        0.00017   0.00085  -0.00279   0.00581   0.00372
 112        9D+1       -0.00044  -0.00174   0.00050   0.00487   0.01357
 113        9D-1       -0.00031  -0.00096   0.00028   0.00275   0.00739
 114        9D+2       -0.00055  -0.00051  -0.00019   0.00060  -0.00525
 115        9D-2       -0.00104  -0.00083  -0.00034   0.00102  -0.00871
 116 5   Cl 1S          0.00040   0.01022   0.00049  -0.01679  -0.00001
 117        2S         -0.00152  -0.03901  -0.00163   0.05630   0.00004
 118        3S          0.00310   0.08062   0.01115  -0.15674  -0.00014
 119        4S          0.00047   0.01245   0.00451  -0.03985   0.00001
 120        5S          0.00274   0.06912   0.01213  -0.04614  -0.00020
 121        6S          0.00090   0.02042  -0.01254   0.01563   0.00001
 122        7PX         0.18704  -0.00740   0.00006  -0.00004   0.01895
 123        7PY         0.12158  -0.00549  -0.00005  -0.00009   0.00928
 124        7PZ         0.00122   0.02659  -0.21011  -0.16338  -0.00051
 125        8PX        -0.42785   0.01691  -0.00013   0.00009  -0.02957
 126        8PY        -0.27814   0.01255   0.00010   0.00019  -0.01449
 127        8PZ        -0.00285  -0.06208   0.46458   0.36065   0.00112
 128        9PX        -0.20670   0.00818  -0.00007   0.00005  -0.03147
 129        9PY        -0.13437   0.00607   0.00004   0.00012  -0.01542
 130        9PZ        -0.00140  -0.03098   0.21827   0.20642   0.00075
 131       10PX        -0.30768   0.01224  -0.00013  -0.00001   0.01515
 132       10PY        -0.20001   0.00909   0.00001   0.00004   0.00739
 133       10PZ        -0.00319  -0.07213   0.31777   0.02951  -0.00049
 134       11PX        -0.05208   0.00211  -0.00005   0.00000   0.00543
 135       11PY        -0.03386   0.00156  -0.00001   0.00000   0.00268
 136       11PZ        -0.00100  -0.02400   0.04620   0.00734  -0.00025
 137       12D 0       -0.00018  -0.00473  -0.01240   0.06744   0.00115
 138       12D+1        0.00014   0.00002  -0.00002   0.00003  -0.05198
 139       12D-1        0.00009   0.00001  -0.00002   0.00006  -0.02545
 140       12D+2        0.00014  -0.00001   0.00000   0.00000   0.00025
 141       12D-2        0.00021  -0.00001   0.00000   0.00000   0.00059
 142       13D 0       -0.00026  -0.00757  -0.01942   0.09781   0.00170
 143       13D+1        0.00049   0.00003  -0.00004   0.00007  -0.07756
 144       13D-1        0.00031   0.00001  -0.00004   0.00011  -0.03796
 145       13D+2        0.00031  -0.00002   0.00000   0.00001   0.00039
 146       13D-2        0.00048  -0.00002   0.00000   0.00000   0.00093
 147       14D 0        0.00011   0.00152  -0.01324   0.03013   0.00016
 148       14D+1        0.00280  -0.00011  -0.00002   0.00003  -0.00844
 149       14D-1        0.00181  -0.00008  -0.00001   0.00002  -0.00409
 150       14D+2        0.00004   0.00000   0.00000   0.00002   0.00007
 151       14D-2        0.00007   0.00000   0.00001  -0.00001   0.00018
 152       15F 0        0.00004   0.00099   0.00459  -0.00358  -0.00009
 153       15F+1       -0.00116   0.00004   0.00001   0.00000   0.00448
 154       15F-1       -0.00075   0.00003   0.00001  -0.00001   0.00220
 155       15F+2       -0.00006   0.00000   0.00000   0.00000  -0.00009
 156       15F-2       -0.00009   0.00000   0.00000   0.00000  -0.00017
 157       15F+3        0.00000   0.00000   0.00000   0.00000   0.00000
 158       15F-3        0.00000  -0.00007   0.00004   0.00004  -0.00001
[...]
  80        7PX         1.90367  -8.07488   5.16050  -1.68791   1.68877
  81        7PY         0.27212  -6.32760  -8.13314   1.00487   3.10481
  82        7PZ        -1.43297  -1.54195   3.04408   0.00898  -0.00486
  83        8D 0       -0.03834   0.00044  -0.01015   0.02451   0.00056
  84        8D+1        0.01328  -0.02676   0.01035   0.00842  -0.00244
  85        8D-1       -0.00322  -0.02949  -0.02630  -0.00440  -0.00520
  86        8D+2        0.05547   0.09910   0.04688   0.02500  -0.02659
  87        8D-2       -0.11773   0.04308   0.01829  -0.04338  -0.01429
  88        9D 0       -0.50997   0.15045  -0.42126  -0.14902   0.00548
  89        9D+1       -0.23753   0.08468   0.23104  -0.04040   0.04250
  90        9D-1        0.09208   0.36349   0.05302   0.01803   0.08288
  91        9D+2        0.06450  -1.71833  -0.06216  -0.35223   0.50741
  92        9D-2        0.27477  -0.32311  -1.44197   0.62596   0.28859
  93 4   H  1S         -0.03463  -0.01099   0.00037  -0.01213  -0.02022
  94        2S         -0.16526   3.09673  -0.24016  -0.45766   1.80790
  95        3S          4.31245  27.79158  -2.45722  -3.19673  22.31423
  96        4S          1.64381  -1.64936   0.21296  -1.91701   9.73102
  97        5PX        -0.03024   0.08632  -0.06224  -0.08149   0.10317
  98        5PY        -0.02192   0.06179   0.08729  -0.04763   0.03055
  99        5PZ         0.05860   0.01540   0.00029   0.03076  -0.00902
 100        6PX        -0.38635  -1.92553   0.90813   0.59300  -1.09022
 101        6PY        -0.16828  -1.26539  -1.16941   0.34958  -0.34189
 102        6PZ        -0.33489  -0.01296  -0.00744  -0.16308   0.14149
 103        7PX        -0.45688  -7.74405   6.03466   1.72320  -6.44447
 104        7PY         0.14220  -5.58469  -8.65378   1.03669  -1.79899
 105        7PZ        -1.92303   3.11313  -0.34720  -0.01027   0.71296
 106        8D 0       -0.03515  -0.00923   0.00114   0.02406  -0.01471
 107        8D+1       -0.01155  -0.01805   0.02318  -0.00935   0.01445
 108        8D-1       -0.00546  -0.01516  -0.03605  -0.00488   0.00524
 109        8D+2        0.06224   0.01379   0.10356   0.02680   0.00326
 110        8D-2        0.11038   0.00049  -0.05973   0.04499   0.03371
 111        9D 0       -0.46098  -0.51843   0.04902  -0.14361  -0.22916
 112        9D+1        0.25686  -0.16242  -0.17012   0.04657  -0.23114
 113        9D-1        0.13559  -0.05196   0.34340   0.02383  -0.08231
 114        9D+2       -0.13135   0.50628  -1.65866  -0.35657   0.36068
 115        9D-2       -0.33823   1.21579   0.81991  -0.62838   0.07259
 116 5   Cl 1S          0.02025   0.00205   0.00028   0.01172  -0.00006
 117        2S          0.28037   0.02832   0.00367   0.16299  -0.00092
 118        3S          0.78129   0.07926   0.01058   0.45797  -0.00223
 119        4S         -0.04272  -0.00373  -0.00005  -0.01455   0.00064
 120        5S         -4.35415  -0.44002  -0.06484  -3.02399   0.01733
 121        6S         -9.75408  -1.04794  -0.15599 -13.21472   0.00659
 122        7PX        -0.00012   0.00050  -0.00045  -0.00010   0.00152
 123        7PY        -0.00003   0.00036   0.00062   0.00002   0.00257
 124        7PZ        -0.00446  -0.00078  -0.00021  -0.02266  -0.00007
 125        8PX        -0.00228   0.01376  -0.01057  -0.00163   0.03067
 126        8PY        -0.00068   0.00954   0.01432   0.00038   0.05112
 127        8PZ        -0.06255  -0.01047  -0.00275  -0.31574  -0.00102
 128        9PX         0.00056  -0.00254   0.00224   0.00035  -0.00504
 129        9PY         0.00019  -0.00185  -0.00317  -0.00007  -0.00860
 130        9PZ         0.00148   0.00135   0.00053   0.07939   0.00024
 131       10PX        -0.00001  -0.05454   0.03187   0.00956  -0.22038
 132       10PY        -0.00942  -0.03489  -0.03775  -0.00112  -0.36339
 133       10PZ         5.88308   0.62285   0.09466   5.06285  -0.00536
 134       11PX         0.08670  -0.93511   0.66474   0.00619   0.13306
 135       11PY         0.07385  -0.65473  -0.92288   0.00599   0.20789
 136       11PZ         0.77999   0.08916   0.01222   3.34760   0.00178
 137       12D 0        0.06788   0.00693   0.00104   0.00189   0.00002
 138       12D+1       -0.00272   0.02479  -0.01796  -0.00027   0.00168
 139       12D-1       -0.00232   0.01738   0.02497  -0.00013   0.00318
 140       12D+2        0.00163  -0.00465  -0.00720   0.00011  -0.01042
 141       12D-2        0.00109  -0.00641   0.00504  -0.00003  -0.00633
 142       13D 0       -0.38688  -0.03941  -0.00562  -0.07061  -0.00013
 143       13D+1        0.01046  -0.09058   0.06636   0.00111  -0.01233
 144       13D-1        0.00879  -0.06363  -0.09243   0.00017  -0.02201
 145       13D+2       -0.00447   0.01068   0.01693  -0.00037   0.03763
 146       13D-2       -0.00290   0.01468  -0.01179  -0.00002   0.02286
 147       14D 0       -1.38284  -0.15033  -0.02375  -1.23364  -0.00106
 148       14D+1       -0.02406   0.25243  -0.17613  -0.00847   0.16965
 149       14D-1       -0.01554   0.17416   0.23988  -0.00004   0.28043
 150       14D+2        0.00481  -0.03884  -0.04998   0.00213  -0.17410
 151       14D-2        0.00530  -0.05608   0.03729   0.00291  -0.10561
 152       15F 0       -0.04272  -0.00500  -0.00079   0.00130  -0.00013
 153       15F+1       -0.00040   0.00417  -0.00301  -0.00033   0.00986
 154       15F-1       -0.00028   0.00287   0.00409   0.00025   0.01591
 155       15F+2        0.00035  -0.00559  -0.00703   0.00038  -0.00902
 156       15F-2        0.00052  -0.00797   0.00520   0.00054  -0.00540
 157       15F+3       -0.00007   0.00012   0.00000   0.00012   0.00016
 158       15F-3       -0.00935  -0.00069  -0.00041   0.02286   0.00009
 159       16F 0        0.23186   0.02538   0.00417   0.08820   0.00067
 160       16F+1        0.00117  -0.01453   0.00923   0.00146  -0.03385
 161       16F-1        0.00042  -0.00955  -0.01178  -0.00048  -0.05453
 162       16F+2       -0.00215   0.02678   0.03469  -0.00113   0.03695
 163       16F-2       -0.00282   0.03818  -0.02558  -0.00168   0.02228
 164       16F+3        0.00015  -0.00023   0.00000  -0.00021  -0.00034
 165       16F-3        0.01953   0.00151   0.00093  -0.04266  -0.00022
 166 6   F  1S          0.04017   0.00367   0.00048  -0.02273  -0.00003
 167        2S          0.14146   0.01260   0.00152  -0.08631  -0.00014
 168        3S         -0.07192  -0.00681  -0.00099   0.03681   0.00005
 169        4S         -0.37699  -0.03348  -0.00348  -0.01941   0.00159
 170        5S         -0.07903  -0.01265   0.01534  -5.94096   0.01493
 171        6PX         0.00055  -0.00598   0.00433   0.00002  -0.00084
 172        6PY         0.00054  -0.00418  -0.00601   0.00000  -0.00143
 173        6PZ         0.00528   0.00070   0.00018   0.00222   0.00006
 174        7PX        -0.00272   0.03116  -0.02231  -0.00004   0.00304
 175        7PY        -0.00257   0.02169   0.03083   0.00002   0.00518
 176        7PZ        -0.06276  -0.00713  -0.00147   0.00275  -0.00020
 177        8PX         0.01763  -0.21901   0.15437  -0.00011  -0.00047
 178        8PY         0.01611  -0.15225  -0.21296   0.00038  -0.00117
 179        8PZ         0.62228   0.06644   0.01396  -0.24765   0.00048
 180        9PX         0.05384  -0.68458   0.48253   0.00123   0.12195
 181        9PY         0.04135  -0.47917  -0.66906   0.00005   0.19488
 182        9PZ        -0.87656  -0.09515  -0.01328  -2.49443   0.00464
 183       10D 0        0.01121   0.00113   0.00007  -0.00797   0.00004
 184       10D+1        0.00102  -0.01212   0.00860   0.00008  -0.00114
 185       10D-1        0.00070  -0.00846  -0.01188  -0.00010  -0.00193
 186       10D+2       -0.00051   0.00284   0.00421  -0.00002  -0.00248
 187       10D-2       -0.00051   0.00395  -0.00301   0.00000  -0.00145
 188       11D 0       -0.04150  -0.00431  -0.00030   0.01569  -0.00007
 189       11D+1       -0.00321   0.03897  -0.02764  -0.00023   0.00194
 190       11D-1       -0.00221   0.02718   0.03815   0.00030   0.00340
 191       11D+2        0.00196  -0.00965  -0.01447   0.00011   0.00878
 192       11D-2        0.00178  -0.01338   0.01029  -0.00006   0.00515
 193       12D 0        0.41209   0.04321   0.00618  -0.01153  -0.00054
 194       12D+1        0.00809  -0.11693   0.08103   0.00022   0.01591
 195       12D-1        0.00587  -0.08051  -0.11042  -0.00042   0.02632
 196       12D+2       -0.00765   0.03591   0.05431  -0.00034  -0.01672
 197       12D-2       -0.00667   0.04921  -0.03818   0.00013  -0.00984
 198       13F 0       -0.02719  -0.00296  -0.00041  -0.00758   0.00005
 199       13F+1        0.00128  -0.01492   0.01056   0.00014  -0.00417
 200       13F-1        0.00097  -0.01057  -0.01481   0.00009  -0.00689
 201       13F+2        0.00070  -0.00529  -0.00767  -0.00011  -0.00236
 202       13F-2        0.00078  -0.00731   0.00546   0.00002  -0.00146
 203       13F+3        0.00009  -0.00022  -0.00004  -0.00001   0.00003
 204       13F-3        0.01292   0.00114   0.00001  -0.00127  -0.00002
 205       14F 0        0.06741   0.00731   0.00095   0.01172  -0.00010
 206       14F+1       -0.00298   0.03177  -0.02288  -0.00027   0.00910
 207       14F-1       -0.00246   0.02268   0.03236  -0.00015   0.01519
 208       14F+2       -0.00191   0.01459   0.02099   0.00015   0.00564
 209       14F-2       -0.00213   0.02012  -0.01491  -0.00007   0.00342
 210       14F+3       -0.00013   0.00036   0.00007   0.00001  -0.00004
 211       14F-3       -0.01752  -0.00148   0.00002   0.00242   0.00005
                         211
     Eigenvalues --     0.00000
   1 1   C  1S         -0.00271
   2        2S         -0.01593
   3        3S         -0.00222
   4        4S         -0.19232
   5        5S         -0.07167
   6        6PX        -0.00626
   7        6PY         0.00401
   8        6PZ        -0.00001
   9        7PX         1.28639
  10        7PY        -0.82034
  11        7PZ         0.00341
  12        8PX        14.75458
  13        8PY        -9.13387
  14        8PZ         0.00524
  15        9PX         6.73007
  16        9PY        -4.11226
  17        9PZ        -0.00702
  18       10D 0        0.00024
  19       10D+1       -0.00135
  20       10D-1        0.00089
  21       10D+2       -0.01164
  22       10D-2        0.01823
  23       11D 0        0.00277
  24       11D+1       -0.17397
  25       11D-1        0.11157
  26       11D+2       -0.23329
  27       11D-2        0.33645
  28       12D 0       -0.04990
  29       12D+1       -1.09760
  30       12D-1        0.67167
  31       12D+2        0.26787
  32       12D-2       -0.53474
  33       13F 0       -0.00016
  34       13F+1        0.03332
  35       13F-1       -0.01988
  36       13F+2       -0.00476
  37       13F-2        0.00805
  38       13F+3       -0.00048
  39       13F-3        0.00022
  40       14F 0       -0.00021
  41       14F+1       -0.34631
  42       14F-1        0.21283
  43       14F+2        0.04244
  44       14F-2       -0.06479
  45       14F+3       -0.00079
  46       14F-3       -0.00637
  47 2   H  1S          0.01419
  48        2S         -1.17843
  49        3S        -13.73183
  50        4S         -5.82897
  51        5PX         0.04489
  52        5PY         0.06139
  53        5PZ         0.00540
  54        6PX        -0.44831
  55        6PY        -0.70076
  56        6PZ        -0.08744
  57        7PX        -3.02455
  58        7PY        -3.93014
  59        7PZ        -0.43940
  60        8D 0        0.00968
  61        8D+1        0.00472
  62        8D-1        0.00813
  63        8D+2        0.02184
  64        8D-2        0.02481
  65        9D 0        0.14335
  66        9D+1       -0.07907
  67        9D-1       -0.14490
  68        9D+2        0.14344
  69        9D-2       -0.49296
  70 3   H  1S         -0.02644
  71        2S          2.22331
  72        3S         25.93626
  73        4S         11.14912
  74        5PX        -0.10237
  75        5PY         0.05793
  76        5PZ        -0.01075
  77        6PX         1.15076
  78        6PY        -0.65415
  79        6PZ         0.16838
  80        7PX         6.49870
  81        7PY        -3.69415
  82        7PZ         0.81047
  83        8D 0       -0.01887
  84        8D+1       -0.01352
  85        8D-1        0.00780
  86        8D+2        0.01994
  87        8D-2       -0.03486
  88        9D 0       -0.26460
  89        9D+1        0.23828
  90        9D-1       -0.13567
  91        9D+2        0.14640
  92        9D-2       -0.23692
  93 4   H  1S          0.01167
  94        2S         -0.99074
  95        3S        -12.10284
  96        4S         -5.30047
  97        5PX        -0.02677
  98        5PY        -0.06732
  99        5PZ         0.00491
 100        6PX         0.30708
 101        6PY         0.68829
 102        6PZ        -0.07758
 103        7PX         1.52232
 104        7PY         4.36648
 105        7PZ        -0.38640
 106        8D 0        0.00804
 107        8D+1       -0.00456
 108        8D-1       -0.00840
 109        8D+2       -0.03171
 110        8D-2       -0.00161
 111        9D 0        0.12805
 112        9D+1        0.07469
 113        9D-1        0.13574
 114        9D+2        0.36776
 115        9D-2       -0.36304
 116 5   Cl 1S         -0.00009
 117        2S         -0.00136
 118        3S         -0.00355
 119        4S          0.00048
 120        5S          0.02035
 121        6S          0.05282
 122        7PX        -0.00251
 123        7PY         0.00159
 124        7PZ         0.00011
 125        8PX        -0.05020
 126        8PY         0.03139
 127        8PZ         0.00136
 128        9PX         0.00841
 129        9PY        -0.00537
 130        9PZ        -0.00039
 131       10PX         0.35978
 132       10PY        -0.22259
 133       10PZ        -0.02517
 134       11PX        -0.21505
 135       11PY         0.12611
 136       11PZ        -0.01441
 137       12D 0        0.00000
 138       12D+1       -0.00293
 139       12D-1        0.00207
 140       12D+2       -0.00621
 141       12D-2        0.01029
 142       13D 0        0.00029
 143       13D+1        0.02091
 144       13D-1       -0.01397
 145       13D+2        0.02249
 146       13D-2       -0.03723
 147       14D 0        0.00586
 148       14D+1       -0.27583
 149       14D-1        0.17111
 150       14D+2       -0.10476
 151       14D-2        0.17324
 152       15F 0       -0.00001
 153       15F+1       -0.01572
 154       15F-1        0.00952
 155       15F+2       -0.00554
 156       15F-2        0.00905
 157       15F+3       -0.00004
 158       15F-3       -0.00012
 159       16F 0       -0.00025
 160       16F+1        0.05375
 161       16F-1       -0.03249
 162       16F+2        0.02241
 163       16F-2       -0.03684
 164       16F+3        0.00011
 165       16F-3        0.00026
 166 6   F  1S         -0.00018
 167        2S         -0.00079
 168        3S          0.00015
 169        4S          0.00447
 170        5S          0.02347
 171        6PX         0.00140
 172        6PY        -0.00090
 173        6PZ        -0.00003
 174        7PX        -0.00503
 175        7PY         0.00321
 176        7PZ         0.00009
 177        8PX         0.00035
 178        8PY        -0.00046
 179        8PZ         0.00227
 180        9PX        -0.19838
 181        9PY         0.11906
 182        9PZ         0.00986
 183       10D 0       -0.00001
 184       10D+1        0.00181
 185       10D-1       -0.00115
 186       10D+2       -0.00153
 187       10D-2        0.00244
 188       11D 0        0.00007
 189       11D+1       -0.00304
 190       11D-1        0.00199
 191       11D+2        0.00541
 192       11D-2       -0.00867
 193       12D 0       -0.00004
 194       12D+1       -0.02736
 195       12D-1        0.01698
 196       12D+2       -0.01033
 197       12D-2        0.01662
 198       13F 0        0.00004
 199       13F+1        0.00687
 200       13F-1       -0.00425
 201       13F+2       -0.00134
 202       13F-2        0.00225
 203       13F+3       -0.00001
 204       13F-3        0.00012
 205       14F 0       -0.00008
 206       14F+1       -0.01517
 207       14F-1        0.00950
 208       14F+2        0.00329
 209       14F-2       -0.00545
 210       14F+3        0.00005
 211       14F-3       -0.00023
          Condensed to atoms (all electrons):
              1          2          3          4          5          6
     1  C    7.000159  -0.008963  -0.008993  -0.002371  -0.050954  -0.099776
     2  H   -0.008963   0.546717   0.020996   0.019899  -0.018893   0.004265
     3  H   -0.008993   0.020996   0.546606   0.019081  -0.018986   0.004388
     4  H   -0.002371   0.019899   0.019081   0.546587  -0.018882   0.003967
     5  Cl  -0.050954  -0.018893  -0.018986  -0.018882  17.709719   0.026428
     6  F   -0.099776   0.004265   0.004388   0.003967   0.026428   9.907801
 Mulliken atomic charges:
              1
     1  C   -0.829102
     2  H    0.435979
     3  H    0.436909
     4  H    0.431719
     5  Cl  -0.628432
     6  F   -0.847073
 Sum of Mulliken atomic charges =  -1.00000
 Mulliken charges with hydrogens summed into heavy atoms:
              1
     1  C    0.475504
     5  Cl  -0.628432
     6  F   -0.847073
 Sum of Mulliken charges with hydrogens summed into heavy atoms =  -1.00000
 Electronic spatial extent (au):  <R**2>=            490.3909
 Charge=             -1.0000 electrons
 Dipole moment (field-independent basis, Debye):
    X=              0.0011    Y=             -0.0002    Z=              4.0643  Tot=              4.0643
 Quadrupole moment (field-independent basis, Debye-Ang):
   XX=            -28.1734   YY=            -28.1945   ZZ=            -62.8317
   XY=              0.0008   XZ=             -0.0055   YZ=             -0.0129
 Traceless Quadrupole moment (field-independent basis, Debye-Ang):
   XX=             11.5598   YY=             11.5387   ZZ=            -23.0985
   XY=              0.0008   XZ=             -0.0055   YZ=             -0.0129
 Octapole moment (field-independent basis, Debye-Ang**2):
  XXX=             -0.0424  YYY=             -0.9863  ZZZ=             49.6918  XYY=             -0.0208
  XXY=              0.9485  XXZ=             -4.2444  XZZ=             -0.0124  YZZ=              0.0123
  YYZ=             -4.2294  XYZ=             -0.0015
 Hexadecapole moment (field-independent basis, Debye-Ang**3):
 XXXX=            -41.3444 YYYY=            -41.3043 ZZZZ=           -761.7196 XXXY=             -0.0054
 XXXZ=             -0.0374 YYYX=             -0.0240 YYYZ=              0.5242 ZZZX=             -0.0399
 ZZZY=             -0.1821 XXYY=            -13.7754 XXZZ=           -103.4077 YYZZ=           -103.4025
 XXYZ=             -0.6816 YYXZ=             -0.0080 ZZXY=             -0.0060
 N-N= 8.494868069081D+01 E-N=-1.604102253965D+03  KE= 5.991827610852D+02
 1\1\GINC-TRAPISTA\SP\RQCISD-FC\Aug-CC-pVTZ\C1H3Cl1F1(1-)\BRUNS\10-Aug-
 2021\0\\# QCISD aug-cc-pvtz nosymm density=current output=wfn\\title l
 ine\\-1,1\C,0,0.000175,0.000029,-0.497709\H,0,0.000019,-1.05257,-0.620
 726\H,0,-0.911312,0.526365,-0.621245\H,0,0.92175,0.526132,-0.62157\Cl,
 0,0.000555,0.000962,1.644718\F,0,-0.000186,-0.000921,-2.59346\\Version
 =EM64L-G09RevB.01\HF=-598.6170663\MP2=-599.291341\MP3=-599.3100313\MP4
 D=-599.3249393\MP4DQ=-599.3104881\MP4SDQ=-599.3198647\QCISD=-599.31924
 82\RMSD=9.365e-09\Dipole=0.0014572,0.0003571,1.5865699\Quadrupole=8.59
 44433,8.5787398,-17.1731831,0.0005883,-0.0040841,-0.0095565\PG=C01 [X(
 C1H3Cl1F1)]\\@

 Writing a WFN file to GAUSSIAN+XH_4.wfn.


 BETTER TO HUNT IN FIELDS, FOR HEALTH UNBOUGHT
 THAN FEE THE DOCTOR FOR A NAUSEOUS DRAUGHT.
 THE WISE, FOR CURE, ON EXERCISE DEPEND;
 GOD NEVER MADE HIS WORK FOR MAN TO MEND.
     -- JOHN DRYDEN (1631-1700)
 Job cpu time:  0 days  9 hours 16 minutes 55.8 seconds.
 File lengths (MBytes):  RWF=  29002 Int=      0 D2E=      0 Chk=      4 Scr=      1
 Normal termination of Gaussian 09 at Tue Aug 10 21:51:27 2021.
