 title line
GAUSSIAN            211 MOL ORBITALS    339 PRIMITIVES        6 NUCLEI
  C    1    (CENTRE  1)   0.01922796  0.00005480 -0.94053370  CHARGE =  6.0
  H    2    (CENTRE  2)   0.00003590 -1.98906904 -1.17300214  CHARGE =  1.0
  H    3    (CENTRE  3)  -1.72213010  0.99468570 -1.17398291  CHARGE =  1.0
  H    4    (CENTRE  4)   1.72295780  0.99424539 -1.17459707  CHARGE =  1.0
  Cl   5    (CENTRE  5)   0.00104880  0.00181792  3.10806659  CHARGE = 17.0
  F    6    (CENTRE  6)  -0.00035149 -0.00174044 -4.90092914  CHARGE =  9.0
CENTRE ASSIGNMENTS    1  1  1  1  1  1  1  1  1  1  1  1  1  1  1  1  1  1  1  1
CENTRE ASSIGNMENTS    1  1  1  1  1  1  1  1  1  1  1  1  1  1  1  1  1  1  1  1
CENTRE ASSIGNMENTS    1  1  1  1  1  1  1  1  1  1  1  1  1  1  1  1  1  1  1  1
CENTRE ASSIGNMENTS    1  1  1  1  1  1  1  1  1  1  1  1  2  2  2  2  2  2  2  2
CENTRE ASSIGNMENTS    2  2  2  2  2  2  2  2  2  2  2  2  2  2  2  2  2  2  2  3
CENTRE ASSIGNMENTS    3  3  3  3  3  3  3  3  3  3  3  3  3  3  3  3  3  3  3  3
CENTRE ASSIGNMENTS    3  3  3  3  3  3  4  4  4  4  4  4  4  4  4  4  4  4  4  4
CENTRE ASSIGNMENTS    4  4  4  4  4  4  4  4  4  4  4  4  4  5  5  5  5  5  5  5
CENTRE ASSIGNMENTS    5  5  5  5  5  5  5  5  5  5  5  5  5  5  5  5  5  5  5  5
CENTRE ASSIGNMENTS    5  5  5  5  5  5  5  5  5  5  5  5  5  5  5  5  5  5  5  5
CENTRE ASSIGNMENTS    5  5  5  5  5  5  5  5  5  5  5  5  5  5  5  5  5  5  5  5
CENTRE ASSIGNMENTS    5  5  5  5  5  5  5  5  5  5  5  5  5  5  5  5  5  5  5  5
CENTRE ASSIGNMENTS    5  5  5  5  5  5  5  5  5  5  5  5  5  5  5  5  5  5  5  5
CENTRE ASSIGNMENTS    5  5  5  5  5  5  5  6  6  6  6  6  6  6  6  6  6  6  6  6
CENTRE ASSIGNMENTS    6  6  6  6  6  6  6  6  6  6  6  6  6  6  6  6  6  6  6  6
CENTRE ASSIGNMENTS    6  6  6  6  6  6  6  6  6  6  6  6  6  6  6  6  6  6  6  6
CENTRE ASSIGNMENTS    6  6  6  6  6  6  6  6  6  6  6  6  6  6  6  6  6  6  6
TYPE ASSIGNMENTS      1  1  1  1  1  1  1  1  1  1  1  1  1  1  1  1  2  2  2  3
TYPE ASSIGNMENTS      3  3  4  4  4  2  3  4  2  3  4  2  3  4  5  6  7  8  9 10
TYPE ASSIGNMENTS      5  6  7  8  9 10  5  6  7  8  9 10 11 12 13 17 14 15 18 19
TYPE ASSIGNMENTS     16 20 11 12 13 17 14 15 18 19 16 20  1  1  1  1  1  1  2  3
TYPE ASSIGNMENTS      4  2  3  4  2  3  4  5  6  7  8  9 10  5  6  7  8  9 10  1
TYPE ASSIGNMENTS      1  1  1  1  1  2  3  4  2  3  4  2  3  4  5  6  7  8  9 10
TYPE ASSIGNMENTS      5  6  7  8  9 10  1  1  1  1  1  1  2  3  4  2  3  4  2  3
TYPE ASSIGNMENTS      4  5  6  7  8  9 10  5  6  7  8  9 10  1  1  1  1  1  1  1
TYPE ASSIGNMENTS      1  1  1  1  1  1  1  1  1  1  1  1  1  1  1  1  1  1  1  1
TYPE ASSIGNMENTS      1  1  1  1  2  2  2  2  2  2  3  3  3  3  3  3  4  4  4  4
TYPE ASSIGNMENTS      4  4  2  2  2  2  2  2  3  3  3  3  3  3  4  4  4  4  4  4
TYPE ASSIGNMENTS      2  3  4  2  3  4  2  3  4  5  6  7  8  9 10  5  6  7  8  9
TYPE ASSIGNMENTS     10  5  6  7  8  9 10 11 12 13 17 14 15 18 19 16 20 11 12 13
TYPE ASSIGNMENTS     17 14 15 18 19 16 20  1  1  1  1  1  1  1  1  1  1  1  1  1
TYPE ASSIGNMENTS      1  1  1  2  2  2  3  3  3  4  4  4  2  3  4  2  3  4  2  3
TYPE ASSIGNMENTS      4  5  6  7  8  9 10  5  6  7  8  9 10  5  6  7  8  9 10 11
TYPE ASSIGNMENTS     12 13 17 14 15 18 19 16 20 11 12 13 17 14 15 18 19 16 20
EXPONENTS  0.8236000D+04 0.1235000D+04 0.2808000D+03 0.7927000D+02 0.2559000D+02
EXPONENTS  0.8997000D+01 0.3319000D+01 0.2808000D+03 0.7927000D+02 0.2559000D+02
EXPONENTS  0.8997000D+01 0.3319000D+01 0.3643000D+00 0.9059000D+00 0.1285000D+00
EXPONENTS  0.4402000D-01 0.1871000D+02 0.4133000D+01 0.1200000D+01 0.1871000D+02
EXPONENTS  0.4133000D+01 0.1200000D+01 0.1871000D+02 0.4133000D+01 0.1200000D+01
EXPONENTS  0.3827000D+00 0.3827000D+00 0.3827000D+00 0.1209000D+00 0.1209000D+00
EXPONENTS  0.1209000D+00 0.3569000D-01 0.3569000D-01 0.3569000D-01 0.1097000D+01
EXPONENTS  0.1097000D+01 0.1097000D+01 0.1097000D+01 0.1097000D+01 0.1097000D+01
EXPONENTS  0.3180000D+00 0.3180000D+00 0.3180000D+00 0.3180000D+00 0.3180000D+00
EXPONENTS  0.3180000D+00 0.1000000D+00 0.1000000D+00 0.1000000D+00 0.1000000D+00
EXPONENTS  0.1000000D+00 0.1000000D+00 0.7610000D+00 0.7610000D+00 0.7610000D+00
EXPONENTS  0.7610000D+00 0.7610000D+00 0.7610000D+00 0.7610000D+00 0.7610000D+00
EXPONENTS  0.7610000D+00 0.7610000D+00 0.2680000D+00 0.2680000D+00 0.2680000D+00
EXPONENTS  0.2680000D+00 0.2680000D+00 0.2680000D+00 0.2680000D+00 0.2680000D+00
EXPONENTS  0.2680000D+00 0.2680000D+00 0.3387000D+02 0.5095000D+01 0.1159000D+01
EXPONENTS  0.3258000D+00 0.1027000D+00 0.2526000D-01 0.1407000D+01 0.1407000D+01
EXPONENTS  0.1407000D+01 0.3880000D+00 0.3880000D+00 0.3880000D+00 0.1020000D+00
EXPONENTS  0.1020000D+00 0.1020000D+00 0.1057000D+01 0.1057000D+01 0.1057000D+01
EXPONENTS  0.1057000D+01 0.1057000D+01 0.1057000D+01 0.2470000D+00 0.2470000D+00
EXPONENTS  0.2470000D+00 0.2470000D+00 0.2470000D+00 0.2470000D+00 0.3387000D+02
EXPONENTS  0.5095000D+01 0.1159000D+01 0.3258000D+00 0.1027000D+00 0.2526000D-01
EXPONENTS  0.1407000D+01 0.1407000D+01 0.1407000D+01 0.3880000D+00 0.3880000D+00
EXPONENTS  0.3880000D+00 0.1020000D+00 0.1020000D+00 0.1020000D+00 0.1057000D+01
EXPONENTS  0.1057000D+01 0.1057000D+01 0.1057000D+01 0.1057000D+01 0.1057000D+01
EXPONENTS  0.2470000D+00 0.2470000D+00 0.2470000D+00 0.2470000D+00 0.2470000D+00
EXPONENTS  0.2470000D+00 0.3387000D+02 0.5095000D+01 0.1159000D+01 0.3258000D+00
EXPONENTS  0.1027000D+00 0.2526000D-01 0.1407000D+01 0.1407000D+01 0.1407000D+01
EXPONENTS  0.3880000D+00 0.3880000D+00 0.3880000D+00 0.1020000D+00 0.1020000D+00
EXPONENTS  0.1020000D+00 0.1057000D+01 0.1057000D+01 0.1057000D+01 0.1057000D+01
EXPONENTS  0.1057000D+01 0.1057000D+01 0.2470000D+00 0.2470000D+00 0.2470000D+00
EXPONENTS  0.2470000D+00 0.2470000D+00 0.2470000D+00 0.4561000D+06 0.6833000D+05
EXPONENTS  0.1555000D+05 0.4405000D+04 0.1439000D+04 0.5204000D+03 0.2031000D+03
EXPONENTS  0.8396000D+02 0.3620000D+02 0.1583000D+02 0.6334000D+01 0.4405000D+04
EXPONENTS  0.1439000D+04 0.5204000D+03 0.2031000D+03 0.8396000D+02 0.3620000D+02
EXPONENTS  0.1583000D+02 0.6334000D+01 0.2694000D+01 0.1439000D+04 0.2031000D+03
EXPONENTS  0.8396000D+02 0.3620000D+02 0.1583000D+02 0.6334000D+01 0.2694000D+01
EXPONENTS  0.4313000D+00 0.9768000D+00 0.1625000D+00 0.5910000D-01 0.6633000D+03
EXPONENTS  0.1568000D+03 0.4998000D+02 0.1842000D+02 0.7240000D+01 0.2922000D+01
EXPONENTS  0.6633000D+03 0.1568000D+03 0.4998000D+02 0.1842000D+02 0.7240000D+01
EXPONENTS  0.2922000D+01 0.6633000D+03 0.1568000D+03 0.4998000D+02 0.1842000D+02
EXPONENTS  0.7240000D+01 0.2922000D+01 0.1568000D+03 0.4998000D+02 0.1842000D+02
EXPONENTS  0.7240000D+01 0.2922000D+01 0.3818000D+00 0.1568000D+03 0.4998000D+02
EXPONENTS  0.1842000D+02 0.7240000D+01 0.2922000D+01 0.3818000D+00 0.1568000D+03
EXPONENTS  0.4998000D+02 0.1842000D+02 0.7240000D+01 0.2922000D+01 0.3818000D+00
EXPONENTS  0.1022000D+01 0.1022000D+01 0.1022000D+01 0.1301000D+00 0.1301000D+00
EXPONENTS  0.1301000D+00 0.4190000D-01 0.4190000D-01 0.4190000D-01 0.1046000D+01
EXPONENTS  0.1046000D+01 0.1046000D+01 0.1046000D+01 0.1046000D+01 0.1046000D+01
EXPONENTS  0.3440000D+00 0.3440000D+00 0.3440000D+00 0.3440000D+00 0.3440000D+00
EXPONENTS  0.3440000D+00 0.1350000D+00 0.1350000D+00 0.1350000D+00 0.1350000D+00
EXPONENTS  0.1350000D+00 0.1350000D+00 0.7060000D+00 0.7060000D+00 0.7060000D+00
EXPONENTS  0.7060000D+00 0.7060000D+00 0.7060000D+00 0.7060000D+00 0.7060000D+00
EXPONENTS  0.7060000D+00 0.7060000D+00 0.3120000D+00 0.3120000D+00 0.3120000D+00
EXPONENTS  0.3120000D+00 0.3120000D+00 0.3120000D+00 0.3120000D+00 0.3120000D+00
EXPONENTS  0.3120000D+00 0.3120000D+00 0.1950000D+05 0.2923000D+04 0.6645000D+03
EXPONENTS  0.1875000D+03 0.6062000D+02 0.2142000D+02 0.7950000D+01 0.6645000D+03
EXPONENTS  0.1875000D+03 0.6062000D+02 0.2142000D+02 0.7950000D+01 0.8815000D+00
EXPONENTS  0.2257000D+01 0.3041000D+00 0.9158000D-01 0.4388000D+02 0.9926000D+01
EXPONENTS  0.2930000D+01 0.4388000D+02 0.9926000D+01 0.2930000D+01 0.4388000D+02
EXPONENTS  0.9926000D+01 0.2930000D+01 0.9132000D+00 0.9132000D+00 0.9132000D+00
EXPONENTS  0.2672000D+00 0.2672000D+00 0.2672000D+00 0.7361000D-01 0.7361000D-01
EXPONENTS  0.7361000D-01 0.3107000D+01 0.3107000D+01 0.3107000D+01 0.3107000D+01
EXPONENTS  0.3107000D+01 0.3107000D+01 0.8550000D+00 0.8550000D+00 0.8550000D+00
EXPONENTS  0.8550000D+00 0.8550000D+00 0.8550000D+00 0.2920000D+00 0.2920000D+00
EXPONENTS  0.2920000D+00 0.2920000D+00 0.2920000D+00 0.2920000D+00 0.1917000D+01
EXPONENTS  0.1917000D+01 0.1917000D+01 0.1917000D+01 0.1917000D+01 0.1917000D+01
EXPONENTS  0.1917000D+01 0.1917000D+01 0.1917000D+01 0.1917000D+01 0.7240000D+00
EXPONENTS  0.7240000D+00 0.7240000D+00 0.7240000D+00 0.7240000D+00 0.7240000D+00
EXPONENTS  0.7240000D+00 0.7240000D+00 0.7240000D+00 0.7240000D+00
MO    1     MO 0.0        OCC NO =    2.0000300  ORB. ENERGY =    0.000000
  0.36344915D-04  0.67754244D-04  0.11451390D-03  0.17213575D-03  0.21143794D-03
  0.17844616D-03  0.67100418D-04 -0.50073886D-07 -0.37427128D-06 -0.13987372D-05
 -0.39022590D-05 -0.52279513D-05  0.61732356D-05  0.11909549D-04 -0.29283240D-04
 -0.39435587D-05  0.77812280D-04  0.72953959D-04  0.51947565D-04 -0.77217429D-04
 -0.72396248D-04 -0.51550441D-04  0.69763715D-05  0.65407918D-05  0.46574334D-05
  0.24428185D-03 -0.24311686D-03  0.47702289D-05  0.32170505D-03 -0.31987778D-03
  0.18730425D-06  0.67410481D-05 -0.67047543D-05  0.38905856D-07 -0.41567343D-04
  0.44009936D-04 -0.24425931D-05  0.85952031D-04 -0.36278875D-03  0.36065439D-03
 -0.13808973D-03  0.13218250D-03  0.59072247D-05  0.27199707D-03  0.69936274D-04
 -0.69804278D-04 -0.27724531D-04  0.29734679D-04 -0.20101484D-05  0.57761522D-04
 -0.45950718D-04  0.45601966D-04  0.65764313D-04 -0.64147225D-04 -0.24587377D-05
  0.62061490D-04 -0.65309272D-04 -0.13096938D-04 -0.25935443D-03  0.25775095D-03
  0.20473151D-04  0.33399572D-04 -0.18113888D-04  0.21000466D-04  0.27355286D-06
 -0.20058022D-04  0.10982986D-04 -0.37396345D-04  0.74399686D-04 -0.73984384D-04
  0.36575686D-04  0.74483712D-04  0.27973569D-04  0.50451483D-04  0.74390682D-04
 -0.22844657D-03 -0.77798684D-03  0.85926758D-05  0.37469511D-05 -0.47469381D-04
 -0.15392455D-04  0.57314234D-04 -0.19326652D-03 -0.19192988D-03  0.51249561D-04
 -0.11830877D-03 -0.16151650D-04  0.75315859D-04 -0.27626687D-04 -0.47689172D-04
  0.20303201D-04 -0.34996513D-04 -0.21022045D-03  0.28973850D-04  0.80006979D-05
 -0.36974548D-04  0.19793604D-04  0.43471833D-04 -0.22059720D-04 -0.38683865D-04
 -0.69767943D-04 -0.10287279D-03  0.35918721D-03  0.10643423D-02 -0.11426490D-04
  0.56907680D-04 -0.34662258D-04  0.20673518D-04  0.22819501D-03 -0.15500431D-03
  0.26569110D-03  0.13409705D-03 -0.98059613D-04  0.23101142D-04  0.41650353D-06
 -0.66610443D-04  0.66193939D-04 -0.13081958D-03  0.25493992D-03 -0.13169388D-03
 -0.22644747D-04 -0.31818158D-04  0.54462905D-04 -0.29864063D-04  0.18518370D-04
 -0.28310165D-04  0.10330749D-04  0.18631932D-04  0.27472772D-04 -0.72426146D-04
 -0.28921012D-03  0.33002065D-05  0.17108102D-04  0.46579243D-05 -0.59696658D-05
  0.99031909D-04 -0.33243127D-04 -0.70470735D-04  0.73430196D-04 -0.41050213D-04
 -0.57606861D-05 -0.11825873D-04  0.29463004D-04 -0.17637131D-04 -0.18517866D-04
  0.45485054D-04  0.78148666D-04 -0.73134186D-05  0.20016449D-04 -0.12703031D-04
  0.74049745D-05  0.37422625D-04 -0.48514620D-04  0.95145322D-04  0.17800675D-03
  0.30755617D-03  0.49858469D-03  0.75714870D-03  0.10523655D-02  0.12511819D-02
  0.11145963D-02  0.55353209D-03  0.89113984D-04  0.94020517D-06  0.45026726D-06
  0.15020162D-04  0.52342258D-04  0.18849295D-03  0.41550924D-03  0.58490291D-03
 -0.27901775D-04 -0.76544703D-03 -0.45260404D-03  0.34743150D-08  0.42082439D-07
  0.87758490D-07  0.25167607D-06  0.13069188D-07 -0.10853493D-05 -0.28043341D-05
  0.22848394D-05 -0.27631317D-04  0.12188093D-04  0.14950024D-05  0.82345786D+01
  0.10846866D+02  0.11965792D+02  0.99385268D+01  0.52776335D+01  0.13616570D+01
 -0.81851825D+01 -0.10781800D+02 -0.11894013D+02 -0.98789093D+01 -0.52459750D+01
 -0.13534890D+01  0.66639175D-01  0.87779383D-01  0.96834400D-01  0.80428551D-01
  0.42709792D-01  0.11019350D-01 -0.32589456D-03  0.31505389D-02  0.44425887D-02
  0.63540770D-02 -0.32176152D-04 -0.58272879D-02  0.32393635D-03 -0.31316082D-02
 -0.44158945D-02 -0.63158973D-02  0.31982815D-04  0.57922735D-02 -0.28108479D-05
  0.27173469D-04  0.38317428D-04  0.54804058D-04 -0.27752003D-06 -0.50260490D-04
  0.54359005D-01 -0.54032866D-01  0.44471525D-03 -0.45736674D-03  0.45469409D-03
 -0.62935342D-05 -0.41175124D-04  0.40930550D-04 -0.39992696D-06 -0.35270135D-05
  0.99440474D-05 -0.64170339D-05  0.13017935D-04 -0.69535156D-03  0.69118903D-03
  0.14766362D-05 -0.38285342D-05  0.23518981D-05 -0.51289510D-05  0.25157565D-03
 -0.25004916D-03 -0.78125807D-06  0.99013245D-06 -0.20887438D-06  0.17489452D-05
 -0.43046822D-04  0.42756282D-04  0.15913036D-05 -0.19717634D-05  0.14777464D-07
  0.17352011D-05 -0.45236979D-06 -0.25287221D-04 -0.65091119D-05  0.63676599D-05
  0.25242889D-04  0.50835586D-04  0.10378549D-04 -0.10178074D-04 -0.17577085D-06
  0.10323320D-04 -0.10705206D-04  0.56343963D-05 -0.41458966D-04  0.41239426D-04
 -0.51070837D-05 -0.10899889D-04 -0.12883819D-04 -0.24015461D-04 -0.40711557D-04
 -0.61642803D-04 -0.77067080D-04 -0.66291509D-04 -0.25424220D-04  0.18033505D-07
  0.23872984D-06  0.86711022D-06  0.25722661D-05  0.29640172D-05 -0.36002403D-05
 -0.56653901D-06  0.72647987D-05  0.80532840D-05 -0.20803198D-03 -0.20345073D-03
 -0.13442850D-03  0.20696387D-03  0.20240614D-03  0.13373830D-03  0.23163592D-04
  0.22653488D-04  0.14968117D-04 -0.72436457D-05  0.72129332D-05  0.25527830D-05
 -0.46476330D-04  0.46221722D-04  0.63508846D-05 -0.13974287D-04  0.13901169D-04
  0.10813412D-05 -0.48622130D-04  0.50930331D-04 -0.23082015D-05  0.10008237D-03
 -0.95219056D-04  0.94668352D-04  0.24551342D-04 -0.25596061D-04  0.10447189D-05
 -0.50381653D-04  0.72596897D-04 -0.72159066D-04 -0.12968641D-04  0.12734274D-04
  0.23436710D-06  0.25797904D-04 -0.51679271D-04  0.51342908D-04 -0.48942226D-04
  0.48023188D-04  0.13676948D-05 -0.49352355D-04  0.50430129D-04  0.13396278D-03
  0.19617903D-03 -0.19449969D-03 -0.13806586D-03 -0.27292897D-03  0.17363722D-04
 -0.17073356D-04 -0.30065472D-06  0.17500076D-04 -0.17787107D-04 -0.42836776D-04
 -0.69591241D-04  0.69007175D-04  0.43738741D-04  0.86838808D-04
MO    2     MO 0.0        OCC NO =    2.0000300  ORB. ENERGY =    0.000000
 -0.36709138D-04 -0.68433228D-04 -0.11566148D-03 -0.17386077D-03 -0.21355682D-03
 -0.18023442D-03 -0.67772850D-04  0.50426707D-07  0.37690839D-06  0.14085927D-05
  0.39297544D-05  0.52647874D-05 -0.62167323D-05 -0.12006805D-04  0.27702782D-04
  0.36897357D-05 -0.79497212D-04 -0.74533690D-04 -0.53072427D-04 -0.79856347D-04
 -0.74870401D-04 -0.53312186D-04 -0.70272759D-05 -0.65885178D-05 -0.46914172D-05
 -0.26878590D-03 -0.27073936D-03 -0.43927149D-05 -0.33377035D-03 -0.33590757D-03
  0.13329105D-06 -0.64504755D-05 -0.64942373D-05 -0.39657678D-07 -0.49353207D-04
  0.47313789D-04  0.20394189D-05 -0.95804402D-04  0.35795861D-03  0.36017812D-03
 -0.13634693D-03  0.14205776D-03 -0.57108280D-05 -0.27639549D-03 -0.67927359D-04
 -0.68646416D-04 -0.30374443D-04  0.28464292D-04  0.19101503D-05 -0.58346128D-04
  0.47718842D-04  0.47939614D-04 -0.65301234D-04 -0.67045227D-04  0.22184243D-05
 -0.69375045D-04 -0.65720214D-04 -0.22001805D-04  0.26527875D-03  0.26685589D-03
  0.15346532D-04 -0.36673983D-04  0.19854341D-04  0.17014871D-04 -0.22722354D-06
  0.17661512D-04  0.26673585D-04 -0.33901553D-04 -0.77224536D-04 -0.77718197D-04
  0.34583224D-04 -0.68018802D-04  0.28722877D-04  0.51802892D-04  0.76383334D-04
 -0.29054085D-03 -0.81336936D-03  0.85652736D-05 -0.26010781D-05 -0.54076021D-04
 -0.18689053D-04 -0.61220822D-04 -0.21477008D-03 -0.19102234D-03 -0.55494156D-04
 -0.12571866D-03 -0.15245232D-04  0.80770160D-04 -0.32778383D-04 -0.47991777D-04
 -0.23108119D-04  0.31325867D-04 -0.21074834D-03  0.32521341D-04  0.89321697D-05
 -0.41453511D-04 -0.21235800D-04 -0.43039228D-04 -0.22099692D-04  0.10465977D-04
  0.18875821D-04  0.27832387D-04 -0.11640712D-03 -0.29214816D-03  0.30048266D-05
 -0.19232128D-04  0.63295564D-05 -0.66610466D-05 -0.11106955D-03 -0.32066337D-04
 -0.69394559D-04 -0.76686297D-04 -0.40676524D-04 -0.57272255D-05 -0.16046332D-04
  0.33588961D-04 -0.17542629D-04  0.20474498D-04 -0.42617964D-04  0.77142724D-04
 -0.66753327D-05  0.22548670D-04 -0.15873337D-04 -0.65768044D-05 -0.35753147D-04
 -0.46016899D-04 -0.38759351D-04 -0.69904086D-04 -0.10307353D-03  0.35124436D-03
  0.11089796D-02 -0.12012477D-04 -0.61973208D-04 -0.36746763D-04  0.26223022D-04
 -0.23330015D-03 -0.16052030D-03  0.25737217D-03 -0.13484170D-03 -0.10245127D-03
  0.19944986D-04  0.12101915D-05 -0.66118510D-04  0.64908319D-04  0.13243807D-03
 -0.25523795D-03 -0.13447695D-03 -0.22296792D-04 -0.30557339D-04  0.52854131D-04
  0.30258550D-04 -0.17784520D-04 -0.29128262D-04 -0.93727113D-04 -0.17535343D-03
 -0.30297183D-03 -0.49115293D-03 -0.74586286D-03 -0.10366792D-02 -0.12325321D-02
 -0.10979824D-02 -0.54528130D-03 -0.87785676D-04 -0.92619074D-06 -0.44351806D-06
 -0.14795020D-04 -0.51557682D-04 -0.18566756D-03 -0.40928103D-03 -0.57613560D-03
  0.27483546D-04  0.75397349D-03  0.44581980D-03 -0.35345170D-08 -0.42811633D-07
 -0.89279147D-07 -0.25603705D-06 -0.13295647D-07  0.11041559D-05  0.28529269D-05
 -0.23244305D-05  0.27244946D-04 -0.11818032D-04 -0.13200752D-05 -0.81849239D+01
 -0.10781459D+02 -0.11893638D+02 -0.98785972D+01 -0.52458092D+01 -0.13534462D+01
 -0.82348073D+01 -0.10847168D+02 -0.11966124D+02 -0.99388028D+01 -0.52777801D+01
 -0.13616948D+01 -0.59414509D-01 -0.78262807D-01 -0.86336127D-01 -0.71708914D-01
 -0.38079423D-01 -0.98246902D-02  0.32395628D-03 -0.31318009D-02 -0.44161661D-02
 -0.63162858D-02  0.31984782D-04  0.57926298D-02  0.32592749D-03 -0.31508573D-02
 -0.44430376D-02 -0.63547192D-02  0.32179403D-04  0.58278768D-02  0.25210266D-05
 -0.24371664D-04 -0.34366590D-04 -0.49153314D-04  0.24890546D-06  0.45078225D-04
 -0.54040761D-01 -0.54370059D-01 -0.39703266D-03  0.45256534D-03  0.45539610D-03
  0.57437054D-05  0.40783551D-04  0.41034562D-04  0.35404321D-06 -0.13996159D-04
  0.81987554D-05  0.57974034D-05 -0.21501143D-04  0.69192211D-03  0.69615018D-03
  0.46743272D-05 -0.25545853D-05 -0.21197419D-05  0.69662376D-05 -0.25233266D-03
 -0.25385469D-03 -0.10055758D-05  0.82628696D-06  0.17928879D-06 -0.17844626D-05
  0.43392983D-04  0.43625530D-04 -0.17751282D-05 -0.13495800D-05 -0.27196920D-07
 -0.16680117D-05 -0.28876339D-05 -0.24159225D-04  0.69933962D-05  0.69363739D-05
  0.24240816D-04 -0.48033988D-04 -0.10361947D-04 -0.10576371D-04  0.14582814D-06
 -0.10409972D-04 -0.10047388D-04  0.44524633D-05  0.41495813D-04  0.41776500D-04
 -0.48899477D-05  0.93656011D-05  0.12916839D-04  0.24077009D-04  0.40815895D-04
  0.61800785D-04  0.77264593D-04  0.66461405D-04  0.25489379D-04 -0.17980668D-07
 -0.23803038D-06 -0.86456966D-06 -0.25647296D-05 -0.29553328D-05  0.35896919D-05
  0.57541605D-06 -0.72059069D-05 -0.78862714D-05  0.20329895D-03  0.19882193D-03
  0.13137006D-03  0.20469594D-03  0.20018816D-03  0.13227278D-03 -0.23373921D-04
 -0.22859184D-04 -0.15104029D-04  0.49114580D-05  0.49534839D-05 -0.25794005D-05
  0.47882776D-04  0.48191917D-04 -0.63873768D-05  0.13659272D-04  0.13752106D-04
 -0.10737738D-05 -0.51590750D-04  0.49347070D-04  0.22436800D-05 -0.10010680D-03
  0.91631790D-04  0.92213340D-04  0.25709533D-04 -0.24732465D-04 -0.97706871D-06
  0.49993214D-04 -0.71280262D-04 -0.71713242D-04 -0.12451684D-04  0.12767339D-04
 -0.31565541D-06 -0.24966665D-04  0.53064199D-04  0.53359825D-04  0.52188051D-04
  0.52881567D-04 -0.10168945D-05  0.52066994D-04  0.50764928D-04  0.13201205D-03
 -0.20863115D-03 -0.20940963D-03 -0.12896137D-03  0.25822774D-03 -0.18553047D-04
 -0.18770376D-04  0.17320531D-06 -0.18508839D-04 -0.18144896D-04 -0.41576472D-04
  0.74167980D-04  0.74456023D-04  0.41056856D-04 -0.81737933D-04
MO    3     MO 0.0        OCC NO =    2.0000210  ORB. ENERGY =    0.000000
 -0.14457046D-01 -0.26950846D-01 -0.45550601D-01 -0.68471050D-01 -0.84104421D-01
 -0.70981164D-01 -0.26690771D-01 -0.38132167D-05 -0.28501433D-04 -0.10651636D-03
 -0.29716406D-03 -0.39811791D-03  0.47010302D-03 -0.87258835D-03 -0.19331553D-02
 -0.81886030D-04  0.41227396D-05  0.38653304D-05  0.27523455D-05  0.53474786D-06
  0.50136011D-06  0.35699826D-06  0.11669951D-02  0.10941321D-02  0.77908725D-03
 -0.21052302D-04  0.28553778D-07  0.60712940D-03  0.81315619D-06 -0.22048884D-06
 -0.37910699D-03 -0.12016965D-06  0.34524434D-08  0.46730768D-05 -0.10554229D-03
 -0.10559124D-03  0.21113353D-03 -0.90462485D-05 -0.95358122D-06  0.31860651D-06
 -0.23955833D-04 -0.23925175D-04  0.47881008D-04 -0.10571495D-04  0.71615170D-05
  0.14215596D-06  0.11388559D-04  0.11428970D-04 -0.22817529D-04  0.66999465D-06
  0.10161649D-05 -0.25167698D-07 -0.35049676D-06  0.36210862D-04  0.77242816D-05
 -0.28823424D-06 -0.10867666D-03 -0.11536818D-04  0.13397245D-05  0.44075038D-07
 -0.11636027D-04  0.45410726D-05 -0.15415834D-06  0.51814930D-04 -0.85652703D-04
 -0.72966129D-07 -0.15518199D-03  0.12854218D-03  0.53544115D-06 -0.26279964D-06
  0.12841593D-03  0.17804377D-05 -0.48416578D-05 -0.87321292D-05 -0.12875519D-04
  0.75176429D-03  0.23552219D-03  0.50598056D-05  0.53411790D-06  0.95733853D-04
  0.28400420D-04  0.63906218D-05  0.19904544D-03 -0.43243173D-05  0.12820448D-05
  0.43984529D-04  0.38740789D-04 -0.73831214D-04  0.54169427D-04  0.19661788D-04
  0.50442853D-05  0.18157465D-05  0.75907301D-04 -0.96000625D-05 -0.12039352D-04
  0.21639415D-04 -0.14402810D-07 -0.67700969D-07 -0.34536872D-04 -0.60104986D-05
 -0.10840182D-04 -0.15983842D-04  0.73557720D-03  0.22973419D-03  0.46974499D-05
  0.80425871D-04 -0.46167283D-04  0.26747905D-04  0.16933518D-03 -0.94245178D-04
 -0.15268612D-05  0.37073270D-04 -0.20716743D-04  0.39290205D-04  0.22477442D-04
 -0.42890078D-04  0.20412636D-04 -0.10832218D-03  0.65947035D-04 -0.36978640D-04
 -0.11858159D-04 -0.99263959D-05  0.21784555D-04  0.32813518D-05 -0.29457049D-04
  0.16995903D-04 -0.36083392D-05 -0.65077883D-05 -0.95957301D-05  0.76871596D-03
  0.24216347D-03  0.54161464D-05 -0.85326773D-04 -0.49570609D-04  0.30232259D-04
 -0.17553935D-03 -0.10513485D-03 -0.69787427D-05 -0.39118563D-04 -0.23362355D-04
  0.38225307D-04  0.21671413D-04 -0.40824891D-04  0.19153477D-04  0.11325361D-03
 -0.65661560D-04 -0.38883778D-04 -0.10971924D-04 -0.10493837D-04  0.21465761D-04
 -0.78550407D-06  0.30431780D-04  0.17621838D-04 -0.15460725D+00 -0.28925366D+00
 -0.49976617D+00 -0.81017967D+00 -0.12303356D+01 -0.17100507D+01 -0.20331192D+01
 -0.18111733D+01 -0.89946695D+00 -0.14480657D+00 -0.15277948D-02 -0.72286387D-03
 -0.24113528D-01 -0.84030819D-01 -0.30260859D+00 -0.66706297D+00 -0.93900936D+00
  0.44793807D-01  0.12288568D+01  0.72661535D+00 -0.15531847D-04 -0.18812859D-03
 -0.39232235D-03 -0.11251122D-02 -0.58425509D-04  0.48520294D-02  0.12536712D-01
 -0.10214323D-01  0.46601449D-01 -0.38464612D-03 -0.13208276D-03 -0.38159996D-01
 -0.50265641D-01 -0.55450871D-01 -0.46056290D-01 -0.24457168D-01 -0.63100772D-02
  0.24437007D-02  0.32189254D-02  0.35509786D-02  0.29493658D-02  0.15661951D-02
  0.40408652D-03  0.59407605D+01  0.78253713D+01  0.86326095D+01  0.71700581D+01
  0.38074998D+01  0.98235485D+00  0.12410722D-05 -0.11997887D-04 -0.16918273D-04
 -0.24197606D-04  0.12253327D-06  0.22191487D-04 -0.86223487D-07  0.83355319D-06
  0.11753970D-05  0.16811287D-05 -0.85129989D-08 -0.15417535D-05 -0.21076933D-03
  0.20375823D-02  0.28732037D-02  0.41094413D-02 -0.20809632D-04 -0.37687453D-02
 -0.26634829D-03  0.17123670D-04  0.41649542D-01  0.28070845D-05 -0.19939098D-06
 -0.48379384D-03  0.14247304D-06 -0.42869433D-08 -0.98334829D-05 -0.71446112D-05
 -0.71566264D-05  0.14301238D-04  0.18282500D-05 -0.38935010D-05  0.53507085D-07
 -0.11139699D-03 -0.11140328D-03  0.22280026D-03 -0.58970340D-06 -0.24740086D-05
  0.25925420D-06 -0.14317879D-04 -0.14322483D-04  0.28640361D-04 -0.51872535D-07
 -0.87631180D-06  0.34694169D-07  0.37859901D-06 -0.72076897D-05  0.54467422D-05
  0.36733653D-06  0.21622374D-04 -0.81693156D-05 -0.15031336D-05  0.69533593D-09
 -0.81709109D-05 -0.13999678D-05 -0.36809449D-06  0.20693258D-05 -0.33741675D-04
 -0.36475822D-06 -0.61360553D-05  0.50607370D-04  0.14690417D-05 -0.71922021D-07
  0.50617655D-04  0.83818389D-06 -0.87906413D-03 -0.16385771D-02 -0.27777532D-02
 -0.42058939D-02 -0.52582938D-02 -0.45230756D-02 -0.17346968D-02 -0.68401115D-06
 -0.90550269D-05 -0.32889505D-04 -0.97566097D-04 -0.11242522D-03  0.13655718D-03
 -0.95926879D-04 -0.15942357D-03  0.12337170D-04  0.22715489D-04  0.22215252D-04
  0.14678556D-04  0.17546149D-05  0.17159751D-05  0.11338173D-05  0.39016470D-02
  0.38157255D-02  0.25212112D-02  0.59759314D-05  0.37575052D-06  0.87910387D-03
 -0.71867218D-06  0.23286745D-07  0.21424185D-04  0.20849552D-06  0.28297273D-08
  0.93271428D-05 -0.35621217D-04 -0.35632507D-04  0.71253724D-04 -0.17261107D-05
  0.31018425D-05  0.10181259D-06  0.21090381D-04  0.21092740D-04 -0.42183121D-04
  0.86196405D-06 -0.98626935D-06 -0.65681148D-07  0.18094150D-04  0.18100893D-04
 -0.36195043D-04 -0.34245502D-06 -0.15558085D-05 -0.33488366D-07 -0.26568634D-05
 -0.29453360D-05  0.46277121D-04 -0.26594552D-05  0.88248306D-05 -0.69334998D-04
  0.10630045D-04  0.11177284D-07 -0.69496364D-04  0.31703039D-05  0.10006525D-05
  0.93523573D-06 -0.25336889D-04  0.10015720D-05 -0.27756648D-05  0.37977112D-04
 -0.40035296D-05 -0.30042419D-07  0.38033555D-04 -0.84852713D-06
MO    4     MO 0.0        OCC NO =    2.0000123  ORB. ENERGY =    0.000000
  0.26837580D-01  0.50030657D-01  0.84558626D-01  0.12710739D+00  0.15612866D+00
  0.13176708D+00  0.49547863D-01 -0.14523806D-05 -0.10855645D-04 -0.40570024D-04
 -0.11318405D-03 -0.15163542D-03  0.17905316D-03  0.26465151D-02 -0.36095010D-02
 -0.42151263D-04 -0.96887605D-05 -0.90838288D-05 -0.64682273D-05  0.14370995D-05
  0.13473722D-05  0.95940925D-06  0.36696828D-02  0.34405609D-02  0.24498843D-02
 -0.45220078D-04 -0.24487067D-06  0.13054878D-02 -0.61787558D-05 -0.38180876D-06
 -0.41699603D-03 -0.15900964D-06  0.37190358D-08  0.37071365D-05 -0.31928574D-03
 -0.31920632D-03  0.63849206D-03 -0.90151633D-05 -0.68918023D-05  0.99994672D-06
  0.98516007D-05  0.97902179D-05 -0.19641819D-04 -0.27348358D-04  0.17053779D-04
  0.18187117D-06 -0.17901775D-04 -0.17864909D-04  0.35766684D-04 -0.18714371D-05
  0.11587929D-05  0.46088343D-07 -0.58795639D-06 -0.42331764D-04  0.22571495D-04
 -0.64362408D-06  0.12691094D-03 -0.33915665D-04  0.24074933D-05  0.84353815D-07
 -0.33798819D-04  0.82448458D-05 -0.56441611D-06  0.81984144D-04 -0.16374898D-03
 -0.43306375D-06 -0.24546995D-03  0.24570061D-03  0.21263121D-05 -0.48247968D-06
  0.24554632D-03  0.71664707D-05 -0.90341804D-04 -0.16293516D-03 -0.24024780D-03
  0.10216390D-02  0.68370675D-03  0.42657100D-05 -0.16731170D-05 -0.57983665D-04
  0.33525087D-04  0.56058925D-05  0.30419787D-03 -0.43461046D-04 -0.61665365D-06
  0.11094810D-03  0.75816291D-04 -0.14228493D-03  0.24110614D-04  0.11817432D-03
  0.18209249D-05  0.22327568D-05  0.14242887D-03 -0.14718226D-04 -0.21044590D-04
  0.35762817D-04 -0.14632720D-05  0.77948984D-06 -0.62784167D-04 -0.89900913D-04
 -0.16214000D-03 -0.23907533D-03  0.98257248D-03  0.65556733D-03  0.38171256D-05
 -0.56510212D-04  0.31656579D-04  0.29719729D-04  0.25215204D-03 -0.14256530D-03
 -0.33971189D-04  0.92518006D-04 -0.53827254D-04  0.75666429D-04 -0.22652933D-04
 -0.10047627D-03  0.12312920D-03 -0.13324646D-03  0.12400286D-03 -0.70121366D-04
 -0.20535080D-04 -0.15673186D-04  0.36208266D-04  0.69258194D-05 -0.53120749D-04
  0.31162930D-04 -0.90730394D-04 -0.16363600D-03 -0.24128119D-03  0.10624421D-02
  0.71328373D-03  0.47078262D-05  0.43572935D-04  0.26096429D-04  0.37359571D-04
 -0.27514720D-03 -0.16221196D-03 -0.52680616D-04 -0.99660272D-04 -0.57193716D-04
  0.76134161D-04 -0.12467859D-04 -0.10089647D-03  0.11336433D-03  0.15503203D-03
 -0.12289220D-03 -0.72004955D-04 -0.18306375D-04 -0.16925665D-04  0.35232041D-04
 -0.38100189D-05  0.55714239D-04  0.31732418D-04  0.91305109D-01  0.17082212D+00
  0.29514273D+00  0.47846104D+00  0.72658900D+00  0.10098904D+01  0.12006822D+01
  0.10696095D+01  0.53119068D+00  0.85517205D-01  0.90225703D-03  0.42748897D-03
  0.14260317D-01  0.49694348D-01  0.17895739D+00  0.39448930D+00  0.55531362D+00
 -0.26490269D-01 -0.72672431D+00 -0.42970753D+00  0.62772700D-05  0.76033069D-04
  0.15855895D-03  0.45471946D-03  0.23612949D-04 -0.19609709D-02 -0.50667721D-02
  0.41281674D-02 -0.28542522D-01  0.14179559D-02 -0.18184495D-03 -0.80687146D-01
 -0.10628385D+00 -0.11724772D+00 -0.97383412D-01 -0.51713294D-01 -0.13342300D-01
  0.41504431D-02  0.54671045D-02  0.60310721D-02  0.50092776D-02  0.26600654D-02
  0.68631078D-03  0.99146098D+01  0.13059860D+02  0.14407070D+02  0.11966200D+02
  0.63543843D+01  0.16394644D+01  0.24751353D-05 -0.23928015D-04 -0.33740999D-04
 -0.48258554D-04  0.24437453D-06  0.44257646D-04 -0.14050731D-06  0.13583342D-05
  0.19153930D-05  0.27395187D-05 -0.13872537D-07 -0.25123971D-05 -0.33686146D-03
  0.32565599D-02  0.45920894D-02  0.65679026D-02 -0.33258934D-04 -0.60233861D-02
 -0.58314243D-03  0.30359349D-04  0.72557404D-01  0.20820664D-05 -0.12337017D-06
 -0.30630992D-03  0.17887965D-06 -0.21052203D-08 -0.39505939D-05  0.45442436D-03
  0.45448762D-03 -0.90891199D-03  0.18645104D-05  0.14843823D-04 -0.11102494D-05
 -0.30966174D-03 -0.30969272D-03  0.61935445D-03 -0.96571012D-06 -0.92144838D-05
  0.75480275D-06  0.43342257D-05  0.43315958D-05 -0.86658215D-05  0.23167603D-07
 -0.25578080D-06 -0.14728537D-07  0.27725359D-06 -0.14486471D-04 -0.46953222D-04
  0.25479592D-06  0.43601474D-04  0.70424189D-04 -0.10865567D-05 -0.14206114D-06
  0.70435477D-04 -0.19180407D-05 -0.61270074D-06  0.42079165D-05 -0.62597010D-04
 -0.60596119D-06 -0.12485930D-04  0.93887358D-04  0.24440634D-05 -0.13781970D-06
  0.93903674D-04  0.14837413D-05 -0.63575101D-02 -0.11850410D-01 -0.20089085D-01