 title line
GAUSSIAN            211 MOL ORBITALS    339 PRIMITIVES        6 NUCLEI
  C    1    (CENTRE  1)   0.00033070 -0.01884246 -0.94053370  CHARGE =  6.0
  H    2    (CENTRE  2)   0.00003590 -1.98906904 -1.17300214  CHARGE =  1.0
  H    3    (CENTRE  3)  -1.72213010  0.99468570 -1.17398291  CHARGE =  1.0
  H    4    (CENTRE  4)   1.72295780  0.99424539 -1.17459707  CHARGE =  1.0
  Cl   5    (CENTRE  5)   0.00104880  0.00181792  3.10806659  CHARGE = 17.0
  F    6    (CENTRE  6)  -0.00035149 -0.00174044 -4.90092914  CHARGE =  9.0
CENTRE ASSIGNMENTS    1  1  1  1  1  1  1  1  1  1  1  1  1  1  1  1  1  1  1  1
CENTRE ASSIGNMENTS    1  1  1  1  1  1  1  1  1  1  1  1  1  1  1  1  1  1  1  1
CENTRE ASSIGNMENTS    1  1  1  1  1  1  1  1  1  1  1  1  1  1  1  1  1  1  1  1
CENTRE ASSIGNMENTS    1  1  1  1  1  1  1  1  1  1  1  1  2  2  2  2  2  2  2  2
CENTRE ASSIGNMENTS    2  2  2  2  2  2  2  2  2  2  2  2  2  2  2  2  2  2  2  3
CENTRE ASSIGNMENTS    3  3  3  3  3  3  3  3  3  3  3  3  3  3  3  3  3  3  3  3
CENTRE ASSIGNMENTS    3  3  3  3  3  3  4  4  4  4  4  4  4  4  4  4  4  4  4  4
CENTRE ASSIGNMENTS    4  4  4  4  4  4  4  4  4  4  4  4  4  5  5  5  5  5  5  5
CENTRE ASSIGNMENTS    5  5  5  5  5  5  5  5  5  5  5  5  5  5  5  5  5  5  5  5
CENTRE ASSIGNMENTS    5  5  5  5  5  5  5  5  5  5  5  5  5  5  5  5  5  5  5  5
CENTRE ASSIGNMENTS    5  5  5  5  5  5  5  5  5  5  5  5  5  5  5  5  5  5  5  5
CENTRE ASSIGNMENTS    5  5  5  5  5  5  5  5  5  5  5  5  5  5  5  5  5  5  5  5
CENTRE ASSIGNMENTS    5  5  5  5  5  5  5  5  5  5  5  5  5  5  5  5  5  5  5  5
CENTRE ASSIGNMENTS    5  5  5  5  5  5  5  6  6  6  6  6  6  6  6  6  6  6  6  6
CENTRE ASSIGNMENTS    6  6  6  6  6  6  6  6  6  6  6  6  6  6  6  6  6  6  6  6
CENTRE ASSIGNMENTS    6  6  6  6  6  6  6  6  6  6  6  6  6  6  6  6  6  6  6  6
CENTRE ASSIGNMENTS    6  6  6  6  6  6  6  6  6  6  6  6  6  6  6  6  6  6  6
TYPE ASSIGNMENTS      1  1  1  1  1  1  1  1  1  1  1  1  1  1  1  1  2  2  2  3
TYPE ASSIGNMENTS      3  3  4  4  4  2  3  4  2  3  4  2  3  4  5  6  7  8  9 10
TYPE ASSIGNMENTS      5  6  7  8  9 10  5  6  7  8  9 10 11 12 13 17 14 15 18 19
TYPE ASSIGNMENTS     16 20 11 12 13 17 14 15 18 19 16 20  1  1  1  1  1  1  2  3
TYPE ASSIGNMENTS      4  2  3  4  2  3  4  5  6  7  8  9 10  5  6  7  8  9 10  1
TYPE ASSIGNMENTS      1  1  1  1  1  2  3  4  2  3  4  2  3  4  5  6  7  8  9 10
TYPE ASSIGNMENTS      5  6  7  8  9 10  1  1  1  1  1  1  2  3  4  2  3  4  2  3
TYPE ASSIGNMENTS      4  5  6  7  8  9 10  5  6  7  8  9 10  1  1  1  1  1  1  1
TYPE ASSIGNMENTS      1  1  1  1  1  1  1  1  1  1  1  1  1  1  1  1  1  1  1  1
TYPE ASSIGNMENTS      1  1  1  1  2  2  2  2  2  2  3  3  3  3  3  3  4  4  4  4
TYPE ASSIGNMENTS      4  4  2  2  2  2  2  2  3  3  3  3  3  3  4  4  4  4  4  4
TYPE ASSIGNMENTS      2  3  4  2  3  4  2  3  4  5  6  7  8  9 10  5  6  7  8  9
TYPE ASSIGNMENTS     10  5  6  7  8  9 10 11 12 13 17 14 15 18 19 16 20 11 12 13
TYPE ASSIGNMENTS     17 14 15 18 19 16 20  1  1  1  1  1  1  1  1  1  1  1  1  1
TYPE ASSIGNMENTS      1  1  1  2  2  2  3  3  3  4  4  4  2  3  4  2  3  4  2  3
TYPE ASSIGNMENTS      4  5  6  7  8  9 10  5  6  7  8  9 10  5  6  7  8  9 10 11
TYPE ASSIGNMENTS     12 13 17 14 15 18 19 16 20 11 12 13 17 14 15 18 19 16 20
EXPONENTS  0.8236000D+04 0.1235000D+04 0.2808000D+03 0.7927000D+02 0.2559000D+02
EXPONENTS  0.8997000D+01 0.3319000D+01 0.2808000D+03 0.7927000D+02 0.2559000D+02
EXPONENTS  0.8997000D+01 0.3319000D+01 0.3643000D+00 0.9059000D+00 0.1285000D+00
EXPONENTS  0.4402000D-01 0.1871000D+02 0.4133000D+01 0.1200000D+01 0.1871000D+02
EXPONENTS  0.4133000D+01 0.1200000D+01 0.1871000D+02 0.4133000D+01 0.1200000D+01
EXPONENTS  0.3827000D+00 0.3827000D+00 0.3827000D+00 0.1209000D+00 0.1209000D+00
EXPONENTS  0.1209000D+00 0.3569000D-01 0.3569000D-01 0.3569000D-01 0.1097000D+01
EXPONENTS  0.1097000D+01 0.1097000D+01 0.1097000D+01 0.1097000D+01 0.1097000D+01
EXPONENTS  0.3180000D+00 0.3180000D+00 0.3180000D+00 0.3180000D+00 0.3180000D+00
EXPONENTS  0.3180000D+00 0.1000000D+00 0.1000000D+00 0.1000000D+00 0.1000000D+00
EXPONENTS  0.1000000D+00 0.1000000D+00 0.7610000D+00 0.7610000D+00 0.7610000D+00
EXPONENTS  0.7610000D+00 0.7610000D+00 0.7610000D+00 0.7610000D+00 0.7610000D+00
EXPONENTS  0.7610000D+00 0.7610000D+00 0.2680000D+00 0.2680000D+00 0.2680000D+00
EXPONENTS  0.2680000D+00 0.2680000D+00 0.2680000D+00 0.2680000D+00 0.2680000D+00
EXPONENTS  0.2680000D+00 0.2680000D+00 0.3387000D+02 0.5095000D+01 0.1159000D+01
EXPONENTS  0.3258000D+00 0.1027000D+00 0.2526000D-01 0.1407000D+01 0.1407000D+01
EXPONENTS  0.1407000D+01 0.3880000D+00 0.3880000D+00 0.3880000D+00 0.1020000D+00
EXPONENTS  0.1020000D+00 0.1020000D+00 0.1057000D+01 0.1057000D+01 0.1057000D+01
EXPONENTS  0.1057000D+01 0.1057000D+01 0.1057000D+01 0.2470000D+00 0.2470000D+00
EXPONENTS  0.2470000D+00 0.2470000D+00 0.2470000D+00 0.2470000D+00 0.3387000D+02
EXPONENTS  0.5095000D+01 0.1159000D+01 0.3258000D+00 0.1027000D+00 0.2526000D-01
EXPONENTS  0.1407000D+01 0.1407000D+01 0.1407000D+01 0.3880000D+00 0.3880000D+00
EXPONENTS  0.3880000D+00 0.1020000D+00 0.1020000D+00 0.1020000D+00 0.1057000D+01
EXPONENTS  0.1057000D+01 0.1057000D+01 0.1057000D+01 0.1057000D+01 0.1057000D+01
EXPONENTS  0.2470000D+00 0.2470000D+00 0.2470000D+00 0.2470000D+00 0.2470000D+00
EXPONENTS  0.2470000D+00 0.3387000D+02 0.5095000D+01 0.1159000D+01 0.3258000D+00
EXPONENTS  0.1027000D+00 0.2526000D-01 0.1407000D+01 0.1407000D+01 0.1407000D+01
EXPONENTS  0.3880000D+00 0.3880000D+00 0.3880000D+00 0.1020000D+00 0.1020000D+00
EXPONENTS  0.1020000D+00 0.1057000D+01 0.1057000D+01 0.1057000D+01 0.1057000D+01
EXPONENTS  0.1057000D+01 0.1057000D+01 0.2470000D+00 0.2470000D+00 0.2470000D+00
EXPONENTS  0.2470000D+00 0.2470000D+00 0.2470000D+00 0.4561000D+06 0.6833000D+05
EXPONENTS  0.1555000D+05 0.4405000D+04 0.1439000D+04 0.5204000D+03 0.2031000D+03
EXPONENTS  0.8396000D+02 0.3620000D+02 0.1583000D+02 0.6334000D+01 0.4405000D+04
EXPONENTS  0.1439000D+04 0.5204000D+03 0.2031000D+03 0.8396000D+02 0.3620000D+02
EXPONENTS  0.1583000D+02 0.6334000D+01 0.2694000D+01 0.1439000D+04 0.2031000D+03
EXPONENTS  0.8396000D+02 0.3620000D+02 0.1583000D+02 0.6334000D+01 0.2694000D+01
EXPONENTS  0.4313000D+00 0.9768000D+00 0.1625000D+00 0.5910000D-01 0.6633000D+03
EXPONENTS  0.1568000D+03 0.4998000D+02 0.1842000D+02 0.7240000D+01 0.2922000D+01
EXPONENTS  0.6633000D+03 0.1568000D+03 0.4998000D+02 0.1842000D+02 0.7240000D+01
EXPONENTS  0.2922000D+01 0.6633000D+03 0.1568000D+03 0.4998000D+02 0.1842000D+02
EXPONENTS  0.7240000D+01 0.2922000D+01 0.1568000D+03 0.4998000D+02 0.1842000D+02
EXPONENTS  0.7240000D+01 0.2922000D+01 0.3818000D+00 0.1568000D+03 0.4998000D+02
EXPONENTS  0.1842000D+02 0.7240000D+01 0.2922000D+01 0.3818000D+00 0.1568000D+03
EXPONENTS  0.4998000D+02 0.1842000D+02 0.7240000D+01 0.2922000D+01 0.3818000D+00
EXPONENTS  0.1022000D+01 0.1022000D+01 0.1022000D+01 0.1301000D+00 0.1301000D+00
EXPONENTS  0.1301000D+00 0.4190000D-01 0.4190000D-01 0.4190000D-01 0.1046000D+01
EXPONENTS  0.1046000D+01 0.1046000D+01 0.1046000D+01 0.1046000D+01 0.1046000D+01
EXPONENTS  0.3440000D+00 0.3440000D+00 0.3440000D+00 0.3440000D+00 0.3440000D+00
EXPONENTS  0.3440000D+00 0.1350000D+00 0.1350000D+00 0.1350000D+00 0.1350000D+00
EXPONENTS  0.1350000D+00 0.1350000D+00 0.7060000D+00 0.7060000D+00 0.7060000D+00
EXPONENTS  0.7060000D+00 0.7060000D+00 0.7060000D+00 0.7060000D+00 0.7060000D+00
EXPONENTS  0.7060000D+00 0.7060000D+00 0.3120000D+00 0.3120000D+00 0.3120000D+00
EXPONENTS  0.3120000D+00 0.3120000D+00 0.3120000D+00 0.3120000D+00 0.3120000D+00
EXPONENTS  0.3120000D+00 0.3120000D+00 0.1950000D+05 0.2923000D+04 0.6645000D+03
EXPONENTS  0.1875000D+03 0.6062000D+02 0.2142000D+02 0.7950000D+01 0.6645000D+03
EXPONENTS  0.1875000D+03 0.6062000D+02 0.2142000D+02 0.7950000D+01 0.8815000D+00
EXPONENTS  0.2257000D+01 0.3041000D+00 0.9158000D-01 0.4388000D+02 0.9926000D+01
EXPONENTS  0.2930000D+01 0.4388000D+02 0.9926000D+01 0.2930000D+01 0.4388000D+02
EXPONENTS  0.9926000D+01 0.2930000D+01 0.9132000D+00 0.9132000D+00 0.9132000D+00
EXPONENTS  0.2672000D+00 0.2672000D+00 0.2672000D+00 0.7361000D-01 0.7361000D-01
EXPONENTS  0.7361000D-01 0.3107000D+01 0.3107000D+01 0.3107000D+01 0.3107000D+01
EXPONENTS  0.3107000D+01 0.3107000D+01 0.8550000D+00 0.8550000D+00 0.8550000D+00
EXPONENTS  0.8550000D+00 0.8550000D+00 0.8550000D+00 0.2920000D+00 0.2920000D+00
EXPONENTS  0.2920000D+00 0.2920000D+00 0.2920000D+00 0.2920000D+00 0.1917000D+01
EXPONENTS  0.1917000D+01 0.1917000D+01 0.1917000D+01 0.1917000D+01 0.1917000D+01
EXPONENTS  0.1917000D+01 0.1917000D+01 0.1917000D+01 0.1917000D+01 0.7240000D+00
EXPONENTS  0.7240000D+00 0.7240000D+00 0.7240000D+00 0.7240000D+00 0.7240000D+00
EXPONENTS  0.7240000D+00 0.7240000D+00 0.7240000D+00 0.7240000D+00
MO    1     MO 0.0        OCC NO =    2.0000300  ORB. ENERGY =    0.000000
  0.13109063D-07  0.24437935D-07  0.41303439D-07  0.62086773D-07  0.76262480D-07
  0.64362843D-07  0.24202110D-07 -0.15400901D-10 -0.11511219D-09 -0.43020054D-09
 -0.12001925D-08 -0.16079271D-08  0.18986621D-08  0.38667171D-08 -0.45797211D-08
  0.10190327D-08  0.10955317D-03  0.10271306D-03  0.73137818D-04 -0.23540784D-07
 -0.22070981D-07 -0.15715853D-07 -0.19481067D-07 -0.18264739D-07 -0.13005582D-07
  0.34499589D-03 -0.74194246D-07 -0.57109911D-07  0.45381507D-03 -0.97809485D-07
 -0.83746184D-07  0.95098312D-05 -0.20925136D-08 -0.17052066D-08 -0.80110553D-07
 -0.88029427D-08  0.88913495D-07  0.12095104D-03 -0.51169789D-03  0.87734974D-07
  0.48817242D-07 -0.32586129D-07 -0.16231113D-07  0.38367330D-03  0.98616966D-04
 -0.88345670D-07 -0.45637630D-08 -0.67611969D-08  0.11324960D-07  0.81475046D-04
 -0.64785154D-04 -0.22850255D-09  0.90103104D-04 -0.20483245D-07  0.64755865D-07
  0.95409033D-04 -0.98721652D-08 -0.17296721D-06 -0.36571835D-03  0.71321899D-07
 -0.21300381D-07  0.46691071D-04 -0.26933099D-04  0.61580699D-08 -0.19093579D-07
 -0.24055159D-04  0.23439351D-07  0.61069397D-07  0.10485445D-03 -0.41913561D-07
 -0.37886585D-08  0.10522661D-03  0.36274621D-08  0.65422772D-08  0.96465839D-08
 -0.28343456D-07 -0.96242195D-07  0.85768303D-09  0.45969642D-05 -0.72103773D-08
 -0.29632033D-08  0.81012312D-04 -0.34926959D-07 -0.37699682D-07  0.75307745D-04
 -0.23628909D-07 -0.14950911D-07  0.52883810D-08 -0.73080038D-08  0.20196228D-08
  0.27108044D-04 -0.46206534D-04 -0.23776662D-07  0.18271396D-07 -0.24451305D-08
 -0.15826265D-07  0.28486847D-04  0.63143031D-04 -0.16193998D-07 -0.34526868D-04
 -0.62270629D-04 -0.91818006D-04  0.30467897D-03  0.95485840D-03 -0.10367323D-04
  0.52669156D-04 -0.27095977D-04  0.18665946D-04  0.23018423D-03 -0.86583665D-04
  0.23719740D-03  0.14494607D-03 -0.42784730D-04  0.20341889D-04  0.91503263D-05
 -0.68216652D-04  0.59066326D-04 -0.10472461D-03  0.21029148D-03 -0.15060055D-03
 -0.11051866D-04 -0.36321890D-04  0.47373756D-04 -0.16171905D-04  0.38585501D-04
  0.12752895D-04  0.34523412D-04  0.62264395D-04  0.91808814D-04 -0.30464108D-03
 -0.95476420D-03  0.10366321D-04  0.52664731D-04  0.27078905D-04 -0.18682152D-04
  0.23010509D-03  0.86500864D-04 -0.23725791D-03  0.14494163D-03  0.42730452D-04
 -0.20391732D-04 -0.91031060D-05  0.68238434D-04 -0.59135328D-04 -0.10461673D-03
  0.21027047D-03  0.15057734D-03  0.11057773D-04  0.36324437D-04 -0.47382210D-04
 -0.16158517D-04  0.38544031D-04 -0.12766356D-04 -0.82691897D-08 -0.15470772D-07
 -0.26730062D-07 -0.43332571D-07 -0.65804667D-07 -0.91462296D-07 -0.10874166D-06
 -0.96870851D-07 -0.48108113D-07 -0.77449992D-08 -0.81714316D-10 -0.37521202D-10
 -0.12516445D-08 -0.43617304D-08 -0.15707297D-07 -0.34624783D-07 -0.48740519D-07
  0.23250816D-08  0.63785433D-07  0.37715927D-07 -0.26955660D-11 -0.32649887D-10
 -0.68087897D-10 -0.19526423D-09 -0.10139800D-10  0.84207408D-09  0.21757577D-08
 -0.17727050D-08  0.19693703D-08  0.36489574D-08  0.30457512D-10  0.11610769D+02
  0.15294099D+02  0.16871786D+02  0.14013339D+02  0.74414718D+01  0.19199386D+01
 -0.24831551D-02 -0.32708962D-02 -0.36083105D-02 -0.29969844D-02 -0.15914819D-02
 -0.41061064D-03 -0.20409157D-02 -0.26883634D-02 -0.29656857D-02 -0.24632342D-02
 -0.13080457D-02 -0.33748263D-03 -0.45950677D-03  0.44422158D-02  0.62639879D-02
  0.89591598D-02 -0.45367924D-04 -0.82163945D-02  0.98305196D-07 -0.95035138D-06
 -0.13400947D-05 -0.19166899D-05  0.97058476D-08  0.17577854D-05  0.80639832D-07
 -0.77957401D-06 -0.10992807D-05 -0.15722623D-05  0.79617147D-08  0.14419128D-05
  0.76646279D-01 -0.16392813D-04 -0.13470031D-04 -0.64497931D-03  0.13771309D-06
  0.11217599D-06 -0.58060152D-04  0.12411859D-07  0.10238023D-07 -0.17165299D-06
 -0.38338472D-09  0.17203638D-06  0.18128330D-04 -0.98047601D-03  0.20727450D-06
  0.61795671D-07 -0.33344208D-10 -0.61762327D-07 -0.71656037D-05  0.35471618D-03
 -0.75165697D-07 -0.10546272D-07 -0.25195526D-09  0.10798227D-07  0.24504095D-05
 -0.60655544D-04  0.12652927D-07  0.23106392D-05 -0.64006774D-09  0.15368893D-08
  0.21803422D-05  0.12554477D-07  0.17896207D-08 -0.91122599D-05 -0.10634273D-07
 -0.64002886D-08  0.71669920D-04  0.14605133D-04 -0.31195113D-08  0.10247163D-07
  0.14667895D-04 -0.60021767D-08 -0.29691848D-07 -0.58483294D-04  0.15360711D-07
 -0.10496410D-08 -0.15389417D-04  0.11670522D-08  0.21753872D-08  0.36877660D-08
  0.55837764D-08  0.69809504D-08  0.60048692D-08  0.23029966D-08 -0.59418315D-11
 -0.78658723D-10 -0.28570279D-09 -0.84753195D-09 -0.97660939D-09  0.11862376D-08
 -0.25548866D-10 -0.16269030D-08 -0.15090278D-08 -0.29354500D-03 -0.28708060D-03
 -0.18968629D-03  0.62820513D-07  0.61437090D-07  0.40594083D-07  0.54924955D-07
  0.53715406D-07  0.35492040D-07 -0.10210490D-04  0.75854330D-09  0.42785166D-08
 -0.65575703D-04  0.15214031D-07  0.89993859D-08 -0.19717458D-04  0.42492907D-08
  0.32881568D-08 -0.11813042D-07 -0.12468908D-07  0.24281950D-07  0.14112617D-03
 -0.13443333D-03  0.43417757D-08  0.11807568D-07  0.62403319D-08 -0.18047899D-07
 -0.71049640D-04  0.10243483D-03 -0.98862978D-08 -0.90578781D-08 -0.28572301D-08
  0.11915108D-07  0.36390795D-04 -0.72881596D-04  0.10287656D-07 -0.69134967D-04
  0.16008060D-07 -0.46534439D-07 -0.68985931D-04 -0.51029354D-07  0.95383202D-07
  0.27639083D-03  0.30051727D-08  0.44220115D-07 -0.38520695D-03  0.24525835D-04
 -0.57082672D-08  0.16347801D-07  0.24469795D-04  0.15665687D-07 -0.34781353D-07
 -0.98047301D-04  0.14591149D-08 -0.14262049D-07  0.12256585D-03
MO    2     MO 0.0        OCC NO =    2.0000300  ORB. ENERGY =    0.000000
  0.52113398D-04  0.97149872D-04  0.16419652D-03  0.24681799D-03  0.30317170D-03
  0.25586622D-03  0.96212379D-04 -0.71506412D-07 -0.53446612D-06 -0.19974219D-05
 -0.55724962D-05 -0.74656086D-05  0.88154917D-05  0.17033308D-04 -0.39311874D-04
 -0.52230937D-05 -0.22174668D-07 -0.20790161D-07 -0.14803833D-07 -0.11275287D-03
 -0.10571298D-03 -0.75273939D-04  0.10074350D-04  0.94453433D-05  0.67256471D-05
 -0.80268070D-07 -0.38115100D-03  0.66429887D-05 -0.10049634D-06 -0.47338130D-03
  0.28920875D-06 -0.18876777D-08 -0.91505566D-05  0.65650680D-07 -0.66497314D-04
  0.69930212D-04 -0.34328982D-05  0.11371263D-06  0.13122524D-06  0.50762298D-03
 -0.20014808D-03  0.19194696D-03  0.82011205D-05  0.49061275D-07  0.52513971D-07
 -0.96759530D-04 -0.40042958D-04  0.42821342D-04 -0.27783847D-05  0.25908829D-07
  0.27346722D-07  0.67584658D-04 -0.23466525D-07 -0.93563711D-04 -0.35369520D-05
 -0.14333611D-07 -0.95495642D-04 -0.21205093D-04  0.84733185D-07  0.37618677D-03
  0.31815949D-04  0.17501492D-06 -0.40495100D-08  0.30856194D-04  0.43413176D-06
  0.17257426D-07  0.17052113D-04 -0.48776461D-04 -0.51088960D-08 -0.10962070D-03
  0.47474066D-04 -0.28653533D-07  0.40115212D-04  0.72349437D-04  0.10667920D-03
 -0.35660418D-03 -0.11491087D-02  0.12509506D-04 -0.14566040D-07 -0.74371596D-04
 -0.27245226D-04 -0.91291448D-07 -0.29113256D-03 -0.26592776D-03 -0.32891968D-07
 -0.17354405D-03 -0.20369811D-04  0.10995586D-03 -0.43034473D-04 -0.66921388D-04
 -0.94721286D-07 -0.96769388D-07 -0.29897515D-03  0.42640545D-04  0.11498561D-04
 -0.54139105D-04 -0.16099692D-07 -0.43446631D-07 -0.31154610D-04 -0.20357630D-04
 -0.36715824D-04 -0.54137461D-04  0.21778023D-03  0.57202173D-03 -0.59406584D-05
  0.31587798D-04 -0.22236693D-04  0.13062738D-04  0.96150331D-04 -0.14204967D-03
  0.13538185D-03  0.44027341D-04 -0.10259452D-03  0.11101659D-04 -0.91401739D-05
 -0.24931630D-04  0.34071804D-04 -0.85229436D-04  0.14814089D-03 -0.39434127D-04
 -0.22044114D-04 -0.82670323D-05  0.30311147D-04 -0.27736829D-04 -0.12584386D-04
 -0.52910507D-04 -0.20363461D-04 -0.36726340D-04 -0.54152966D-04  0.21783642D-03
  0.57219387D-03 -0.59427150D-05 -0.31598191D-04 -0.22233639D-04  0.13077291D-04
 -0.96179444D-04 -0.14203993D-03  0.13545799D-03 -0.44075350D-04 -0.10259156D-03
  0.11121142D-04 -0.91691912D-05 -0.24965175D-04  0.34134366D-04  0.85223988D-04
 -0.14815768D-03 -0.39455091D-04 -0.22034492D-04 -0.82804698D-05  0.30314962D-04
  0.27728185D-04  0.12601677D-04 -0.52921862D-04  0.13265684D-03  0.24818680D-03
  0.42881174D-03  0.69515421D-03  0.10556584D-02  0.14672658D-02  0.17444666D-02
  0.15540315D-02  0.77176490D-03  0.12424762D-03  0.13108858D-05  0.62774837D-06
  0.20940635D-04  0.72973920D-04  0.26279090D-03  0.57928984D-03  0.81545313D-03
 -0.38899772D-04 -0.10671620D-02 -0.63100623D-03  0.49827069D-08  0.60352748D-07
  0.12585929D-06  0.36094254D-06  0.18743244D-07 -0.15565593D-05 -0.40218503D-05
  0.32768143D-05 -0.38563666D-04  0.16764295D-04  0.18712500D-05 -0.24661015D-02
 -0.32484326D-02 -0.35835296D-02 -0.29764019D-02 -0.15805520D-02 -0.40779068D-03
 -0.11610306D+02 -0.15293489D+02 -0.16871113D+02 -0.14012780D+02 -0.74411750D+01
 -0.19198620D+01  0.96468408D-01  0.12707146D+00  0.14017971D+00  0.11643023D+00
  0.61827681D-01  0.15951865D-01  0.97531813D-07 -0.94287482D-06 -0.13295519D-05
 -0.19016110D-05  0.96294902D-08  0.17439566D-05  0.45953035D-03 -0.44424437D-02
 -0.62643094D-02 -0.89596196D-02  0.45370252D-04  0.82168162D-02 -0.40589853D-05
  0.39239658D-04  0.55332014D-04  0.79139417D-04 -0.40075087D-06 -0.72578310D-04
 -0.16280425D-04 -0.76656739D-01  0.64367515D-03  0.13595040D-06  0.64197142D-03
 -0.88248118D-05  0.12278553D-07  0.57852408D-04 -0.56269491D-06 -0.11122997D-04
  0.20376968D-04 -0.92539712D-05  0.17976761D-06  0.20976310D-06  0.98141940D-03
  0.34333374D-05 -0.68187586D-05  0.33854212D-05 -0.65318050D-07 -0.75975657D-07
 -0.35789913D-03 -0.11395493D-05  0.14578354D-05 -0.31828608D-06  0.11301632D-07
  0.13345710D-07  0.61545854D-04 -0.63752549D-08 -0.29893527D-05  0.27710831D-07
  0.50276049D-08 -0.87888874D-06 -0.34144193D-04  0.14098160D-07  0.98469468D-05
  0.34061061D-04  0.15049389D-07 -0.19371463D-08 -0.14533617D-04 -0.26907791D-06
 -0.40329383D-08 -0.15270217D-04  0.69761087D-05  0.98443771D-08  0.58871068D-04
 -0.61688750D-05  0.24224592D-07 -0.18289990D-04 -0.34092574D-04 -0.57794508D-04
 -0.87508701D-04 -0.10940515D-03 -0.94108048D-04 -0.36092462D-04  0.25437008D-07
  0.33673835D-06  0.12230950D-05  0.36282881D-05  0.41808692D-05 -0.50782884D-05
 -0.81501372D-06  0.10198795D-04  0.11164431D-04  0.67179647D-07  0.65700228D-07
  0.43410918D-07  0.28841791D-03  0.28206642D-03  0.18637321D-03  0.32825933D-04
  0.32103046D-04  0.21211840D-04  0.36013398D-08  0.69867368D-05  0.36604100D-05
  0.14857115D-07  0.67914391D-04  0.89620474D-05  0.43645628D-08  0.19377735D-04
  0.14997114D-05 -0.69441221D-04  0.72752825D-04 -0.33116041D-05  0.46076852D-07
  0.50448681D-07  0.12983647D-03  0.34781112D-04 -0.36271757D-04  0.14906450D-05
 -0.29157075D-07 -0.32756612D-07 -0.10103535D-03 -0.17938236D-04  0.17576164D-04
  0.36207194D-06  0.18659895D-07  0.21399289D-07  0.75221535D-04  0.45612148D-07
  0.73014510D-04  0.17669193D-05 -0.16415287D-07  0.76404559D-04  0.18100344D-03
 -0.12042116D-06 -0.29544809D-03 -0.18630420D-03 -0.18634618D-06 -0.15051804D-07
 -0.26009294D-04 -0.36239175D-06  0.46100334D-08 -0.27019067D-04 -0.57606032D-04
  0.40545379D-07  0.10504695D-03  0.58693208D-04  0.63823722D-07
MO    3     MO 0.0        OCC NO =    2.0000210  ORB. ENERGY =    0.000000
 -0.14456710D-01 -0.26950219D-01 -0.45549543D-01 -0.68469458D-01 -0.84102466D-01
 -0.70979514D-01 -0.26690151D-01 -0.38131725D-05 -0.28501102D-04 -0.10651513D-03
 -0.29716062D-03 -0.39811330D-03  0.47009757D-03 -0.87256730D-03 -0.19331404D-02
 -0.81885911D-04  0.20832531D-06  0.19531822D-06  0.13907821D-06 -0.34366768D-05
 -0.32221029D-05 -0.22943292D-05  0.11670075D-02  0.10941438D-02  0.77909553D-03
  0.10497858D-06  0.21658175D-04  0.60712208D-03 -0.66697719D-07 -0.10002589D-05
 -0.37911124D-03  0.82250590D-09  0.12161120D-06  0.46730236D-05 -0.10107046D-03
 -0.11006388D-03  0.21113434D-03 -0.44250228D-08  0.11158346D-06  0.13037822D-05
 -0.18642834D-04 -0.29243610D-04  0.47886444D-04 -0.59712793D-08  0.23252642D-07
 -0.71362125D-05  0.11093350D-04  0.11723120D-04 -0.22816470D-04  0.21645331D-09
 -0.11973514D-07 -0.10642498D-05 -0.16239441D-07  0.36555643D-04  0.77280327D-05
  0.39846013D-07 -0.10832893D-03 -0.13795225D-04  0.88723107D-08 -0.13380002D-05
 -0.93888730D-05  0.39724228D-07  0.27788287D-08  0.51953445D-04 -0.85653267D-04
  0.82103044D-07 -0.15504418D-03  0.12769122D-03 -0.90439530D-07 -0.81616003D-06
  0.12926858D-03  0.55299787D-07 -0.34125248D-05 -0.61546291D-05 -0.90749969D-05
  0.77139338D-03  0.24324263D-03  0.54703381D-05  0.18226434D-07  0.99156899D-04
  0.30427041D-04  0.25859861D-07  0.20545687D-03 -0.75879949D-05  0.12955426D-07
  0.45842609D-04  0.38100510D-04 -0.74303908D-04  0.55287675D-04  0.19016233D-04
  0.47363966D-07  0.43445547D-07  0.76303286D-04 -0.10382935D-04 -0.11090724D-04
  0.21473659D-04 -0.63741107D-08  0.67345044D-08 -0.35201731D-04 -0.55243878D-05
 -0.99634609D-05 -0.14691117D-04  0.74232338D-03  0.23208757D-03  0.48514675D-05
  0.81194167D-04 -0.47360255D-04  0.27461289D-04  0.16699758D-03 -0.10268584D-03
 -0.26576677D-05  0.36796864D-04 -0.22440131D-04  0.39071672D-04  0.19882165D-04
 -0.39981089D-04  0.20098924D-04 -0.11222766D-03  0.64874271D-04 -0.39123645D-04
 -0.11663853D-04 -0.10050202D-04  0.21714055D-04  0.28035368D-05 -0.29605507D-04
  0.17212664D-04 -0.55239191D-05 -0.99626156D-05 -0.14689871D-04  0.74233112D-03
  0.23208795D-03  0.48515573D-05 -0.81197321D-04 -0.47340314D-04  0.27491022D-04
 -0.16702591D-03 -0.10264531D-03 -0.25977153D-05 -0.36788734D-04 -0.22431189D-04
  0.39084714D-04  0.19887699D-04 -0.40009025D-04  0.20121325D-04  0.11218383D-03
 -0.64884999D-04 -0.39148221D-04 -0.11653911D-04 -0.10049579D-04  0.21703490D-04
 -0.27961084D-05  0.29633457D-04  0.17206144D-04 -0.15460698D+00 -0.28925317D+00
 -0.49976532D+00 -0.81017831D+00 -0.12303335D+01 -0.17100478D+01 -0.20331158D+01
 -0.18111702D+01 -0.89946543D+00 -0.14480632D+00 -0.15277923D-02 -0.72286264D-03
 -0.24113488D-01 -0.84030677D-01 -0.30260807D+00 -0.66706184D+00 -0.93900778D+00
  0.44793731D-01  0.12288547D+01  0.72661412D+00 -0.15531812D-04 -0.18812818D-03
 -0.39232148D-03 -0.11251097D-02 -0.58425381D-04  0.48520187D-02  0.12536685D-01
 -0.10214300D-01  0.46601375D-01 -0.38464604D-03 -0.13208500D-03  0.10527951D-02
  0.13867775D-02  0.15298326D-02  0.12706458D-02  0.67474818D-03  0.17408856D-03
  0.41954263D-01  0.55263578D-01  0.60964377D-01  0.50635689D-01  0.26888956D-01
  0.69374912D-02  0.59407642D+01  0.78253763D+01  0.86326150D+01  0.71700626D+01
  0.38075022D+01  0.98235547D+00 -0.37355030D-07  0.36112440D-06  0.50922310D-06
  0.72832373D-06 -0.36881289D-08 -0.66794156D-06 -0.13761465D-05  0.13303699D-04
  0.18759604D-04  0.26831197D-04 -0.13586940D-06 -0.24606738D-04 -0.21076950D-03
  0.20375839D-02  0.28732061D-02  0.41094447D-02 -0.20809650D-04 -0.37687484D-02
  0.73815445D-05  0.29295333D-03  0.41649566D-01 -0.85872908D-07 -0.31145608D-05
 -0.48379188D-03 -0.17299988D-08 -0.14861013D-06 -0.98334972D-05 -0.80676243D-05
 -0.62241531D-05  0.14291777D-04  0.14450475D-08  0.76432037D-08  0.38841724D-05
 -0.11110974D-03 -0.11169018D-03  0.22279993D-03  0.26904050D-09  0.11875912D-06
  0.29143681D-05 -0.14296666D-04 -0.14342826D-04  0.28639492D-04  0.15958080D-09
  0.15305031D-07  0.93118240D-06  0.13753665D-08 -0.75920949D-05  0.54454769D-05
 -0.98731728D-08  0.21239406D-04 -0.74947752D-05  0.57470735D-08  0.15368783D-05
 -0.88416555D-05 -0.73422617D-08  0.81711837D-08  0.24537914D-05 -0.33740838D-04
  0.11448515D-07 -0.57523595D-05  0.50206277D-04 -0.35962066D-07 -0.16090147D-05
  0.51016236D-04  0.17230904D-08 -0.87905453D-03 -0.16385592D-02 -0.27777228D-02
 -0.42058480D-02 -0.52582364D-02 -0.45230262D-02 -0.17346779D-02 -0.68401347D-06
 -0.90550575D-05 -0.32889617D-04 -0.97566428D-04 -0.11242560D-03  0.13655764D-03
 -0.95926718D-04 -0.15943013D-03  0.12335390D-04  0.66796922D-06  0.65325931D-06
  0.43163605D-06 -0.20237430D-04 -0.19791765D-04 -0.13077256D-04  0.39017082D-02
  0.38157854D-02  0.25212507D-02  0.14970501D-06 -0.53935835D-05  0.87911555D-03
  0.41436303D-08  0.71591430D-06  0.21421623D-04  0.15459049D-08 -0.20098812D-06
  0.93270855D-05 -0.34772301D-04 -0.36486026D-04  0.71258327D-04 -0.38071987D-09
  0.36348524D-07 -0.29697437D-05  0.20663429D-04  0.21522192D-04 -0.42185620D-04
  0.15609052D-09 -0.21771038D-07  0.91499232D-06  0.18271888D-04  0.17924579D-04
 -0.36196467D-04  0.16203848D-09 -0.18089337D-07  0.14688587D-05 -0.10088995D-07
 -0.36128440D-06  0.46282875D-04 -0.14019457D-07  0.11406034D-04 -0.71090956D-04
  0.44286443D-07 -0.10322181D-04 -0.67757668D-04 -0.40708592D-08  0.58806791D-08
 -0.37936868D-07 -0.25339330D-04  0.71438155D-08 -0.37480448D-05  0.38460945D-04
 -0.24785853D-07  0.38618554D-05  0.37557044D-04  0.15939120D-08
MO    4     MO 0.0        OCC NO =    2.0000123  ORB. ENERGY =    0.000000
  0.26838482D-01  0.50032338D-01  0.84561467D-01  0.12711166D+00  0.15613390D+00
  0.13177151D+00  0.49549528D-01 -0.14521564D-05 -0.10853970D-04 -0.40563763D-04
 -0.11316658D-03 -0.15161202D-03  0.17902553D-03  0.26465615D-02 -0.36094304D-02
 -0.42147438D-04  0.64792033D-06  0.60746649D-06  0.43255233D-06  0.12105732D-04
  0.11349893D-04  0.80818002D-05  0.36696456D-02  0.34405260D-02  0.24498595D-02
  0.22878733D-06  0.46821900D-04  0.13054601D-02 -0.74077166D-07  0.61093988D-05
 -0.41700328D-03  0.68329343D-09  0.15891921D-06  0.37071445D-05 -0.31469745D-03
 -0.32378434D-03  0.63848179D-03 -0.33813593D-08  0.33777690D-06  0.79106783D-05
  0.23455872D-04 -0.38273359D-05 -0.19628536D-04 -0.14236727D-07 -0.14401245D-07
 -0.17267674D-04 -0.16930364D-04 -0.18837529D-04  0.35767893D-04 -0.93468999D-09
  0.18277995D-07 -0.10888056D-05  0.95958340D-08 -0.41724898D-04  0.22579959D-04
 -0.53540105D-07  0.12752905D-03 -0.38063834D-04  0.24752603D-07 -0.23543516D-05
 -0.29676042D-04 -0.42000511D-07  0.11637533D-07  0.82534699D-04 -0.16374669D-03
  0.13788104D-06 -0.24492078D-03  0.24222181D-03 -0.17279364D-06 -0.26833193D-05
  0.24901827D-03  0.88882260D-07 -0.90786186D-04 -0.16373662D-03 -0.24142956D-03
  0.10688610D-02  0.71794872D-03  0.47741062D-05  0.34401614D-09 -0.49606251D-04
  0.38003436D-04  0.32229924D-07  0.32172686D-03 -0.54414420D-04  0.28101805D-07
  0.11559493D-03  0.76076627D-04 -0.14647876D-03  0.33999920D-04  0.11247884D-03
  0.71672058D-07  0.11024846D-06  0.14260302D-03 -0.15768548D-04 -0.19442306D-04
  0.35210854D-04 -0.12531071D-07  0.10139542D-07 -0.64218581D-04 -0.90093453D-04
 -0.16248725D-03 -0.23958736D-03  0.99885709D-03  0.66728522D-03  0.40080260D-05
 -0.52916574D-04  0.32279176D-04  0.31307351D-04  0.25373062D-03 -0.15198588D-03
 -0.37903007D-04  0.94415697D-04 -0.53778113D-04  0.75750446D-04 -0.21289900D-04
 -0.99791474D-04  0.12108137D-03 -0.13868921D-03  0.12250004D-03 -0.72573194D-04
 -0.19360072D-04 -0.16647705D-04  0.36007777D-04  0.71454093D-05 -0.54094147D-04
  0.30539325D-04 -0.90093821D-04 -0.16248792D-03 -0.23958834D-03  0.99887030D-03
  0.66729697D-03  0.40079103D-05  0.52934090D-04  0.32264742D-04  0.31289391D-04
 -0.25378605D-03 -0.15192427D-03 -0.37815684D-04 -0.94403927D-04 -0.53754772D-04
  0.75784177D-04 -0.21295209D-04 -0.99825755D-04  0.12112096D-03  0.13862756D-03
 -0.12241763D-03 -0.72591564D-04 -0.19342437D-04 -0.16646275D-04  0.35988712D-04
 -0.71325223D-05  0.54142285D-04  0.30528448D-04  0.91305533D-01  0.17082291D+00
  0.29514410D+00  0.47846326D+00  0.72659238D+00  0.10098950D+01  0.12006878D+01
  0.10696144D+01  0.53119315D+00  0.85517602D-01  0.90226122D-03  0.42749095D-03
  0.14260383D-01  0.49694578D-01  0.17895822D+00  0.39449113D+00  0.55531619D+00
 -0.26490392D-01 -0.72672767D+00 -0.42970952D+00  0.62773384D-05  0.76033898D-04
  0.15856068D-03  0.45472442D-03  0.23613206D-04 -0.19609922D-02 -0.50668273D-02
  0.41282124D-02 -0.28542638D-01  0.14179440D-02 -0.18184833D-03  0.17615606D-02
  0.23203874D-02  0.25597505D-02  0.21260732D-02  0.11290039D-02  0.29128890D-03
  0.86909769D-01  0.11448050D+00  0.12628991D+00  0.10489366D+00  0.55701443D-01
  0.14371263D-01  0.99145392D+01  0.13059767D+02  0.14406968D+02  0.11966115D+02
  0.63543390D+01  0.16394527D+01 -0.59865199D-07  0.57873822D-06  0.81608131D-06
  0.11672122D-05 -0.59105980D-08 -0.10704436D-05 -0.26869800D-05  0.25975993D-04
  0.36628862D-04  0.52388962D-04 -0.26529033D-06 -0.48045620D-04 -0.33685943D-03
  0.32565402D-02  0.45920616D-02  0.65678629D-02 -0.33258733D-04 -0.60233497D-02
  0.12891756D-04  0.62869374D-03  0.72556831D-01 -0.54007909D-07 -0.22814237D-05
 -0.30630362D-03 -0.66944916D-09 -0.18110251D-06 -0.39505732D-05  0.45355374D-03
  0.45533819D-03 -0.90889193D-03 -0.21413054D-08 -0.48473021D-06 -0.16584607D-04
 -0.30920822D-03 -0.31013279D-03  0.61934101D-03  0.14029844D-08  0.33017976D-06
  0.10403304D-04  0.43203767D-05  0.43466290D-05 -0.86670056D-05  0.58239493D-10
 -0.48054231D-08  0.24426788D-06  0.18220191D-07 -0.14756293D-04 -0.46954148D-04
 -0.42857698D-08  0.43333332D-04  0.71348000D-04 -0.50374803D-07  0.93554571D-06
  0.69514444D-04 -0.15883427D-07  0.14967234D-07  0.48488988D-05 -0.62594343D-04
  0.21596565D-07 -0.11846129D-04  0.93174686D-04 -0.66498267D-07 -0.27005669D-05
  0.94608343D-04  0.39030454D-08 -0.63574347D-02 -0.11850269D-01 -0.20088846D-01