 title line
GAUSSIAN            211 MOL ORBITALS    339 PRIMITIVES        6 NUCLEI
  C    1    (CENTRE  1)   0.00033070  0.00005480 -0.94053370  CHARGE =  6.0
  H    2    (CENTRE  2)   0.00003590 -1.98906904 -1.19189940  CHARGE =  1.0
  H    3    (CENTRE  3)  -1.72213010  0.99468570 -1.17398291  CHARGE =  1.0
  H    4    (CENTRE  4)   1.72295780  0.99424539 -1.17459707  CHARGE =  1.0
  Cl   5    (CENTRE  5)   0.00104880  0.00181792  3.10806659  CHARGE = 17.0
  F    6    (CENTRE  6)  -0.00035149 -0.00174044 -4.90092914  CHARGE =  9.0
CENTRE ASSIGNMENTS    1  1  1  1  1  1  1  1  1  1  1  1  1  1  1  1  1  1  1  1
CENTRE ASSIGNMENTS    1  1  1  1  1  1  1  1  1  1  1  1  1  1  1  1  1  1  1  1
CENTRE ASSIGNMENTS    1  1  1  1  1  1  1  1  1  1  1  1  1  1  1  1  1  1  1  1
CENTRE ASSIGNMENTS    1  1  1  1  1  1  1  1  1  1  1  1  2  2  2  2  2  2  2  2
CENTRE ASSIGNMENTS    2  2  2  2  2  2  2  2  2  2  2  2  2  2  2  2  2  2  2  3
CENTRE ASSIGNMENTS    3  3  3  3  3  3  3  3  3  3  3  3  3  3  3  3  3  3  3  3
CENTRE ASSIGNMENTS    3  3  3  3  3  3  4  4  4  4  4  4  4  4  4  4  4  4  4  4
CENTRE ASSIGNMENTS    4  4  4  4  4  4  4  4  4  4  4  4  4  5  5  5  5  5  5  5
CENTRE ASSIGNMENTS    5  5  5  5  5  5  5  5  5  5  5  5  5  5  5  5  5  5  5  5
CENTRE ASSIGNMENTS    5  5  5  5  5  5  5  5  5  5  5  5  5  5  5  5  5  5  5  5
CENTRE ASSIGNMENTS    5  5  5  5  5  5  5  5  5  5  5  5  5  5  5  5  5  5  5  5
CENTRE ASSIGNMENTS    5  5  5  5  5  5  5  5  5  5  5  5  5  5  5  5  5  5  5  5
CENTRE ASSIGNMENTS    5  5  5  5  5  5  5  5  5  5  5  5  5  5  5  5  5  5  5  5
CENTRE ASSIGNMENTS    5  5  5  5  5  5  5  6  6  6  6  6  6  6  6  6  6  6  6  6
CENTRE ASSIGNMENTS    6  6  6  6  6  6  6  6  6  6  6  6  6  6  6  6  6  6  6  6
CENTRE ASSIGNMENTS    6  6  6  6  6  6  6  6  6  6  6  6  6  6  6  6  6  6  6  6
CENTRE ASSIGNMENTS    6  6  6  6  6  6  6  6  6  6  6  6  6  6  6  6  6  6  6
TYPE ASSIGNMENTS      1  1  1  1  1  1  1  1  1  1  1  1  1  1  1  1  2  2  2  3
TYPE ASSIGNMENTS      3  3  4  4  4  2  3  4  2  3  4  2  3  4  5  6  7  8  9 10
TYPE ASSIGNMENTS      5  6  7  8  9 10  5  6  7  8  9 10 11 12 13 17 14 15 18 19
TYPE ASSIGNMENTS     16 20 11 12 13 17 14 15 18 19 16 20  1  1  1  1  1  1  2  3
TYPE ASSIGNMENTS      4  2  3  4  2  3  4  5  6  7  8  9 10  5  6  7  8  9 10  1
TYPE ASSIGNMENTS      1  1  1  1  1  2  3  4  2  3  4  2  3  4  5  6  7  8  9 10
TYPE ASSIGNMENTS      5  6  7  8  9 10  1  1  1  1  1  1  2  3  4  2  3  4  2  3
TYPE ASSIGNMENTS      4  5  6  7  8  9 10  5  6  7  8  9 10  1  1  1  1  1  1  1
TYPE ASSIGNMENTS      1  1  1  1  1  1  1  1  1  1  1  1  1  1  1  1  1  1  1  1
TYPE ASSIGNMENTS      1  1  1  1  2  2  2  2  2  2  3  3  3  3  3  3  4  4  4  4
TYPE ASSIGNMENTS      4  4  2  2  2  2  2  2  3  3  3  3  3  3  4  4  4  4  4  4
TYPE ASSIGNMENTS      2  3  4  2  3  4  2  3  4  5  6  7  8  9 10  5  6  7  8  9
TYPE ASSIGNMENTS     10  5  6  7  8  9 10 11 12 13 17 14 15 18 19 16 20 11 12 13
TYPE ASSIGNMENTS     17 14 15 18 19 16 20  1  1  1  1  1  1  1  1  1  1  1  1  1
TYPE ASSIGNMENTS      1  1  1  2  2  2  3  3  3  4  4  4  2  3  4  2  3  4  2  3
TYPE ASSIGNMENTS      4  5  6  7  8  9 10  5  6  7  8  9 10  5  6  7  8  9 10 11
TYPE ASSIGNMENTS     12 13 17 14 15 18 19 16 20 11 12 13 17 14 15 18 19 16 20
EXPONENTS  0.8236000D+04 0.1235000D+04 0.2808000D+03 0.7927000D+02 0.2559000D+02
EXPONENTS  0.8997000D+01 0.3319000D+01 0.2808000D+03 0.7927000D+02 0.2559000D+02
EXPONENTS  0.8997000D+01 0.3319000D+01 0.3643000D+00 0.9059000D+00 0.1285000D+00
EXPONENTS  0.4402000D-01 0.1871000D+02 0.4133000D+01 0.1200000D+01 0.1871000D+02
EXPONENTS  0.4133000D+01 0.1200000D+01 0.1871000D+02 0.4133000D+01 0.1200000D+01
EXPONENTS  0.3827000D+00 0.3827000D+00 0.3827000D+00 0.1209000D+00 0.1209000D+00
EXPONENTS  0.1209000D+00 0.3569000D-01 0.3569000D-01 0.3569000D-01 0.1097000D+01
EXPONENTS  0.1097000D+01 0.1097000D+01 0.1097000D+01 0.1097000D+01 0.1097000D+01
EXPONENTS  0.3180000D+00 0.3180000D+00 0.3180000D+00 0.3180000D+00 0.3180000D+00
EXPONENTS  0.3180000D+00 0.1000000D+00 0.1000000D+00 0.1000000D+00 0.1000000D+00
EXPONENTS  0.1000000D+00 0.1000000D+00 0.7610000D+00 0.7610000D+00 0.7610000D+00
EXPONENTS  0.7610000D+00 0.7610000D+00 0.7610000D+00 0.7610000D+00 0.7610000D+00
EXPONENTS  0.7610000D+00 0.7610000D+00 0.2680000D+00 0.2680000D+00 0.2680000D+00
EXPONENTS  0.2680000D+00 0.2680000D+00 0.2680000D+00 0.2680000D+00 0.2680000D+00
EXPONENTS  0.2680000D+00 0.2680000D+00 0.3387000D+02 0.5095000D+01 0.1159000D+01
EXPONENTS  0.3258000D+00 0.1027000D+00 0.2526000D-01 0.1407000D+01 0.1407000D+01
EXPONENTS  0.1407000D+01 0.3880000D+00 0.3880000D+00 0.3880000D+00 0.1020000D+00
EXPONENTS  0.1020000D+00 0.1020000D+00 0.1057000D+01 0.1057000D+01 0.1057000D+01
EXPONENTS  0.1057000D+01 0.1057000D+01 0.1057000D+01 0.2470000D+00 0.2470000D+00
EXPONENTS  0.2470000D+00 0.2470000D+00 0.2470000D+00 0.2470000D+00 0.3387000D+02
EXPONENTS  0.5095000D+01 0.1159000D+01 0.3258000D+00 0.1027000D+00 0.2526000D-01
EXPONENTS  0.1407000D+01 0.1407000D+01 0.1407000D+01 0.3880000D+00 0.3880000D+00
EXPONENTS  0.3880000D+00 0.1020000D+00 0.1020000D+00 0.1020000D+00 0.1057000D+01
EXPONENTS  0.1057000D+01 0.1057000D+01 0.1057000D+01 0.1057000D+01 0.1057000D+01
EXPONENTS  0.2470000D+00 0.2470000D+00 0.2470000D+00 0.2470000D+00 0.2470000D+00
EXPONENTS  0.2470000D+00 0.3387000D+02 0.5095000D+01 0.1159000D+01 0.3258000D+00
EXPONENTS  0.1027000D+00 0.2526000D-01 0.1407000D+01 0.1407000D+01 0.1407000D+01
EXPONENTS  0.3880000D+00 0.3880000D+00 0.3880000D+00 0.1020000D+00 0.1020000D+00
EXPONENTS  0.1020000D+00 0.1057000D+01 0.1057000D+01 0.1057000D+01 0.1057000D+01
EXPONENTS  0.1057000D+01 0.1057000D+01 0.2470000D+00 0.2470000D+00 0.2470000D+00
EXPONENTS  0.2470000D+00 0.2470000D+00 0.2470000D+00 0.4561000D+06 0.6833000D+05
EXPONENTS  0.1555000D+05 0.4405000D+04 0.1439000D+04 0.5204000D+03 0.2031000D+03
EXPONENTS  0.8396000D+02 0.3620000D+02 0.1583000D+02 0.6334000D+01 0.4405000D+04
EXPONENTS  0.1439000D+04 0.5204000D+03 0.2031000D+03 0.8396000D+02 0.3620000D+02
EXPONENTS  0.1583000D+02 0.6334000D+01 0.2694000D+01 0.1439000D+04 0.2031000D+03
EXPONENTS  0.8396000D+02 0.3620000D+02 0.1583000D+02 0.6334000D+01 0.2694000D+01
EXPONENTS  0.4313000D+00 0.9768000D+00 0.1625000D+00 0.5910000D-01 0.6633000D+03
EXPONENTS  0.1568000D+03 0.4998000D+02 0.1842000D+02 0.7240000D+01 0.2922000D+01
EXPONENTS  0.6633000D+03 0.1568000D+03 0.4998000D+02 0.1842000D+02 0.7240000D+01
EXPONENTS  0.2922000D+01 0.6633000D+03 0.1568000D+03 0.4998000D+02 0.1842000D+02
EXPONENTS  0.7240000D+01 0.2922000D+01 0.1568000D+03 0.4998000D+02 0.1842000D+02
EXPONENTS  0.7240000D+01 0.2922000D+01 0.3818000D+00 0.1568000D+03 0.4998000D+02
EXPONENTS  0.1842000D+02 0.7240000D+01 0.2922000D+01 0.3818000D+00 0.1568000D+03
EXPONENTS  0.4998000D+02 0.1842000D+02 0.7240000D+01 0.2922000D+01 0.3818000D+00
EXPONENTS  0.1022000D+01 0.1022000D+01 0.1022000D+01 0.1301000D+00 0.1301000D+00
EXPONENTS  0.1301000D+00 0.4190000D-01 0.4190000D-01 0.4190000D-01 0.1046000D+01
EXPONENTS  0.1046000D+01 0.1046000D+01 0.1046000D+01 0.1046000D+01 0.1046000D+01
EXPONENTS  0.3440000D+00 0.3440000D+00 0.3440000D+00 0.3440000D+00 0.3440000D+00
EXPONENTS  0.3440000D+00 0.1350000D+00 0.1350000D+00 0.1350000D+00 0.1350000D+00
EXPONENTS  0.1350000D+00 0.1350000D+00 0.7060000D+00 0.7060000D+00 0.7060000D+00
EXPONENTS  0.7060000D+00 0.7060000D+00 0.7060000D+00 0.7060000D+00 0.7060000D+00
EXPONENTS  0.7060000D+00 0.7060000D+00 0.3120000D+00 0.3120000D+00 0.3120000D+00
EXPONENTS  0.3120000D+00 0.3120000D+00 0.3120000D+00 0.3120000D+00 0.3120000D+00
EXPONENTS  0.3120000D+00 0.3120000D+00 0.1950000D+05 0.2923000D+04 0.6645000D+03
EXPONENTS  0.1875000D+03 0.6062000D+02 0.2142000D+02 0.7950000D+01 0.6645000D+03
EXPONENTS  0.1875000D+03 0.6062000D+02 0.2142000D+02 0.7950000D+01 0.8815000D+00
EXPONENTS  0.2257000D+01 0.3041000D+00 0.9158000D-01 0.4388000D+02 0.9926000D+01
EXPONENTS  0.2930000D+01 0.4388000D+02 0.9926000D+01 0.2930000D+01 0.4388000D+02
EXPONENTS  0.9926000D+01 0.2930000D+01 0.9132000D+00 0.9132000D+00 0.9132000D+00
EXPONENTS  0.2672000D+00 0.2672000D+00 0.2672000D+00 0.7361000D-01 0.7361000D-01
EXPONENTS  0.7361000D-01 0.3107000D+01 0.3107000D+01 0.3107000D+01 0.3107000D+01
EXPONENTS  0.3107000D+01 0.3107000D+01 0.8550000D+00 0.8550000D+00 0.8550000D+00
EXPONENTS  0.8550000D+00 0.8550000D+00 0.8550000D+00 0.2920000D+00 0.2920000D+00
EXPONENTS  0.2920000D+00 0.2920000D+00 0.2920000D+00 0.2920000D+00 0.1917000D+01
EXPONENTS  0.1917000D+01 0.1917000D+01 0.1917000D+01 0.1917000D+01 0.1917000D+01
EXPONENTS  0.1917000D+01 0.1917000D+01 0.1917000D+01 0.1917000D+01 0.7240000D+00
EXPONENTS  0.7240000D+00 0.7240000D+00 0.7240000D+00 0.7240000D+00 0.7240000D+00
EXPONENTS  0.7240000D+00 0.7240000D+00 0.7240000D+00 0.7240000D+00
MO    1     MO 0.0        OCC NO =    2.0000300  ORB. ENERGY =    0.000000
 -0.32597911D-09 -0.60769073D-09 -0.10270801D-08 -0.15438930D-08 -0.18963960D-08
 -0.16004913D-08 -0.60182654D-09  0.14290168D-11  0.10681015D-10  0.39917393D-10
  0.11136331D-09  0.14919613D-09 -0.17617281D-09 -0.42477482D-09  0.90130252D-08
  0.23043273D-08  0.11174550D-03  0.10476851D-03  0.74601419D-04 -0.14796804D-07
 -0.13872944D-07 -0.98783626D-08 -0.21811177D-07 -0.20449364D-07 -0.14561166D-07
  0.36058170D-03 -0.47722306D-07 -0.61327433D-07  0.46148070D-03 -0.61459425D-07
 -0.85475858D-07  0.94199987D-05 -0.12775392D-08 -0.17063375D-08 -0.74082364D-07
 -0.15492603D-07  0.89574967D-07  0.12968854D-03 -0.50977913D-03  0.43890045D-07
  0.65456184D-07 -0.46793644D-07 -0.18662540D-07  0.38347274D-03  0.98661408D-04
 -0.80049215D-07 -0.20341790D-08 -0.10326915D-07  0.12361094D-07  0.80930083D-04
 -0.66350221D-04 -0.52540477D-08  0.93134010D-04 -0.12706328D-07  0.66637295D-07
  0.92638420D-04 -0.38156547D-08 -0.17556979D-06 -0.37204045D-03  0.41934638D-07
 -0.24342100D-07  0.47655176D-04 -0.26934790D-04  0.33756133D-08 -0.19729149D-07
 -0.27208653D-04  0.23184440D-07  0.66193968D-07  0.10801302D-03 -0.33311280D-07
 -0.70065193D-08  0.10304857D-03  0.40173356D-09  0.72454302D-09  0.10683383D-08
 -0.76431321D-08 -0.62392711D-08 -0.13884252D-09  0.61873717D-05 -0.21647946D-08
 -0.14057413D-08  0.80514183D-04 -0.13443437D-07 -0.15617586D-07  0.73747281D-04
 -0.10109538D-07 -0.12842458D-07 -0.21194341D-08 -0.47528110D-08  0.68722450D-08
  0.30615786D-04 -0.42933913D-04 -0.37974583D-09  0.15194315D-07 -0.31158365D-08
 -0.12078479D-07  0.27720196D-04  0.63361872D-04 -0.13424523D-07 -0.34770760D-04
 -0.62710497D-04 -0.92466592D-04  0.31320328D-03  0.96765383D-03 -0.10332608D-04
  0.55056006D-04 -0.28566772D-04  0.20542245D-04  0.23488707D-03 -0.89298049D-04
  0.23559693D-03  0.14710860D-03 -0.42307539D-04  0.18986217D-04  0.98944306D-05
 -0.68664572D-04  0.58770142D-04 -0.10764206D-03  0.21171998D-03 -0.14914738D-03
 -0.11277158D-04 -0.36971852D-04  0.48249010D-04 -0.16454964D-04  0.39034102D-04
  0.13383232D-04  0.34770606D-04  0.62710220D-04  0.92466183D-04 -0.31321060D-03
 -0.96765019D-03  0.10332448D-04  0.55056276D-04  0.28552910D-04 -0.20561151D-04
  0.23482630D-03  0.89236866D-04 -0.23568245D-03  0.14711238D-03  0.42269070D-04
 -0.19038847D-04 -0.98462739D-05  0.68691874D-04 -0.58845600D-04 -0.10754778D-03
  0.21172373D-03  0.14913101D-03  0.11286994D-04  0.36976436D-04 -0.48263429D-04
 -0.16446251D-04  0.38989606D-04 -0.13387989D-04 -0.32388343D-07 -0.60595134D-07
 -0.10469495D-06 -0.16972282D-06 -0.25774038D-06 -0.35823488D-06 -0.42591383D-06
 -0.37941884D-06 -0.18842742D-06 -0.30335220D-07 -0.32005449D-09 -0.15181074D-09
 -0.50641521D-08 -0.17647556D-07 -0.63551707D-07 -0.14009183D-06 -0.19720408D-06
  0.94072774D-08  0.25807579D-06  0.15259860D-06 -0.29522307D-11 -0.35758723D-10
 -0.74571046D-10 -0.21385678D-09 -0.11105285D-10  0.92225414D-09  0.23829276D-08
 -0.19414972D-08  0.89052374D-08 -0.58346645D-09 -0.54888420D-09  0.11610774D+02
  0.15294105D+02  0.16871792D+02  0.14013344D+02  0.74414746D+01  0.19199393D+01
 -0.15261909D-02 -0.20103505D-02 -0.22177313D-02 -0.18419995D-02 -0.97815284D-03
 -0.25236855D-03 -0.20603715D-02 -0.27139913D-02 -0.29939572D-02 -0.24867159D-02
 -0.13205151D-02 -0.34069981D-03 -0.45965038D-03  0.44436041D-02  0.62659456D-02
  0.89619598D-02 -0.45382103D-04 -0.82189624D-02  0.60456463D-07 -0.58445419D-06
 -0.82414141D-06 -0.11787402D-05  0.59689746D-08  0.10810160D-05  0.81495321D-07
 -0.78784433D-06 -0.11109427D-05 -0.15889420D-05  0.80461786D-08  0.14572097D-05
  0.76646710D-01 -0.10075787D-04 -0.13600071D-04 -0.64341475D-03  0.84322286D-07
  0.11391631D-06 -0.57914225D-04  0.76028618D-08  0.10338891D-07 -0.17163323D-06
 -0.28327981D-08  0.17446603D-06  0.22875570D-04 -0.98405630D-03  0.12621695D-06
  0.61985565D-07  0.82385307D-09 -0.62809418D-07 -0.86117284D-05  0.35690335D-03
 -0.46043204D-07 -0.10605608D-07 -0.37671739D-09  0.10982325D-07  0.23513927D-05
 -0.61374488D-04  0.77869069D-08  0.25635172D-05 -0.31490560D-09  0.16484652D-08
  0.20627142D-05  0.11753063D-07  0.40261912D-08 -0.97532657D-05 -0.10808346D-07
 -0.89715869D-08  0.69350453D-04  0.14630113D-04 -0.19861226D-08  0.10322274D-07
  0.14857772D-04 -0.43344320D-08 -0.30249291D-07 -0.58748111D-04  0.10292800D-07
 -0.71753179D-09 -0.13843967D-04  0.51203861D-08  0.95444085D-08  0.16179899D-07
  0.24498555D-07  0.30628589D-07  0.26346079D-07  0.10104288D-07 -0.12690907D-10
 -0.16800385D-09 -0.61022053D-09 -0.18102077D-08 -0.20858988D-08  0.25336347D-08
  0.12065977D-09 -0.44289449D-08 -0.41644088D-08 -0.29091987D-03 -0.28451328D-03
 -0.18798995D-03  0.38468192D-07  0.37621052D-07  0.24857819D-07  0.47447892D-07
  0.46403002D-07  0.30660425D-07 -0.88486868D-05 -0.97112729D-10  0.31246642D-08
 -0.66780527D-04  0.99076375D-08  0.70908192D-08 -0.19614218D-04  0.26057830D-08
  0.29283231D-08 -0.59383474D-08 -0.18617362D-07  0.24555709D-07  0.14128095D-03
 -0.13115059D-03 -0.74196534D-08  0.89589882D-08  0.92954851D-08 -0.18254473D-07
 -0.70887986D-04  0.10123469D-03 -0.11979025D-08 -0.78105716D-08 -0.42475299D-08
  0.12058101D-07  0.35949088D-04 -0.73930527D-04  0.44092151D-08 -0.70927676D-04
  0.11110737D-07 -0.48811380D-07 -0.73371087D-04 -0.56465270D-07  0.86243457D-07
  0.28615411D-03  0.23133060D-07  0.60190683D-07 -0.37589604D-03  0.25232734D-04
 -0.39466079D-08  0.17122613D-07  0.25964682D-04  0.17522849D-07 -0.32094786D-07
 -0.10166288D-03 -0.56830256D-08 -0.19273053D-07  0.11938350D-03
MO    2     MO 0.0        OCC NO =    2.0000300  ORB. ENERGY =    0.000000
 -0.55454142D-04 -0.10337769D-03 -0.17472238D-03 -0.26264033D-03 -0.32260660D-03
 -0.27226859D-03 -0.10238010D-03  0.16261497D-07  0.12154461D-06  0.45423998D-06
  0.12672588D-05  0.16977774D-05 -0.20047586D-05 -0.84689389D-05  0.32169498D-04
  0.10859415D-05  0.12937791D-07  0.12130002D-07  0.86372838D-08  0.10780235D-03
  0.10107155D-03  0.71968967D-04 -0.62312108D-05 -0.58421562D-05 -0.41599632D-05
  0.46682074D-07  0.35885300D-03 -0.11230527D-05  0.60824040D-07  0.45978183D-03
  0.66112041D-05  0.12070670D-08  0.94407781D-05  0.32978871D-07  0.65858641D-04
 -0.65421824D-04 -0.43681741D-06 -0.12369756D-06 -0.90759184D-07 -0.51091711D-03
  0.19211321D-03 -0.19019307D-03 -0.19201483D-05 -0.79531236D-07 -0.56007954D-07
  0.91054297D-04  0.40424583D-04 -0.40423921D-04 -0.66148336D-09 -0.32140829D-07
 -0.22831676D-07 -0.67475466D-04  0.16605400D-07  0.92387592D-04 -0.13138891D-05
  0.68864593D-08  0.93211537D-04  0.24875270D-04 -0.56702659D-07 -0.37037431D-03
 -0.20933603D-04 -0.17387246D-06  0.57024464D-08 -0.27633386D-04  0.58577209D-06
 -0.13481715D-07 -0.23519046D-04  0.48181002D-04 -0.36256240D-08  0.10641920D-03
 -0.49938318D-04  0.21399280D-07 -0.41168376D-04 -0.74248861D-04 -0.10947990D-03
  0.34723066D-03  0.11107112D-02 -0.11822320D-04  0.12466288D-07  0.68079558D-04
  0.21723743D-04  0.82810936D-07  0.28353542D-03  0.26376735D-03  0.25619359D-07
  0.17072562D-03  0.21207298D-04 -0.10937073D-03  0.43130728D-04  0.66239998D-04
  0.91335344D-07  0.98880990D-07  0.29619267D-03 -0.43090899D-04 -0.11892258D-04
  0.54983157D-04  0.13428024D-07  0.38573591D-07  0.30702196D-04  0.20054211D-04
  0.36168595D-04  0.53330572D-04 -0.19291298D-03 -0.56228265D-03  0.58297819D-05
 -0.29239907D-04  0.21923063D-04 -0.12357484D-04 -0.90694944D-04  0.13316365D-03
 -0.13403502D-03 -0.42913217D-04  0.98472687D-04 -0.10932736D-04  0.90055408D-05
  0.25449329D-04 -0.34454869D-04  0.79050207D-04 -0.14934250D-03  0.37542650D-04
  0.20616802D-04  0.73883027D-05 -0.28005104D-04  0.25629982D-04  0.13285477D-04
  0.53326469D-04  0.20054322D-04  0.36168796D-04  0.53330868D-04 -0.19291440D-03
 -0.56229170D-03  0.58300422D-05  0.29240876D-04  0.21915514D-04 -0.12367514D-04
  0.90681417D-04  0.13314136D-03 -0.13407124D-03  0.42935619D-04  0.98462511D-04
 -0.10948849D-04  0.90391635D-05  0.25469140D-04 -0.34508303D-04 -0.79027677D-04
  0.14932434D-03  0.37536203D-04  0.20605680D-04  0.73949687D-05 -0.28000649D-04
 -0.25618082D-04 -0.13306230D-04  0.53339153D-04  0.60641410D-05  0.11345361D-04
  0.19602267D-04  0.31777578D-04  0.48257301D-04  0.67073108D-04  0.79744786D-04
  0.71039426D-04  0.35279681D-04  0.56797302D-05  0.59924509D-07  0.25197013D-07
  0.84053016D-06  0.29290793D-05  0.10548089D-04  0.23251949D-04  0.32731240D-04
 -0.15613868D-05 -0.42834512D-04 -0.25327779D-04  0.42849713D-08  0.51901467D-07
  0.10823504D-06  0.31039924D-06  0.16118600D-07 -0.13385921D-05 -0.34586648D-05
  0.28179573D-05 -0.71846502D-06 -0.60122198D-05  0.18050860D-06  0.15207190D-02
  0.20031427D-02  0.22097799D-02  0.18353952D-02  0.97464581D-03  0.25146371D-03
  0.11610724D+02  0.15294040D+02  0.16871720D+02  0.14013285D+02  0.74414431D+01
  0.19199312D+01 -0.30818664D-01 -0.40595390D-01 -0.44783070D-01 -0.37195846D-01
 -0.19752026D-01 -0.50961260D-02 -0.60106931D-07  0.58107513D-06  0.81937659D-06
  0.11719253D-05 -0.59344647D-08 -0.10747660D-05 -0.45951511D-03  0.44422964D-02
  0.62641016D-02  0.89593224D-02 -0.45368748D-04 -0.82165437D-02  0.14492450D-05
 -0.14010368D-04 -0.19756082D-04 -0.28256423D-04  0.14308655D-06  0.25913805D-04
  0.10036830D-04  0.76646328D-01 -0.20948201D-03 -0.84190239D-07 -0.64345397D-03
  0.36340138D-05 -0.76107633D-08 -0.57913775D-04  0.63692660D-07  0.11306332D-04
 -0.15306023D-04  0.39996912D-05 -0.18060378D-06 -0.13064712D-06 -0.98121483D-03
 -0.32118156D-05  0.53542386D-05 -0.21424229D-05  0.65155018D-07  0.46426686D-07
  0.35532702D-03  0.12867091D-05 -0.11402840D-05 -0.14642508D-06 -0.11370959D-07
 -0.84026437D-08 -0.61109901D-04  0.62071602D-08  0.22432182D-05 -0.94998857D-07
 -0.56193694D-08  0.15529647D-05  0.34070198D-04 -0.13002111D-07 -0.82826192D-05
 -0.33785202D-04 -0.20166318D-07  0.60950376D-09  0.14588439D-04  0.31199059D-06
  0.29930990D-08  0.14800434D-04 -0.73230806D-05 -0.48216102D-08 -0.58565752D-04
  0.63871089D-05 -0.22712922D-07  0.29791930D-05  0.55532209D-05  0.94139465D-05
  0.14253988D-04  0.17820625D-04  0.15328933D-04  0.58789757D-05  0.37999438D-08
  0.50304141D-07  0.18271379D-06  0.54201702D-06  0.62456514D-06 -0.75862739D-06
  0.19941999D-06  0.12916695D-05 -0.98715226D-06 -0.40884262D-07 -0.39983916D-07
 -0.26419064D-07 -0.29230581D-03 -0.28586870D-03 -0.18888554D-03 -0.15809838D-04
 -0.15461677D-04 -0.10216183D-04 -0.30784705D-08 -0.10060293D-04 -0.27754830D-05
 -0.75714119D-08 -0.66030685D-04 -0.15256045D-06 -0.25774340D-08 -0.19522363D-04
 -0.23919563D-06  0.72701464D-04 -0.71995665D-04 -0.70579878D-06 -0.58315790D-07
 -0.42670763D-07 -0.13046619D-03 -0.36459791D-04  0.36058791D-04  0.40099983D-06
  0.35265046D-07  0.25818851D-07  0.10089836D-03  0.18174804D-04 -0.18430762D-04
  0.25595779D-06 -0.21507010D-07 -0.14928457D-07 -0.73358623D-04 -0.39850337D-07
 -0.71819273D-04 -0.97062851D-06  0.22048910D-07 -0.70549017D-04 -0.18673467D-03
  0.97502101D-07  0.28600684D-03  0.18964656D-03  0.21336020D-06  0.12920176D-07
  0.25477717D-04  0.45399278D-06 -0.67821988D-08  0.25066677D-04  0.59090557D-04
 -0.31978330D-07 -0.10149983D-03 -0.60452535D-04 -0.72251174D-07
MO    3     MO 0.0        OCC NO =    2.0000210  ORB. ENERGY =    0.000000
 -0.14485105D-01 -0.27003153D-01 -0.45639008D-01 -0.68603941D-01 -0.84267654D-01
 -0.71118927D-01 -0.26742574D-01 -0.38082677D-05 -0.28464442D-04 -0.10637812D-03
 -0.29677839D-03 -0.39760122D-03  0.46949290D-03 -0.87543415D-03 -0.19261257D-02
 -0.81513110D-04  0.20712657D-06  0.19419433D-06  0.13827793D-06 -0.19688785D-05
 -0.18459488D-05 -0.13144255D-05  0.11621902D-02  0.10896272D-02  0.77587948D-03
  0.10420883D-06 -0.89855807D-06  0.60603007D-03 -0.67217749D-07 -0.33331078D-05
 -0.37572028D-03  0.83405722D-09 -0.48138593D-07  0.46975321D-05 -0.10481383D-03
 -0.10591532D-03  0.21072915D-03 -0.16259052D-08  0.11252504D-06 -0.12621353D-05
 -0.24327815D-04 -0.22949341D-04  0.47277157D-04 -0.71958246D-09  0.24888091D-07
 -0.29533459D-05  0.11045331D-04  0.11713061D-04 -0.22758391D-04  0.97016001D-10
 -0.12092774D-07 -0.56113205D-06 -0.15703132D-07  0.36093397D-04  0.69018002D-05
  0.39464331D-07 -0.10799977D-03 -0.11414798D-04  0.76450650D-08 -0.28041626D-06
 -0.92906027D-05  0.38716792D-07  0.29062790D-08  0.51418249D-04 -0.85295113D-04
  0.81430123D-07 -0.15468603D-03  0.12747782D-03 -0.90148960D-07  0.43127975D-06
  0.12840752D-03  0.55214587D-07 -0.51793409D-05 -0.93411546D-05 -0.13773527D-04
  0.74669422D-03  0.22721273D-03  0.48432714D-05  0.16649052D-07  0.93611144D-04
  0.25620822D-04  0.24540246D-07  0.19971116D-03  0.35901678D-06  0.12109286D-07
  0.42867147D-04  0.38007435D-04 -0.71800435D-04  0.55191154D-04  0.16609281D-04
  0.45402213D-07  0.41090288D-07  0.76682541D-04 -0.98581328D-05 -0.11860210D-04
  0.21718343D-04 -0.66554451D-08  0.68104602D-08 -0.34337895D-04 -0.49525865D-05
 -0.89321938D-05 -0.13170515D-04  0.75037702D-03  0.23860866D-03  0.51368632D-05
  0.82579300D-04 -0.47980939D-04  0.28311959D-04  0.17214834D-03 -0.99597394D-04
 -0.34869395D-05  0.38117076D-04 -0.22689152D-04  0.38858822D-04  0.22042415D-04
 -0.41495533D-04  0.19453118D-04 -0.11083447D-03  0.65584993D-04 -0.38483063D-04
 -0.11479166D-04 -0.10053137D-04  0.21532303D-04  0.20210497D-05 -0.29738087D-04
  0.17315980D-04 -0.49524441D-05 -0.89319369D-05 -0.13170136D-04  0.75038140D-03
  0.23861009D-03  0.51368260D-05 -0.82581663D-04 -0.47960436D-04  0.28341716D-04
 -0.17217603D-03 -0.99553544D-04 -0.34244668D-05 -0.38109253D-04 -0.22679544D-04
  0.38872703D-04  0.22047571D-04 -0.41523498D-04  0.19475927D-04  0.11078826D-03
 -0.65597732D-04 -0.38506427D-04 -0.11469056D-04 -0.10052716D-04  0.21521773D-04
 -0.20140226D-05  0.29765717D-04  0.17309095D-04 -0.15469633D+00 -0.28942032D+00
 -0.50005413D+00 -0.81064649D+00 -0.12310445D+01 -0.17110360D+01 -0.20342907D+01
 -0.18122169D+01 -0.89998521D+00 -0.14489001D+00 -0.15286751D-02 -0.72327850D-03
 -0.24127360D-01 -0.84079018D-01 -0.30278216D+00 -0.66744559D+00 -0.93954797D+00
  0.44819500D-01  0.12295617D+01  0.72703213D+00 -0.15539044D-04 -0.18821577D-03
 -0.39250414D-03 -0.11256335D-02 -0.58452582D-04  0.48542777D-02  0.12542521D-01
 -0.10219056D-01  0.46627207D-01 -0.38864957D-03 -0.13196185D-03  0.10528432D-02
  0.13868408D-02  0.15299025D-02  0.12707038D-02  0.67477896D-03  0.17409650D-03
  0.15977890D-01  0.21046619D-01  0.23217715D-01  0.19284130D-01  0.10240408D-01
  0.26420789D-02  0.59312860D+01  0.78128911D+01  0.86188419D+01  0.71586230D+01
  0.38014275D+01  0.98078816D+00 -0.37323207D-07  0.36081675D-06  0.50878928D-06
  0.72770327D-06 -0.36849869D-08 -0.66737253D-06 -0.49670324D-06  0.48018074D-05
  0.67710496D-05  0.96843921D-05 -0.49040398D-07 -0.88815010D-05 -0.21030784D-03
  0.20331208D-02  0.28669126D-02  0.41004434D-02 -0.20764068D-04 -0.37604934D-02
  0.73811937D-05  0.11012997D-03  0.41581256D-01 -0.85683960D-07 -0.90896131D-06
 -0.48246624D-03 -0.17430825D-08 -0.78007252D-07 -0.98118293D-05 -0.84002768D-05
 -0.76912744D-05  0.16091551D-04  0.55211107D-09  0.87745514D-08  0.19243990D-05
 -0.11072794D-03 -0.11101918D-03  0.22174711D-03 -0.62578308D-10  0.11812901D-06
  0.14134073D-06 -0.14346446D-04 -0.14209600D-04  0.28556045D-04  0.10068053D-09
  0.15310179D-07  0.24137869D-06  0.10817738D-08 -0.72544850D-05  0.55402165D-05
 -0.95414925D-08  0.21026000D-04 -0.86730739D-05  0.62961710D-08  0.73745531D-06
 -0.79475755D-05 -0.67256806D-08  0.82554120D-08  0.20861928D-05 -0.33632093D-04
  0.11262669D-07 -0.59120848D-05  0.50542998D-04 -0.36028905D-07 -0.34649352D-06
  0.50353280D-04  0.18180609D-08 -0.88202782D-03 -0.16441014D-02 -0.27871181D-02
 -0.42200737D-02 -0.52760217D-02 -0.45383247D-02 -0.17405452D-02 -0.68494502D-06
 -0.90673896D-05 -0.32934409D-04 -0.97699303D-04 -0.11257871D-03  0.13674362D-03
 -0.96103725D-04 -0.15849137D-03  0.12581750D-04  0.66668837D-06  0.65200667D-06
  0.43080837D-06  0.29106414D-05  0.28465438D-05  0.18808318D-05  0.38933271D-02
  0.38075888D-02  0.25158349D-02  0.14956731D-06  0.22576505D-06  0.87779514D-03
  0.41685093D-08  0.19722162D-06  0.21658849D-04  0.15262199D-08 -0.87081345D-07
  0.93312195D-05 -0.34805707D-04 -0.35708459D-04  0.70514167D-04  0.71537659D-09
  0.35972261D-07  0.51979989D-06  0.20615895D-04  0.21121545D-04 -0.41737440D-04
 -0.30415822D-09 -0.21554044D-07 -0.39236970D-06  0.18214104D-04  0.17909221D-04
 -0.36123325D-04  0.13154879D-10 -0.18036987D-07  0.15744448D-06 -0.98674792D-08
 -0.30417645D-05  0.45956439D-04 -0.14175317D-07  0.10079386D-04 -0.70961862D-04
  0.43777754D-07 -0.95409248D-06 -0.66907455D-04 -0.98943931D-09  0.58044778D-08
  0.97539909D-06 -0.25164645D-04  0.71590035D-08 -0.31496781D-05  0.38382163D-04
 -0.24572437D-07  0.22348084D-06  0.37111772D-04  0.26516204D-09
MO    4     MO 0.0        OCC NO =    2.0000123  ORB. ENERGY =    0.000000
  0.26516215D-01  0.49431567D-01  0.83546084D-01  0.12558535D+00  0.15425910D+00
  0.13018924D+00  0.48954555D-01 -0.14857485D-05 -0.11105049D-04 -0.41502105D-04
 -0.11578441D-03 -0.15511919D-03  0.18316684D-03  0.26195154D-02 -0.35981560D-02
 -0.40456504D-04  0.64599662D-06  0.60566289D-06  0.43126806D-06 -0.11749162D-04
 -0.11015586D-04 -0.78437535D-05  0.36691502D-02  0.34400616D-02  0.24495288D-02
  0.22875746D-06  0.13252252D-05  0.13074315D-02 -0.74937326D-07 -0.57849415D-05
 -0.41253941D-03  0.68912820D-09 -0.12609240D-06  0.37547226D-05 -0.31889404D-03
 -0.32336172D-03  0.64225576D-03 -0.24668152D-08  0.34054496D-06  0.79521292D-06
  0.10919295D-04  0.12176446D-04 -0.23095741D-04 -0.10736715D-08 -0.11909338D-07
 -0.88386227D-05 -0.18745194D-04 -0.17601136D-04  0.36346330D-04  0.17133241D-09
  0.18897149D-07 -0.92461205D-06  0.10146249D-07 -0.41710963D-04  0.21401716D-04
 -0.53073430D-07  0.12661685D-03 -0.34200731D-04  0.22634682D-07 -0.14839585D-05
 -0.30004416D-04 -0.43536352D-07  0.12508651D-07  0.80630754D-04 -0.16392693D-03
  0.13605624D-06 -0.24278841D-03  0.24424276D-03 -0.17358219D-06  0.89615123D-06
  0.24753804D-03  0.87287131D-07 -0.90311766D-04 -0.16288099D-03 -0.24016792D-03
  0.10158025D-02  0.67005521D-03  0.37482524D-05 -0.26397183D-08 -0.60577245D-04
  0.25194039D-04  0.30519316D-07  0.30940586D-03 -0.43289362D-04  0.26966656D-07
  0.10921585D-03  0.75125200D-04 -0.13801835D-03  0.29614036D-04  0.10840432D-03
  0.66377530D-07  0.10381496D-06  0.13462487D-03 -0.14600693D-04 -0.20024184D-04
  0.34624877D-04 -0.12696139D-07  0.95259581D-08 -0.63484589D-04 -0.90664436D-04
 -0.16351704D-03 -0.24110579D-03  0.10144670D-02  0.69037542D-03  0.44202610D-05
 -0.50756177D-04  0.28389341D-04  0.33324985D-04  0.26251309D-03 -0.15174741D-03
 -0.42286431D-04  0.96312300D-04 -0.56690297D-04  0.76403550D-04 -0.17675700D-04
 -0.10002114D-03  0.11769684D-03 -0.14536271D-03  0.12371235D-03 -0.72209858D-04
 -0.19357000D-04 -0.15710596D-04  0.35067596D-04  0.57428791D-05 -0.54224087D-04
  0.31065428D-04 -0.90664678D-04 -0.16351748D-03 -0.24110643D-03  0.10144703D-02
  0.69038161D-03  0.44200041D-05  0.50775045D-04  0.28375734D-04  0.33306714D-04
 -0.26256749D-03 -0.15168033D-03 -0.42193463D-04 -0.96300446D-04 -0.56666179D-04
  0.76438149D-04 -0.17681042D-04 -0.10005701D-03  0.11773805D-03  0.14529676D-03
 -0.12363519D-03 -0.72229634D-04 -0.19339260D-04 -0.15709411D-04  0.35048671D-04
 -0.57297473D-05  0.54271383D-04  0.31054056D-04  0.91169979D-01  0.17056930D+00
  0.29470592D+00  0.47775292D+00  0.72551366D+00  0.10083957D+01  0.11989053D+01
  0.10680265D+01  0.53040452D+00  0.85390641D-01  0.90092170D-03  0.42685129D-03
  0.14239045D-01  0.49620220D-01  0.17869045D+00  0.39390085D+00  0.55448526D+00
 -0.26450754D-01 -0.72564026D+00 -0.42906654D+00  0.62621248D-05  0.75849624D-04
  0.15817639D-03  0.45362236D-03  0.23555977D-04 -0.19562396D-02 -0.50545475D-02
  0.41182074D-02 -0.28502774D-01  0.14121779D-02 -0.18273425D-03  0.17650421D-02
  0.23249733D-02  0.25648095D-02  0.21302751D-02  0.11312352D-02  0.29186460D-03
  0.26334540D-01  0.34688749D-01  0.38267120D-01  0.31783840D-01  0.16878101D-01
  0.43546383D-02  0.99210735D+01  0.13068375D+02  0.14416463D+02  0.11974001D+02
  0.63585269D+01  0.16405332D+01 -0.59896730D-07  0.57904304D-06  0.81651114D-06
  0.11678269D-05 -0.59137111D-08 -0.10710074D-05 -0.68295189D-06  0.66023394D-05
  0.93099878D-05  0.13315745D-04 -0.67429060D-07 -0.12211794D-04 -0.33676458D-03
  0.32556232D-02  0.45907686D-02  0.65660135D-02 -0.33249368D-04 -0.60216537D-02
  0.12917753D-04  0.18749706D-03  0.72611871D-01 -0.53753345D-07 -0.11116946D-05
 -0.30451084D-03 -0.68056235D-09 -0.11398745D-06 -0.38862999D-05  0.45448646D-03
  0.45576116D-03 -0.91024761D-03  0.97057162D-10 -0.48529348D-06 -0.18737490D-05
 -0.30951007D-03 -0.31023094D-03  0.61974101D-03 -0.10105551D-09  0.33021976D-06
  0.83317862D-06  0.42523276D-05  0.45109298D-05 -0.87632574D-05  0.15420261D-09
 -0.47644227D-08  0.42888341D-06  0.17740283D-07 -0.14681724D-04 -0.46839380D-04
 -0.37385711D-08  0.42427164D-04  0.69599478D-04 -0.49482279D-07  0.16180063D-05
  0.70918663D-04 -0.14110414D-07  0.15184232D-07  0.42481053D-05 -0.62730635D-04
  0.21377283D-07 -0.12107878D-04  0.94168179D-04 -0.66929978D-07 -0.63643807D-06
  0.94023726D-04  0.40570383D-08 -0.63829386D-02 -0.11897809D-01 -0.20169436D-01