 title line
GAUSSIAN            211 MOL ORBITALS    339 PRIMITIVES        6 NUCLEI
  C    1    (CENTRE  1)   0.00033070  0.00005480 -0.94053370  CHARGE =  6.0
  H    2    (CENTRE  2)   0.00003590 -1.98906904 -1.17300214  CHARGE =  1.0
  H    3    (CENTRE  3)  -1.72213010  0.99468570 -1.17398291  CHARGE =  1.0
  H    4    (CENTRE  4)   1.72295780  0.99424539 -1.19349433  CHARGE =  1.0
  Cl   5    (CENTRE  5)   0.00104880  0.00181792  3.10806659  CHARGE = 17.0
  F    6    (CENTRE  6)  -0.00035149 -0.00174044 -4.90092914  CHARGE =  9.0
CENTRE ASSIGNMENTS    1  1  1  1  1  1  1  1  1  1  1  1  1  1  1  1  1  1  1  1
CENTRE ASSIGNMENTS    1  1  1  1  1  1  1  1  1  1  1  1  1  1  1  1  1  1  1  1
CENTRE ASSIGNMENTS    1  1  1  1  1  1  1  1  1  1  1  1  1  1  1  1  1  1  1  1
CENTRE ASSIGNMENTS    1  1  1  1  1  1  1  1  1  1  1  1  2  2  2  2  2  2  2  2
CENTRE ASSIGNMENTS    2  2  2  2  2  2  2  2  2  2  2  2  2  2  2  2  2  2  2  3
CENTRE ASSIGNMENTS    3  3  3  3  3  3  3  3  3  3  3  3  3  3  3  3  3  3  3  3
CENTRE ASSIGNMENTS    3  3  3  3  3  3  4  4  4  4  4  4  4  4  4  4  4  4  4  4
CENTRE ASSIGNMENTS    4  4  4  4  4  4  4  4  4  4  4  4  4  5  5  5  5  5  5  5
CENTRE ASSIGNMENTS    5  5  5  5  5  5  5  5  5  5  5  5  5  5  5  5  5  5  5  5
CENTRE ASSIGNMENTS    5  5  5  5  5  5  5  5  5  5  5  5  5  5  5  5  5  5  5  5
CENTRE ASSIGNMENTS    5  5  5  5  5  5  5  5  5  5  5  5  5  5  5  5  5  5  5  5
CENTRE ASSIGNMENTS    5  5  5  5  5  5  5  5  5  5  5  5  5  5  5  5  5  5  5  5
CENTRE ASSIGNMENTS    5  5  5  5  5  5  5  5  5  5  5  5  5  5  5  5  5  5  5  5
CENTRE ASSIGNMENTS    5  5  5  5  5  5  5  6  6  6  6  6  6  6  6  6  6  6  6  6
CENTRE ASSIGNMENTS    6  6  6  6  6  6  6  6  6  6  6  6  6  6  6  6  6  6  6  6
CENTRE ASSIGNMENTS    6  6  6  6  6  6  6  6  6  6  6  6  6  6  6  6  6  6  6  6
CENTRE ASSIGNMENTS    6  6  6  6  6  6  6  6  6  6  6  6  6  6  6  6  6  6  6
TYPE ASSIGNMENTS      1  1  1  1  1  1  1  1  1  1  1  1  1  1  1  1  2  2  2  3
TYPE ASSIGNMENTS      3  3  4  4  4  2  3  4  2  3  4  2  3  4  5  6  7  8  9 10
TYPE ASSIGNMENTS      5  6  7  8  9 10  5  6  7  8  9 10 11 12 13 17 14 15 18 19
TYPE ASSIGNMENTS     16 20 11 12 13 17 14 15 18 19 16 20  1  1  1  1  1  1  2  3
TYPE ASSIGNMENTS      4  2  3  4  2  3  4  5  6  7  8  9 10  5  6  7  8  9 10  1
TYPE ASSIGNMENTS      1  1  1  1  1  2  3  4  2  3  4  2  3  4  5  6  7  8  9 10
TYPE ASSIGNMENTS      5  6  7  8  9 10  1  1  1  1  1  1  2  3  4  2  3  4  2  3
TYPE ASSIGNMENTS      4  5  6  7  8  9 10  5  6  7  8  9 10  1  1  1  1  1  1  1
TYPE ASSIGNMENTS      1  1  1  1  1  1  1  1  1  1  1  1  1  1  1  1  1  1  1  1
TYPE ASSIGNMENTS      1  1  1  1  2  2  2  2  2  2  3  3  3  3  3  3  4  4  4  4
TYPE ASSIGNMENTS      4  4  2  2  2  2  2  2  3  3  3  3  3  3  4  4  4  4  4  4
TYPE ASSIGNMENTS      2  3  4  2  3  4  2  3  4  5  6  7  8  9 10  5  6  7  8  9
TYPE ASSIGNMENTS     10  5  6  7  8  9 10 11 12 13 17 14 15 18 19 16 20 11 12 13
TYPE ASSIGNMENTS     17 14 15 18 19 16 20  1  1  1  1  1  1  1  1  1  1  1  1  1
TYPE ASSIGNMENTS      1  1  1  2  2  2  3  3  3  4  4  4  2  3  4  2  3  4  2  3
TYPE ASSIGNMENTS      4  5  6  7  8  9 10  5  6  7  8  9 10  5  6  7  8  9 10 11
TYPE ASSIGNMENTS     12 13 17 14 15 18 19 16 20 11 12 13 17 14 15 18 19 16 20
EXPONENTS  0.8236000D+04 0.1235000D+04 0.2808000D+03 0.7927000D+02 0.2559000D+02
EXPONENTS  0.8997000D+01 0.3319000D+01 0.2808000D+03 0.7927000D+02 0.2559000D+02
EXPONENTS  0.8997000D+01 0.3319000D+01 0.3643000D+00 0.9059000D+00 0.1285000D+00
EXPONENTS  0.4402000D-01 0.1871000D+02 0.4133000D+01 0.1200000D+01 0.1871000D+02
EXPONENTS  0.4133000D+01 0.1200000D+01 0.1871000D+02 0.4133000D+01 0.1200000D+01
EXPONENTS  0.3827000D+00 0.3827000D+00 0.3827000D+00 0.1209000D+00 0.1209000D+00
EXPONENTS  0.1209000D+00 0.3569000D-01 0.3569000D-01 0.3569000D-01 0.1097000D+01
EXPONENTS  0.1097000D+01 0.1097000D+01 0.1097000D+01 0.1097000D+01 0.1097000D+01
EXPONENTS  0.3180000D+00 0.3180000D+00 0.3180000D+00 0.3180000D+00 0.3180000D+00
EXPONENTS  0.3180000D+00 0.1000000D+00 0.1000000D+00 0.1000000D+00 0.1000000D+00
EXPONENTS  0.1000000D+00 0.1000000D+00 0.7610000D+00 0.7610000D+00 0.7610000D+00
EXPONENTS  0.7610000D+00 0.7610000D+00 0.7610000D+00 0.7610000D+00 0.7610000D+00
EXPONENTS  0.7610000D+00 0.7610000D+00 0.2680000D+00 0.2680000D+00 0.2680000D+00
EXPONENTS  0.2680000D+00 0.2680000D+00 0.2680000D+00 0.2680000D+00 0.2680000D+00
EXPONENTS  0.2680000D+00 0.2680000D+00 0.3387000D+02 0.5095000D+01 0.1159000D+01
EXPONENTS  0.3258000D+00 0.1027000D+00 0.2526000D-01 0.1407000D+01 0.1407000D+01
EXPONENTS  0.1407000D+01 0.3880000D+00 0.3880000D+00 0.3880000D+00 0.1020000D+00
EXPONENTS  0.1020000D+00 0.1020000D+00 0.1057000D+01 0.1057000D+01 0.1057000D+01
EXPONENTS  0.1057000D+01 0.1057000D+01 0.1057000D+01 0.2470000D+00 0.2470000D+00
EXPONENTS  0.2470000D+00 0.2470000D+00 0.2470000D+00 0.2470000D+00 0.3387000D+02
EXPONENTS  0.5095000D+01 0.1159000D+01 0.3258000D+00 0.1027000D+00 0.2526000D-01
EXPONENTS  0.1407000D+01 0.1407000D+01 0.1407000D+01 0.3880000D+00 0.3880000D+00
EXPONENTS  0.3880000D+00 0.1020000D+00 0.1020000D+00 0.1020000D+00 0.1057000D+01
EXPONENTS  0.1057000D+01 0.1057000D+01 0.1057000D+01 0.1057000D+01 0.1057000D+01
EXPONENTS  0.2470000D+00 0.2470000D+00 0.2470000D+00 0.2470000D+00 0.2470000D+00
EXPONENTS  0.2470000D+00 0.3387000D+02 0.5095000D+01 0.1159000D+01 0.3258000D+00
EXPONENTS  0.1027000D+00 0.2526000D-01 0.1407000D+01 0.1407000D+01 0.1407000D+01
EXPONENTS  0.3880000D+00 0.3880000D+00 0.3880000D+00 0.1020000D+00 0.1020000D+00
EXPONENTS  0.1020000D+00 0.1057000D+01 0.1057000D+01 0.1057000D+01 0.1057000D+01
EXPONENTS  0.1057000D+01 0.1057000D+01 0.2470000D+00 0.2470000D+00 0.2470000D+00
EXPONENTS  0.2470000D+00 0.2470000D+00 0.2470000D+00 0.4561000D+06 0.6833000D+05
EXPONENTS  0.1555000D+05 0.4405000D+04 0.1439000D+04 0.5204000D+03 0.2031000D+03
EXPONENTS  0.8396000D+02 0.3620000D+02 0.1583000D+02 0.6334000D+01 0.4405000D+04
EXPONENTS  0.1439000D+04 0.5204000D+03 0.2031000D+03 0.8396000D+02 0.3620000D+02
EXPONENTS  0.1583000D+02 0.6334000D+01 0.2694000D+01 0.1439000D+04 0.2031000D+03
EXPONENTS  0.8396000D+02 0.3620000D+02 0.1583000D+02 0.6334000D+01 0.2694000D+01
EXPONENTS  0.4313000D+00 0.9768000D+00 0.1625000D+00 0.5910000D-01 0.6633000D+03
EXPONENTS  0.1568000D+03 0.4998000D+02 0.1842000D+02 0.7240000D+01 0.2922000D+01
EXPONENTS  0.6633000D+03 0.1568000D+03 0.4998000D+02 0.1842000D+02 0.7240000D+01
EXPONENTS  0.2922000D+01 0.6633000D+03 0.1568000D+03 0.4998000D+02 0.1842000D+02
EXPONENTS  0.7240000D+01 0.2922000D+01 0.1568000D+03 0.4998000D+02 0.1842000D+02
EXPONENTS  0.7240000D+01 0.2922000D+01 0.3818000D+00 0.1568000D+03 0.4998000D+02
EXPONENTS  0.1842000D+02 0.7240000D+01 0.2922000D+01 0.3818000D+00 0.1568000D+03
EXPONENTS  0.4998000D+02 0.1842000D+02 0.7240000D+01 0.2922000D+01 0.3818000D+00
EXPONENTS  0.1022000D+01 0.1022000D+01 0.1022000D+01 0.1301000D+00 0.1301000D+00
EXPONENTS  0.1301000D+00 0.4190000D-01 0.4190000D-01 0.4190000D-01 0.1046000D+01
EXPONENTS  0.1046000D+01 0.1046000D+01 0.1046000D+01 0.1046000D+01 0.1046000D+01
EXPONENTS  0.3440000D+00 0.3440000D+00 0.3440000D+00 0.3440000D+00 0.3440000D+00
EXPONENTS  0.3440000D+00 0.1350000D+00 0.1350000D+00 0.1350000D+00 0.1350000D+00
EXPONENTS  0.1350000D+00 0.1350000D+00 0.7060000D+00 0.7060000D+00 0.7060000D+00
EXPONENTS  0.7060000D+00 0.7060000D+00 0.7060000D+00 0.7060000D+00 0.7060000D+00
EXPONENTS  0.7060000D+00 0.7060000D+00 0.3120000D+00 0.3120000D+00 0.3120000D+00
EXPONENTS  0.3120000D+00 0.3120000D+00 0.3120000D+00 0.3120000D+00 0.3120000D+00
EXPONENTS  0.3120000D+00 0.3120000D+00 0.1950000D+05 0.2923000D+04 0.6645000D+03
EXPONENTS  0.1875000D+03 0.6062000D+02 0.2142000D+02 0.7950000D+01 0.6645000D+03
EXPONENTS  0.1875000D+03 0.6062000D+02 0.2142000D+02 0.7950000D+01 0.8815000D+00
EXPONENTS  0.2257000D+01 0.3041000D+00 0.9158000D-01 0.4388000D+02 0.9926000D+01
EXPONENTS  0.2930000D+01 0.4388000D+02 0.9926000D+01 0.2930000D+01 0.4388000D+02
EXPONENTS  0.9926000D+01 0.2930000D+01 0.9132000D+00 0.9132000D+00 0.9132000D+00
EXPONENTS  0.2672000D+00 0.2672000D+00 0.2672000D+00 0.7361000D-01 0.7361000D-01
EXPONENTS  0.7361000D-01 0.3107000D+01 0.3107000D+01 0.3107000D+01 0.3107000D+01
EXPONENTS  0.3107000D+01 0.3107000D+01 0.8550000D+00 0.8550000D+00 0.8550000D+00
EXPONENTS  0.8550000D+00 0.8550000D+00 0.8550000D+00 0.2920000D+00 0.2920000D+00
EXPONENTS  0.2920000D+00 0.2920000D+00 0.2920000D+00 0.2920000D+00 0.1917000D+01
EXPONENTS  0.1917000D+01 0.1917000D+01 0.1917000D+01 0.1917000D+01 0.1917000D+01
EXPONENTS  0.1917000D+01 0.1917000D+01 0.1917000D+01 0.1917000D+01 0.7240000D+00
EXPONENTS  0.7240000D+00 0.7240000D+00 0.7240000D+00 0.7240000D+00 0.7240000D+00
EXPONENTS  0.7240000D+00 0.7240000D+00 0.7240000D+00 0.7240000D+00
MO    1     MO 0.0        OCC NO =    2.0000300  ORB. ENERGY =    0.000000
 -0.37865133D-07 -0.70588237D-07 -0.11930374D-06 -0.17933577D-06 -0.22028187D-06
 -0.18591013D-06 -0.69907063D-07 -0.13737997D-11 -0.10268302D-10 -0.38374988D-10
 -0.10706024D-09 -0.14343121D-09  0.16936551D-09 -0.46069064D-08  0.16285018D-07
 -0.67080101D-08 -0.55881630D-04 -0.52392580D-04 -0.37306638D-04  0.96767496D-04
  0.90725679D-04  0.64602088D-04 -0.26457116D-07 -0.24805228D-07 -0.17662800D-07
 -0.18032092D-03  0.31225007D-03 -0.11117206D-06 -0.23078034D-03  0.39962551D-03
 -0.12058789D-06 -0.47109390D-05  0.81570927D-05 -0.26032031D-08  0.56278088D-04
 -0.56429059D-04  0.15097186D-06 -0.64976987D-04  0.25491497D-03 -0.44134869D-03
  0.16597294D-03 -0.16594398D-03 -0.28964770D-07 -0.19187915D-03 -0.49396223D-04
  0.85764032D-04  0.35053031D-04 -0.35070908D-04  0.17877304D-07 -0.40508530D-04
  0.33168874D-04 -0.57387582D-04 -0.46377996D-04  0.80529596D-04  0.10412200D-06
 -0.46911714D-04  0.80541156D-04  0.20867730D-04  0.18604570D-03 -0.32212994D-03
 -0.21180096D-04 -0.23989813D-04  0.13597644D-04 -0.23412764D-04 -0.29092620D-07
  0.13238918D-04 -0.23381011D-04  0.44537483D-04 -0.54031850D-04  0.93619304D-04
 -0.44450205D-04 -0.51524046D-04 -0.34766429D-04 -0.62702686D-04 -0.92455074D-04
  0.31315404D-03  0.96751346D-03 -0.10331690D-04 -0.27770270D-05  0.61962670D-04
  0.20506402D-04 -0.39971255D-04  0.24814640D-03  0.23547265D-03 -0.36917339D-04
  0.14854177D-03  0.18935909D-04 -0.95604653D-04  0.36987080D-04  0.58617573D-04
 -0.14040186D-04  0.23518126D-04  0.25792946D-03 -0.37688198D-04 -0.10560828D-04
  0.48249026D-04 -0.14028483D-04 -0.31001914D-04  0.27178704D-04  0.34774633D-04
  0.62717482D-04  0.92476891D-04 -0.31324510D-03 -0.96777626D-03  0.10334380D-04
 -0.52274788D-04  0.33395303D-04 -0.20547971D-04 -0.19487985D-03  0.15862864D-03
 -0.23566325D-03 -0.11019915D-03  0.10625740D-03 -0.19023490D-04  0.23348540D-05
  0.56420827D-04 -0.58755681D-04  0.12175197D-03 -0.23517989D-03  0.10862330D-03
  0.23426764D-04  0.24857190D-04 -0.48283954D-04  0.30493557D-04 -0.80163034D-05
  0.40355773D-04 -0.10141167D-07 -0.18290012D-07 -0.26968612D-07  0.82490904D-07
  0.25123761D-06 -0.18571696D-08 -0.31079867D-05  0.53497410D-05  0.32511380D-08
 -0.40307860D-04  0.69698866D-04  0.37331111D-07 -0.36897758D-04  0.63852353D-04
 -0.17004065D-07  0.13269809D-04 -0.13298247D-04  0.28438205D-07 -0.15287381D-04
  0.21404451D-04 -0.37194564D-04  0.11978758D-04 -0.11973529D-04 -0.52288193D-08
 -0.13850580D-04 -0.31684747D-04  0.54894390D-04  0.17246410D-06  0.32266193D-06
  0.55748824D-06  0.90375394D-06  0.13724371D-05  0.19075584D-05  0.22679408D-05
  0.20203605D-05  0.10033537D-05  0.16153146D-06  0.17042523D-08  0.80682241D-09
  0.26914245D-07  0.93790755D-07  0.33775570D-06  0.74454040D-06  0.10480726D-05
 -0.49996478D-07 -0.13715850D-05 -0.81100962D-06  0.18965277D-10  0.22971582D-09
  0.47904812D-09  0.13738266D-08  0.71340903D-10 -0.59246066D-08 -0.15308046D-07
  0.12472275D-07 -0.48430746D-07 -0.18537330D-08  0.10888339D-08 -0.58064119D+01
 -0.76484028D+01 -0.84373855D+01 -0.70079093D+01 -0.37213943D+01 -0.96013918D+00
  0.10054633D+02  0.13244303D+02  0.14610540D+02  0.12135197D+02  0.64441265D+01
  0.16626183D+01 -0.33466952D-02 -0.44083805D-02 -0.48631337D-02 -0.40392133D-02
 -0.21449344D-02 -0.55340428D-03  0.22986574D-03 -0.22221941D-02 -0.31335256D-02
 -0.44817706D-02  0.22695055D-04  0.41102063D-02 -0.39804528D-03  0.38480456D-02
  0.54261460D-02  0.77608242D-02 -0.39299721D-04 -0.71174077D-02  0.13283107D-06
 -0.12841253D-05 -0.18107507D-05 -0.25898525D-05  0.13114649D-07  0.23751390D-05
 -0.38330123D-01  0.66374086D-01 -0.22098482D-04  0.32176420D-03 -0.55718150D-03
  0.18772700D-06  0.28962250D-04 -0.50152260D-04  0.16511855D-07  0.10174963D-04
 -0.10458877D-04  0.28391395D-06 -0.11599613D-04  0.49211103D-03 -0.85214308D-03
 -0.38258474D-05  0.39305989D-05 -0.10475151D-06  0.43643252D-05 -0.17848165D-03
  0.30905862D-03  0.10353006D-05 -0.10525699D-05  0.17269316D-07 -0.11860927D-05
  0.30692240D-04 -0.53146280D-04 -0.10775467D-05  0.20919810D-05  0.30568964D-08
 -0.16338707D-05  0.21112238D-05  0.30027281D-04  0.48665108D-05 -0.83871667D-05
 -0.30036451D-04 -0.34706989D-04 -0.74050020D-05  0.12722205D-04  0.17199798D-07
 -0.71663911D-05  0.12718493D-04 -0.59570618D-05  0.29381397D-04 -0.50885108D-04
  0.59054624D-05  0.69049501D-05 -0.17816099D-07 -0.33209239D-07 -0.56297059D-07
 -0.85241362D-07 -0.10657048D-06 -0.91669720D-07 -0.35157311D-07  0.38551146D-10
  0.51034499D-09  0.18536659D-08  0.54988649D-08  0.63363311D-08 -0.76964179D-08
 -0.65690055D-09  0.12695583D-07  0.12957675D-07  0.14548591D-03  0.14228205D-03
  0.94011763D-04 -0.25193034D-03 -0.24638237D-03 -0.16279525D-03  0.95240955D-07
  0.93143574D-07  0.61543897D-07  0.44240351D-05 -0.76701280D-05 -0.37253915D-08
  0.33396949D-04 -0.57824541D-04  0.34668230D-07  0.98088630D-05 -0.16985206D-04
  0.74297170D-08  0.61200168D-04 -0.61233694D-04  0.33526195D-07 -0.70719441D-04
  0.65566404D-04 -0.11344954D-03 -0.30717156D-04  0.30745520D-04 -0.28363071D-07
  0.35488816D-04 -0.50616197D-04  0.87603474D-04  0.15582258D-04 -0.15607440D-04
  0.25181685D-07 -0.18000496D-04  0.36967155D-04 -0.63985927D-04  0.36292281D-04
 -0.61836105D-04 -0.90507134D-07  0.34172476D-04 -0.61946895D-04 -0.16290638D-03
 -0.14304932D-03  0.24745521D-03  0.16317790D-03  0.18821195D-03 -0.12863276D-04
  0.21972757D-04  0.32951423D-07 -0.12233898D-04  0.22007823D-04  0.51744254D-04
  0.50823726D-04 -0.87926093D-04 -0.51843108D-04 -0.59779457D-04
MO    2     MO 0.0        OCC NO =    2.0000300  ORB. ENERGY =    0.000000
  0.55434732D-04  0.10334151D-03  0.17466123D-03  0.26254840D-03  0.32249369D-03
  0.27217329D-03  0.10234427D-03 -0.16261880D-07 -0.12154748D-06 -0.45425069D-06
 -0.12672887D-05 -0.16978175D-05  0.20048058D-05  0.84666981D-05 -0.32180796D-04
 -0.10951599D-05  0.93356907D-04  0.87528035D-04  0.62325175D-04  0.53914574D-04
  0.50548340D-04  0.35993429D-04  0.61526888D-05  0.57685369D-05  0.41075419D-05
  0.31075351D-03  0.17945549D-03  0.82280443D-06  0.39815617D-03  0.22992529D-03
 -0.69668299D-05  0.81758637D-05  0.47211054D-05 -0.40452383D-07  0.32380177D-04
 -0.33233969D-04  0.85379255D-06  0.11323166D-03 -0.44255040D-03 -0.25552345D-03
  0.94738086D-04 -0.96586747D-04  0.18486611D-05  0.33107060D-03  0.78527223D-04
  0.45481069D-04  0.20197194D-04 -0.20250458D-04  0.53263514D-07  0.69939990D-04
 -0.58501619D-04 -0.33755552D-04  0.80189627D-04  0.46502562D-04  0.16095704D-05
  0.80204951D-04  0.45712539D-04  0.89762550D-05 -0.32077383D-03 -0.18522023D-03
 -0.13804966D-04  0.38874287D-04 -0.23026908D-04 -0.12291139D-04 -0.66905444D-06
 -0.22994315D-04 -0.16327804D-04  0.25576421D-04  0.92075040D-04  0.53201221D-04
 -0.23569258D-04  0.85178267D-04 -0.20062863D-04 -0.36184199D-04 -0.53353581D-04
  0.19298978D-03  0.56250202D-03 -0.58320474D-05  0.43746989D-05  0.36304688D-04
  0.12339232D-04  0.70048317D-04  0.14525017D-03  0.13397580D-03  0.63820683D-04
  0.86439036D-04  0.10854041D-04 -0.55617717D-04  0.21195727D-04  0.34421990D-04
  0.25352615D-04 -0.42043944D-04  0.14816351D-03 -0.21768469D-04 -0.62071028D-05
  0.27975572D-04  0.24303979D-04  0.52870326D-04  0.15184179D-04 -0.20047305D-04
 -0.36156139D-04 -0.53312207D-04  0.19285200D-03  0.56206115D-03 -0.58263829D-05
  0.33598580D-04 -0.14353460D-04  0.12349260D-04  0.16069109D-03 -0.11858924D-04
  0.13391750D-03  0.10671785D-03  0.12078445D-04  0.10868132D-04  0.12929418D-04
 -0.47411918D-04  0.34482500D-04 -0.53738559D-04  0.10716337D-03 -0.11040598D-03
  0.42515386D-06 -0.28371422D-04  0.27946269D-04 -0.13160587D-05  0.39575881D-04
  0.38259036D-04  0.41168446D-04  0.74248988D-04  0.10948009D-03 -0.34721840D-03
 -0.11106986D-02  0.11822110D-04  0.58949414D-04  0.34018822D-04 -0.21780643D-04
  0.24541079D-03  0.14157848D-03 -0.26398591D-03  0.14784169D-03  0.85345486D-04
 -0.21342918D-04 -0.48776741D-05  0.71355716D-04 -0.66478042D-04 -0.13180805D-03
  0.25654726D-03  0.14794534D-03  0.19705512D-04  0.35301380D-04 -0.55006892D-04
 -0.26992383D-04  0.26517168D-04  0.15255640D-04 -0.58916658D-05 -0.11022678D-04
 -0.19044743D-04 -0.30873766D-04 -0.46884776D-04 -0.65165427D-04 -0.77476700D-04
 -0.69018936D-04 -0.34276263D-04 -0.55181884D-05 -0.58220147D-07 -0.24389676D-07
 -0.81359878D-06 -0.28352288D-05 -0.10210118D-04 -0.22506935D-04 -0.31682500D-04
  0.15113585D-05  0.41462054D-04  0.24516253D-04 -0.42669016D-08 -0.51682598D-07
 -0.10777861D-06 -0.30909029D-06 -0.16050628D-07  0.13329472D-05  0.34440796D-05
 -0.28060740D-05  0.67034643D-06  0.60116034D-05 -0.17882792D-06  0.10054606D+02
  0.13244268D+02  0.14610500D+02  0.12135165D+02  0.64441091D+01  0.16626138D+01
  0.58064034D+01  0.76483916D+01  0.84373731D+01  0.70078990D+01  0.37213888D+01
  0.96013777D+00  0.21456204D-01  0.28262840D-01  0.31178337D-01  0.25896050D-01
  0.13751521D-01  0.35479643D-02 -0.39792919D-03  0.38469234D-02  0.54245635D-02
  0.77585608D-02 -0.39288260D-04 -0.71153320D-02 -0.22979891D-03  0.22215480D-02
  0.31326146D-02  0.44804675D-02 -0.22688457D-04 -0.41090113D-02 -0.10783442D-05
  0.10424738D-04  0.14699969D-04  0.21024844D-04 -0.10646685D-06 -0.19281765D-04
  0.66373866D-01  0.38330041D-01  0.14767130D-03 -0.55721587D-03 -0.32178597D-03
 -0.31130311D-05 -0.50151897D-04 -0.28962026D-04 -0.17224047D-07  0.81867697D-05
 -0.49786800D-05 -0.32080897D-05  0.22214528D-04 -0.84973872D-03 -0.49070476D-03
 -0.30428101D-05  0.11891422D-05  0.18536679D-05 -0.71171207D-05  0.30771705D-03
  0.17769985D-03  0.50495480D-06 -0.70020984D-06  0.19525504D-06  0.20494628D-05
 -0.52921780D-04 -0.30560414D-04  0.18027803D-05  0.85194329D-06  0.10207016D-06
  0.18215321D-05  0.15965662D-05  0.16823189D-04 -0.72298730D-05 -0.41523960D-05
 -0.17129400D-04  0.58729283D-04  0.12677528D-04  0.73774684D-05 -0.26442064D-06
  0.12673818D-04  0.71544604D-05 -0.30449856D-05 -0.50706403D-04 -0.29286866D-04
  0.38382476D-05 -0.11992917D-04 -0.30012245D-05 -0.55942876D-05 -0.94835638D-05
 -0.14359398D-04 -0.17952410D-04 -0.15442292D-04 -0.59224514D-05 -0.37498088D-08
 -0.49640447D-07 -0.18030314D-06 -0.53486586D-06 -0.61632487D-06  0.74861835D-06
 -0.20008971D-06 -0.12748647D-05  0.10039555D-05 -0.25312154D-03 -0.24754734D-03
 -0.16356499D-03 -0.14616889D-03 -0.14294998D-03 -0.94453098D-04  0.16062194D-04
  0.15708475D-04  0.10379254D-04 -0.87027547D-05 -0.50301522D-05  0.27761314D-05
 -0.57187044D-04 -0.33020594D-04  0.22563848D-06 -0.16905959D-04 -0.97627243D-05
  0.25721939D-06  0.35791454D-04 -0.36597311D-04  0.80585706D-06  0.12516213D-03
 -0.11310603D-03 -0.65264021D-04 -0.17896380D-04  0.18377813D-04 -0.48143287D-06
 -0.62696745D-04  0.87439589D-04  0.50467597D-04  0.92495084D-05 -0.90575352D-05
 -0.19197322D-06  0.31627363D-04 -0.63564019D-04 -0.36691199D-04 -0.61975363D-04
 -0.35377704D-04  0.73021887D-06 -0.62099576D-04 -0.36953022D-04 -0.95215441D-04
  0.24802567D-03  0.14308613D-03  0.93024784D-04 -0.32522527D-03  0.21992548D-04
  0.12567458D-04 -0.36771546D-06  0.22031806D-04  0.13075242D-04  0.30443246D-04
 -0.88009451D-04 -0.50777616D-04 -0.29340100D-04  0.10327155D-03
MO    3     MO 0.0        OCC NO =    2.0000210  ORB. ENERGY =    0.000000
 -0.14485114D-01 -0.27003171D-01 -0.45639038D-01 -0.68603986D-01 -0.84267709D-01
 -0.71118973D-01 -0.26742591D-01 -0.38082749D-05 -0.28464495D-04 -0.10637832D-03
 -0.29677894D-03 -0.39760196D-03  0.46949378D-03 -0.87543303D-03 -0.19261196D-02
 -0.81512489D-04  0.23462824D-05  0.21997889D-05  0.15663808D-05  0.17385100D-05
  0.16299637D-05  0.11606312D-05  0.11621872D-02  0.10896244D-02  0.77587749D-03
  0.11219128D-05  0.85103836D-06  0.60602671D-03  0.26782535D-05  0.14138128D-05
 -0.37572185D-03  0.44291424D-07  0.27158816D-07  0.46975019D-05 -0.10563683D-03
 -0.10508975D-03  0.21072658D-03 -0.94938563D-06  0.14425812D-05  0.10393757D-05
 -0.23293086D-04 -0.23982750D-04  0.47275836D-04  0.11979000D-05  0.26352675D-05
  0.15721957D-05  0.11545871D-04  0.11213026D-04 -0.22758898D-04  0.57843835D-06
  0.44756273D-06  0.23514018D-06 -0.79831163D-07  0.35980799D-04  0.69014010D-05
 -0.24592132D-07 -0.10811061D-03 -0.97502525D-05  0.26408562D-06  0.16821281D-06
 -0.10953950D-04  0.19593034D-05  0.14514150D-06  0.51664154D-04 -0.85294415D-04
  0.22353887D-06 -0.15444006D-03  0.12827543D-03 -0.65896336D-06 -0.55240822D-06
  0.12760781D-03  0.97491823D-06 -0.49526451D-05 -0.89322994D-05 -0.13170670D-04
  0.75038018D-03  0.23859357D-03  0.51366669D-05  0.28086000D-06  0.95518884D-04
  0.28263739D-04  0.17760169D-06  0.19888401D-03 -0.35791454D-05  0.61566060D-06
  0.44372217D-04  0.38835929D-04 -0.73601746D-04  0.54189669D-04  0.19412077D-04
  0.44074704D-06  0.65381960D-06  0.76009175D-04 -0.95348272D-05 -0.12014816D-04
  0.21549643D-04  0.20229709D-06 -0.87088834D-07 -0.34377271D-04 -0.49525441D-05
 -0.89321172D-05 -0.13170402D-04  0.75038325D-03  0.23861543D-03  0.51368529D-05
  0.82843864D-04 -0.47523836D-04  0.28311996D-04  0.17230283D-03 -0.99337031D-04
 -0.34871601D-05  0.38720830D-04 -0.21646205D-04  0.38858690D-04  0.22384411D-04
 -0.41836432D-04  0.19452021D-04 -0.11044141D-03  0.66195421D-04 -0.37425552D-04
 -0.11298308D-04 -0.10234136D-04  0.21532444D-04  0.22291100D-05 -0.29831841D-04
  0.17154270D-04 -0.51798413D-05 -0.93420570D-05 -0.13774858D-04  0.74668754D-03
  0.22721690D-03  0.48433120D-05 -0.81060685D-04 -0.46777986D-04  0.25694994D-04
 -0.17296620D-03 -0.99836548D-04  0.51644654D-06 -0.37105618D-04 -0.21405645D-04
  0.38041659D-04  0.23419698D-04 -0.40091639D-04  0.16671942D-04  0.10989960D-03
 -0.66488995D-04 -0.38319995D-04 -0.11343794D-04 -0.10346857D-04  0.21690651D-04
 -0.17044887D-05  0.29777618D-04  0.17208685D-04 -0.15469636D+00 -0.28942039D+00
 -0.50005424D+00 -0.81064667D+00 -0.12310448D+01 -0.17110364D+01 -0.20342912D+01
 -0.18122173D+01 -0.89998541D+00 -0.14489004D+00 -0.15286755D-02 -0.72327866D-03
 -0.24127365D-01 -0.84079037D-01 -0.30278223D+00 -0.66744574D+00 -0.93954818D+00
  0.44819510D-01  0.12295620D+01  0.72703229D+00 -0.15539046D-04 -0.18821579D-03
 -0.39250418D-03 -0.11256337D-02 -0.58452589D-04  0.48542783D-02  0.12542523D-01
 -0.10219057D-01  0.46627218D-01 -0.38865023D-03 -0.13196204D-03 -0.10546293D-01
 -0.13891935D-01 -0.15324979D-01 -0.12728595D-01 -0.67592370D-02 -0.17439185D-02
 -0.41052039D-02 -0.54075139D-02 -0.59653343D-02 -0.49546772D-02 -0.26310711D-02
 -0.67883009D-03  0.59312930D+01  0.78129004D+01  0.86188521D+01  0.71586315D+01
  0.38014320D+01  0.98078932D+00  0.31347578D-06 -0.30304822D-05 -0.42732962D-05
 -0.61119440D-05  0.30950024D-07  0.56052291D-05  0.11067276D-06 -0.10699130D-05
 -0.15086890D-05 -0.21578244D-05  0.10926919D-07  0.19789285D-05 -0.21030798D-03
  0.20331222D-02  0.28669145D-02  0.41004462D-02 -0.20764082D-04 -0.37604959D-02
 -0.72305137D-04 -0.27841991D-04  0.41581303D-01  0.51972069D-06  0.13956436D-06
 -0.48246626D-03  0.62094421D-07  0.32485102D-07 -0.98118756D-05 -0.78698218D-05
 -0.82240493D-05  0.16093871D-04  0.61213534D-06 -0.16398223D-05 -0.92902271D-06
 -0.11094601D-03 -0.11080037D-03  0.22174637D-03 -0.25198653D-06  0.24618078D-06
  0.36226152D-06 -0.14243914D-04 -0.14312230D-04  0.28556143D-04  0.11828836D-06
 -0.16178063D-06 -0.65170624D-07  0.15792567D-06 -0.69832688D-05  0.55408235D-05
  0.14740611D-06  0.21297878D-04 -0.81443187D-05 -0.62118312D-06 -0.34807137D-06
 -0.84781518D-05  0.60275820D-06 -0.47921259D-07  0.19889891D-05 -0.33632181D-04
 -0.44940785D-07 -0.60094525D-05  0.50405040D-04  0.18870456D-06  0.42485208D-07
  0.50491504D-04 -0.15694788D-06 -0.88202678D-03 -0.16440994D-02 -0.27871148D-02
 -0.42200688D-02 -0.52760154D-02 -0.45383194D-02 -0.17405432D-02 -0.68494174D-06
 -0.90673462D-05 -0.32934251D-04 -0.97698835D-04 -0.11257817D-03  0.13674296D-03
 -0.96103577D-04 -0.15849044D-03  0.12581856D-04 -0.31334057D-06 -0.30644023D-06
 -0.20247802D-06  0.12132293D-05  0.11865117D-05  0.78397846D-06  0.38933265D-02
  0.38075882D-02  0.25158345D-02  0.30359276D-06  0.49287287D-06  0.87779464D-03
 -0.15935820D-06 -0.86217720D-07  0.21659388D-04  0.80826131D-07  0.50142584D-07
  0.93311399D-05 -0.35484894D-04 -0.35029641D-04  0.70514535D-04 -0.78378957D-06
 -0.32946818D-06 -0.11510636D-06  0.20996068D-04  0.20741584D-04 -0.41737652D-04
  0.43885627D-06  0.26881195D-06  0.11159943D-06  0.17985252D-04  0.18137883D-04
 -0.36123135D-04 -0.26426644D-06 -0.19858688D-06 -0.15571767D-06 -0.24575253D-06
 -0.34523672D-05  0.45955902D-04 -0.24941197D-06  0.96728423D-05 -0.67932254D-04
  0.98666956D-06  0.68425936D-06 -0.69935453D-04  0.34975326D-05  0.69915238D-07
  0.10870556D-05 -0.25164518D-04  0.71068267D-07 -0.30392669D-05  0.37433009D-04
 -0.28081398D-06 -0.22189990D-06  0.38060546D-04 -0.10957471D-05
MO    4     MO 0.0        OCC NO =    2.0000123  ORB. ENERGY =    0.000000
  0.26515917D-01  0.49431012D-01  0.83545144D-01  0.12558393D+00  0.15425737D+00
  0.13018778D+00  0.48954004D-01 -0.14858023D-05 -0.11105452D-04 -0.41503608D-04
 -0.11578860D-03 -0.15512481D-03  0.18317347D-03  0.26194918D-02 -0.35981390D-02
 -0.40454912D-04  0.12216652D-04  0.11453887D-04  0.81558501D-05  0.82800540D-05
  0.77630769D-05  0.55277732D-05  0.36691385D-02  0.34400505D-02  0.24495209D-02
 -0.41353280D-06  0.19506105D-06  0.13074286D-02  0.47835601D-05  0.26154065D-05
 -0.41254214D-03  0.11121422D-06  0.65310406D-07  0.37546671D-05 -0.32224284D-03
 -0.32001338D-03  0.64225623D-03 -0.38648542D-05  0.38377866D-06  0.86233843D-06
  0.11865179D-04  0.11236796D-04 -0.23101975D-04  0.10977334D-05  0.76119512D-05
  0.43705241D-05 -0.17886881D-04 -0.18458717D-04  0.36345598D-04  0.99151786D-06
  0.86126953D-06  0.53485185D-06 -0.32297300D-06 -0.42289336D-04  0.21400110D-04
 -0.38555223D-06  0.12603916D-03 -0.31134995D-04  0.13544712D-05  0.82884915D-06
 -0.33065335D-04  0.34944646D-05  0.30028109D-06  0.81127186D-04 -0.16392562D-03
  0.42386037D-06 -0.24228905D-03  0.24687045D-03 -0.13247037D-05 -0.10925092D-05
  0.24490642D-03  0.31187008D-05 -0.90664627D-04 -0.16351739D-03 -0.24110630D-03
  0.10144608D-02  0.69036910D-03  0.44191468D-05  0.81311964D-06 -0.58137076D-04
  0.33348860D-04  0.13369624D-06  0.30319719D-03 -0.42435629D-04  0.98841278D-06
  0.11179158D-03  0.76346459D-04 -0.14237338D-03  0.24758688D-04  0.11761469D-03
  0.14602684D-05  0.10134970D-05  0.14333318D-03 -0.14136248D-04 -0.20963070D-04
  0.35099318D-04  0.24654455D-06  0.27152526D-06 -0.62438285D-04 -0.90664206D-04
 -0.16351663D-03 -0.24110518D-03  0.10144720D-02  0.69038540D-03  0.44202548D-05
 -0.49939686D-04  0.29800498D-04  0.33324956D-04  0.26261747D-03 -0.15157517D-03
 -0.42287165D-04  0.97274363D-04 -0.55028361D-04  0.76403305D-04 -0.16468821D-04
 -0.10122636D-03  0.11769518D-03 -0.14397348D-03  0.12461458D-03 -0.70645424D-04
 -0.19132596D-04 -0.15934686D-04  0.35067282D-04  0.60011374D-05 -0.53962380D-04
  0.31519692D-04 -0.90310886D-04 -0.16287940D-03 -0.24016558D-03  0.10157939D-02
  0.67004657D-03  0.37488879D-05  0.52479504D-04  0.30299423D-04  0.25145894D-04
 -0.26799545D-03 -0.15470124D-03 -0.43038963D-04 -0.94547838D-04 -0.54547393D-04
  0.75212815D-04 -0.12344981D-04 -0.96174857D-04  0.10851984D-03  0.14503793D-03
 -0.11655652D-03 -0.67111872D-04 -0.18638460D-04 -0.15934361D-04  0.34572821D-04
 -0.46427711D-05  0.55043511D-04  0.31802714D-04  0.91169933D-01  0.17056922D+00
  0.29470577D+00  0.47775268D+00  0.72551329D+00  0.10083952D+01  0.11989046D+01
  0.10680259D+01  0.53040426D+00  0.85390598D-01  0.90092125D-03  0.42685108D-03
  0.14239037D-01  0.49620195D-01  0.17869036D+00  0.39390065D+00  0.55448499D+00
 -0.26450741D-01 -0.72563990D+00 -0.42906633D+00  0.62621223D-05  0.75849593D-04
  0.15817633D-03  0.45362218D-03  0.23555968D-04 -0.19562388D-02 -0.50545454D-02
  0.41182057D-02 -0.28502760D-01  0.14121756D-02 -0.18273540D-03 -0.17309594D-01
 -0.22800785D-01 -0.25152835D-01 -0.20891399D-01 -0.11093913D-01 -0.28622874D-02
 -0.67001377D-02 -0.88256488D-02 -0.97360721D-02 -0.80865702D-02 -0.42941932D-02
 -0.11079243D-02  0.99210940D+01  0.13068402D+02  0.14416493D+02  0.11974026D+02
  0.63585401D+01  0.16405366D+01  0.40489744D-06 -0.39142879D-05 -0.55195546D-05
 -0.78944231D-05  0.39976248D-07  0.72399306D-05  0.12206610D-06 -0.11800565D-05
 -0.16640028D-05 -0.23799642D-05  0.12051804D-07  0.21826517D-05 -0.33676498D-03
  0.32556271D-02  0.45907741D-02  0.65660214D-02 -0.33249408D-04 -0.60216609D-02
 -0.12214706D-03 -0.46418093D-04  0.72612015D-01  0.79313554D-06  0.35529108D-06
 -0.30451017D-03  0.96503304D-07  0.54263177D-07 -0.38863410D-05  0.45544230D-03
  0.45480462D-03 -0.91024692D-03  0.11039727D-05  0.10979056D-06 -0.83920721D-06
 -0.31005028D-03 -0.30968988D-03  0.61974016D-03 -0.62399939D-06  0.30872558D-06
  0.79357293D-06  0.44461503D-05  0.43169722D-05 -0.87631225D-05  0.22352988D-06
 -0.38579565D-06 -0.23060620D-06  0.39480863D-06 -0.14029469D-04 -0.46838001D-04
  0.37353002D-06  0.43080562D-04  0.70558670D-04 -0.15579559D-05 -0.99215490D-06
  0.69955334D-04  0.10913366D-05 -0.87234858D-07  0.40707568D-05 -0.62730807D-04
 -0.81073013D-07 -0.12285352D-04  0.94068137D-04  0.34277759D-06  0.73081454D-07
  0.94124283D-04 -0.11070220D-06 -0.63829246D-02 -0.11897782D-01 -0.20169392D-01