 title line
GAUSSIAN            211 MOL ORBITALS    339 PRIMITIVES        6 NUCLEI
  C    1    (CENTRE  1)   0.00033070  0.00005480 -0.94053370  CHARGE =  6.0
  H    2    (CENTRE  2)   0.00003590 -1.98906904 -1.17300214  CHARGE =  1.0
  H    3    (CENTRE  3)  -1.72213010  0.99468570 -1.17398291  CHARGE =  1.0
  H    4    (CENTRE  4)   1.72295780  0.99424539 -1.17459707  CHARGE =  1.0
  Cl   5    (CENTRE  5)   0.00104880  0.00181792  3.10806659  CHARGE = 17.0
  F    6    (CENTRE  6)  -0.00035149 -0.00174044 -4.88203188  CHARGE =  9.0
CENTRE ASSIGNMENTS    1  1  1  1  1  1  1  1  1  1  1  1  1  1  1  1  1  1  1  1
CENTRE ASSIGNMENTS    1  1  1  1  1  1  1  1  1  1  1  1  1  1  1  1  1  1  1  1
CENTRE ASSIGNMENTS    1  1  1  1  1  1  1  1  1  1  1  1  1  1  1  1  1  1  1  1
CENTRE ASSIGNMENTS    1  1  1  1  1  1  1  1  1  1  1  1  2  2  2  2  2  2  2  2
CENTRE ASSIGNMENTS    2  2  2  2  2  2  2  2  2  2  2  2  2  2  2  2  2  2  2  3
CENTRE ASSIGNMENTS    3  3  3  3  3  3  3  3  3  3  3  3  3  3  3  3  3  3  3  3
CENTRE ASSIGNMENTS    3  3  3  3  3  3  4  4  4  4  4  4  4  4  4  4  4  4  4  4
CENTRE ASSIGNMENTS    4  4  4  4  4  4  4  4  4  4  4  4  4  5  5  5  5  5  5  5
CENTRE ASSIGNMENTS    5  5  5  5  5  5  5  5  5  5  5  5  5  5  5  5  5  5  5  5
CENTRE ASSIGNMENTS    5  5  5  5  5  5  5  5  5  5  5  5  5  5  5  5  5  5  5  5
CENTRE ASSIGNMENTS    5  5  5  5  5  5  5  5  5  5  5  5  5  5  5  5  5  5  5  5
CENTRE ASSIGNMENTS    5  5  5  5  5  5  5  5  5  5  5  5  5  5  5  5  5  5  5  5
CENTRE ASSIGNMENTS    5  5  5  5  5  5  5  5  5  5  5  5  5  5  5  5  5  5  5  5
CENTRE ASSIGNMENTS    5  5  5  5  5  5  5  6  6  6  6  6  6  6  6  6  6  6  6  6
CENTRE ASSIGNMENTS    6  6  6  6  6  6  6  6  6  6  6  6  6  6  6  6  6  6  6  6
CENTRE ASSIGNMENTS    6  6  6  6  6  6  6  6  6  6  6  6  6  6  6  6  6  6  6  6
CENTRE ASSIGNMENTS    6  6  6  6  6  6  6  6  6  6  6  6  6  6  6  6  6  6  6
TYPE ASSIGNMENTS      1  1  1  1  1  1  1  1  1  1  1  1  1  1  1  1  2  2  2  3
TYPE ASSIGNMENTS      3  3  4  4  4  2  3  4  2  3  4  2  3  4  5  6  7  8  9 10
TYPE ASSIGNMENTS      5  6  7  8  9 10  5  6  7  8  9 10 11 12 13 17 14 15 18 19
TYPE ASSIGNMENTS     16 20 11 12 13 17 14 15 18 19 16 20  1  1  1  1  1  1  2  3
TYPE ASSIGNMENTS      4  2  3  4  2  3  4  5  6  7  8  9 10  5  6  7  8  9 10  1
TYPE ASSIGNMENTS      1  1  1  1  1  2  3  4  2  3  4  2  3  4  5  6  7  8  9 10
TYPE ASSIGNMENTS      5  6  7  8  9 10  1  1  1  1  1  1  2  3  4  2  3  4  2  3
TYPE ASSIGNMENTS      4  5  6  7  8  9 10  5  6  7  8  9 10  1  1  1  1  1  1  1
TYPE ASSIGNMENTS      1  1  1  1  1  1  1  1  1  1  1  1  1  1  1  1  1  1  1  1
TYPE ASSIGNMENTS      1  1  1  1  2  2  2  2  2  2  3  3  3  3  3  3  4  4  4  4
TYPE ASSIGNMENTS      4  4  2  2  2  2  2  2  3  3  3  3  3  3  4  4  4  4  4  4
TYPE ASSIGNMENTS      2  3  4  2  3  4  2  3  4  5  6  7  8  9 10  5  6  7  8  9
TYPE ASSIGNMENTS     10  5  6  7  8  9 10 11 12 13 17 14 15 18 19 16 20 11 12 13
TYPE ASSIGNMENTS     17 14 15 18 19 16 20  1  1  1  1  1  1  1  1  1  1  1  1  1
TYPE ASSIGNMENTS      1  1  1  2  2  2  3  3  3  4  4  4  2  3  4  2  3  4  2  3
TYPE ASSIGNMENTS      4  5  6  7  8  9 10  5  6  7  8  9 10  5  6  7  8  9 10 11
TYPE ASSIGNMENTS     12 13 17 14 15 18 19 16 20 11 12 13 17 14 15 18 19 16 20
EXPONENTS  0.8236000D+04 0.1235000D+04 0.2808000D+03 0.7927000D+02 0.2559000D+02
EXPONENTS  0.8997000D+01 0.3319000D+01 0.2808000D+03 0.7927000D+02 0.2559000D+02
EXPONENTS  0.8997000D+01 0.3319000D+01 0.3643000D+00 0.9059000D+00 0.1285000D+00
EXPONENTS  0.4402000D-01 0.1871000D+02 0.4133000D+01 0.1200000D+01 0.1871000D+02
EXPONENTS  0.4133000D+01 0.1200000D+01 0.1871000D+02 0.4133000D+01 0.1200000D+01
EXPONENTS  0.3827000D+00 0.3827000D+00 0.3827000D+00 0.1209000D+00 0.1209000D+00
EXPONENTS  0.1209000D+00 0.3569000D-01 0.3569000D-01 0.3569000D-01 0.1097000D+01
EXPONENTS  0.1097000D+01 0.1097000D+01 0.1097000D+01 0.1097000D+01 0.1097000D+01
EXPONENTS  0.3180000D+00 0.3180000D+00 0.3180000D+00 0.3180000D+00 0.3180000D+00
EXPONENTS  0.3180000D+00 0.1000000D+00 0.1000000D+00 0.1000000D+00 0.1000000D+00
EXPONENTS  0.1000000D+00 0.1000000D+00 0.7610000D+00 0.7610000D+00 0.7610000D+00
EXPONENTS  0.7610000D+00 0.7610000D+00 0.7610000D+00 0.7610000D+00 0.7610000D+00
EXPONENTS  0.7610000D+00 0.7610000D+00 0.2680000D+00 0.2680000D+00 0.2680000D+00
EXPONENTS  0.2680000D+00 0.2680000D+00 0.2680000D+00 0.2680000D+00 0.2680000D+00
EXPONENTS  0.2680000D+00 0.2680000D+00 0.3387000D+02 0.5095000D+01 0.1159000D+01
EXPONENTS  0.3258000D+00 0.1027000D+00 0.2526000D-01 0.1407000D+01 0.1407000D+01
EXPONENTS  0.1407000D+01 0.3880000D+00 0.3880000D+00 0.3880000D+00 0.1020000D+00
EXPONENTS  0.1020000D+00 0.1020000D+00 0.1057000D+01 0.1057000D+01 0.1057000D+01
EXPONENTS  0.1057000D+01 0.1057000D+01 0.1057000D+01 0.2470000D+00 0.2470000D+00
EXPONENTS  0.2470000D+00 0.2470000D+00 0.2470000D+00 0.2470000D+00 0.3387000D+02
EXPONENTS  0.5095000D+01 0.1159000D+01 0.3258000D+00 0.1027000D+00 0.2526000D-01
EXPONENTS  0.1407000D+01 0.1407000D+01 0.1407000D+01 0.3880000D+00 0.3880000D+00
EXPONENTS  0.3880000D+00 0.1020000D+00 0.1020000D+00 0.1020000D+00 0.1057000D+01
EXPONENTS  0.1057000D+01 0.1057000D+01 0.1057000D+01 0.1057000D+01 0.1057000D+01
EXPONENTS  0.2470000D+00 0.2470000D+00 0.2470000D+00 0.2470000D+00 0.2470000D+00
EXPONENTS  0.2470000D+00 0.3387000D+02 0.5095000D+01 0.1159000D+01 0.3258000D+00
EXPONENTS  0.1027000D+00 0.2526000D-01 0.1407000D+01 0.1407000D+01 0.1407000D+01
EXPONENTS  0.3880000D+00 0.3880000D+00 0.3880000D+00 0.1020000D+00 0.1020000D+00
EXPONENTS  0.1020000D+00 0.1057000D+01 0.1057000D+01 0.1057000D+01 0.1057000D+01
EXPONENTS  0.1057000D+01 0.1057000D+01 0.2470000D+00 0.2470000D+00 0.2470000D+00
EXPONENTS  0.2470000D+00 0.2470000D+00 0.2470000D+00 0.4561000D+06 0.6833000D+05
EXPONENTS  0.1555000D+05 0.4405000D+04 0.1439000D+04 0.5204000D+03 0.2031000D+03
EXPONENTS  0.8396000D+02 0.3620000D+02 0.1583000D+02 0.6334000D+01 0.4405000D+04
EXPONENTS  0.1439000D+04 0.5204000D+03 0.2031000D+03 0.8396000D+02 0.3620000D+02
EXPONENTS  0.1583000D+02 0.6334000D+01 0.2694000D+01 0.1439000D+04 0.2031000D+03
EXPONENTS  0.8396000D+02 0.3620000D+02 0.1583000D+02 0.6334000D+01 0.2694000D+01
EXPONENTS  0.4313000D+00 0.9768000D+00 0.1625000D+00 0.5910000D-01 0.6633000D+03
EXPONENTS  0.1568000D+03 0.4998000D+02 0.1842000D+02 0.7240000D+01 0.2922000D+01
EXPONENTS  0.6633000D+03 0.1568000D+03 0.4998000D+02 0.1842000D+02 0.7240000D+01
EXPONENTS  0.2922000D+01 0.6633000D+03 0.1568000D+03 0.4998000D+02 0.1842000D+02
EXPONENTS  0.7240000D+01 0.2922000D+01 0.1568000D+03 0.4998000D+02 0.1842000D+02
EXPONENTS  0.7240000D+01 0.2922000D+01 0.3818000D+00 0.1568000D+03 0.4998000D+02
EXPONENTS  0.1842000D+02 0.7240000D+01 0.2922000D+01 0.3818000D+00 0.1568000D+03
EXPONENTS  0.4998000D+02 0.1842000D+02 0.7240000D+01 0.2922000D+01 0.3818000D+00
EXPONENTS  0.1022000D+01 0.1022000D+01 0.1022000D+01 0.1301000D+00 0.1301000D+00
EXPONENTS  0.1301000D+00 0.4190000D-01 0.4190000D-01 0.4190000D-01 0.1046000D+01
EXPONENTS  0.1046000D+01 0.1046000D+01 0.1046000D+01 0.1046000D+01 0.1046000D+01
EXPONENTS  0.3440000D+00 0.3440000D+00 0.3440000D+00 0.3440000D+00 0.3440000D+00
EXPONENTS  0.3440000D+00 0.1350000D+00 0.1350000D+00 0.1350000D+00 0.1350000D+00
EXPONENTS  0.1350000D+00 0.1350000D+00 0.7060000D+00 0.7060000D+00 0.7060000D+00
EXPONENTS  0.7060000D+00 0.7060000D+00 0.7060000D+00 0.7060000D+00 0.7060000D+00
EXPONENTS  0.7060000D+00 0.7060000D+00 0.3120000D+00 0.3120000D+00 0.3120000D+00
EXPONENTS  0.3120000D+00 0.3120000D+00 0.3120000D+00 0.3120000D+00 0.3120000D+00
EXPONENTS  0.3120000D+00 0.3120000D+00 0.1950000D+05 0.2923000D+04 0.6645000D+03
EXPONENTS  0.1875000D+03 0.6062000D+02 0.2142000D+02 0.7950000D+01 0.6645000D+03
EXPONENTS  0.1875000D+03 0.6062000D+02 0.2142000D+02 0.7950000D+01 0.8815000D+00
EXPONENTS  0.2257000D+01 0.3041000D+00 0.9158000D-01 0.4388000D+02 0.9926000D+01
EXPONENTS  0.2930000D+01 0.4388000D+02 0.9926000D+01 0.2930000D+01 0.4388000D+02
EXPONENTS  0.9926000D+01 0.2930000D+01 0.9132000D+00 0.9132000D+00 0.9132000D+00
EXPONENTS  0.2672000D+00 0.2672000D+00 0.2672000D+00 0.7361000D-01 0.7361000D-01
EXPONENTS  0.7361000D-01 0.3107000D+01 0.3107000D+01 0.3107000D+01 0.3107000D+01
EXPONENTS  0.3107000D+01 0.3107000D+01 0.8550000D+00 0.8550000D+00 0.8550000D+00
EXPONENTS  0.8550000D+00 0.8550000D+00 0.8550000D+00 0.2920000D+00 0.2920000D+00
EXPONENTS  0.2920000D+00 0.2920000D+00 0.2920000D+00 0.2920000D+00 0.1917000D+01
EXPONENTS  0.1917000D+01 0.1917000D+01 0.1917000D+01 0.1917000D+01 0.1917000D+01
EXPONENTS  0.1917000D+01 0.1917000D+01 0.1917000D+01 0.1917000D+01 0.7240000D+00
EXPONENTS  0.7240000D+00 0.7240000D+00 0.7240000D+00 0.7240000D+00 0.7240000D+00
EXPONENTS  0.7240000D+00 0.7240000D+00 0.7240000D+00 0.7240000D+00
MO    1     MO 0.0        OCC NO =    2.0000300  ORB. ENERGY =    0.000000
  0.15537445D-07  0.28964928D-07  0.48954674D-07  0.73588006D-07  0.90389685D-07
  0.76285705D-07  0.28685417D-07  0.80838176D-11  0.60421528D-10  0.22580905D-09
  0.62997208D-09  0.84398890D-09 -0.99659352D-09  0.78604498D-09  0.29725484D-08
  0.67544896D-08  0.84098932D-04  0.78848094D-04  0.56144540D-04 -0.73842534D-04
 -0.69232069D-04 -0.49297357D-04  0.10518975D-07  0.98622076D-08  0.70224793D-08
  0.27321245D-03 -0.23989263D-03  0.62485231D-07  0.34949724D-03 -0.30687486D-03
  0.61327644D-07  0.70819150D-05 -0.62180248D-05  0.13568626D-08 -0.42811689D-04
  0.42893338D-04 -0.81648217D-07  0.97336797D-04 -0.38162245D-03  0.33501096D-03
 -0.12801875D-03  0.12800520D-03  0.13552370D-07  0.29187229D-03  0.71810312D-04
 -0.63290734D-04 -0.27067704D-04  0.27076551D-04 -0.88472403D-08  0.61664770D-04
 -0.50030253D-04  0.43878417D-04  0.69932094D-04 -0.61399195D-04 -0.54840328D-07
  0.69954268D-04 -0.61404552D-04 -0.16034969D-04 -0.27975055D-03  0.24560214D-03
  0.16199490D-04  0.36093205D-04 -0.20387844D-04  0.17909522D-04  0.14969133D-07
 -0.20341727D-04  0.17895062D-04 -0.33112969D-04  0.81505259D-04 -0.71623630D-04
  0.33068062D-04  0.75618353D-04  0.26517878D-04  0.47826086D-04  0.70519535D-04
 -0.24268318D-03 -0.74313617D-03  0.79180404D-05  0.34349647D-05 -0.47671658D-04
 -0.15680332D-04  0.62595167D-04 -0.19087344D-03 -0.17759489D-03  0.56531695D-04
 -0.11402838D-03 -0.14565074D-04  0.73116854D-04 -0.28434889D-04 -0.44681965D-04
  0.22510460D-04 -0.34637738D-04 -0.19528626D-03  0.28751178D-04  0.79123390D-05
 -0.36663517D-04  0.21802705D-04  0.46039038D-04 -0.20586410D-04 -0.39419217D-04
 -0.71094181D-04 -0.10482833D-03  0.36075378D-03  0.11047143D-02 -0.11770583D-04
  0.60914780D-04 -0.36201502D-04  0.23349471D-04  0.23749422D-03 -0.15584199D-03
  0.26412714D-03  0.13941579D-03 -0.97497865D-04  0.21725478D-04  0.19133603D-05
 -0.68485109D-04  0.66571749D-04 -0.13349808D-03  0.25594997D-03 -0.13723939D-03
 -0.21970468D-04 -0.32539146D-04  0.54509613D-04 -0.29632652D-04  0.20479790D-04
 -0.25567801D-04  0.12902721D-04  0.23270589D-04  0.34312469D-04 -0.11808601D-03
 -0.36157442D-03  0.38516914D-05  0.22255584D-04  0.78334752D-05 -0.76481638D-05
  0.11985737D-03 -0.22017226D-04 -0.86453428D-04  0.83668098D-04 -0.33994406D-04
 -0.71044070D-05 -0.13770136D-04  0.35603336D-04 -0.21833201D-04 -0.28472507D-04
  0.60517077D-04  0.85173740D-04 -0.54963011D-05  0.23322963D-04 -0.17826662D-04
  0.49760254D-05  0.37674167D-04 -0.45329665D-04 -0.14732331D-06 -0.27562620D-06
 -0.47622094D-06 -0.77201010D-06 -0.11723714D-05 -0.16294860D-05 -0.19373339D-05
 -0.17258444D-05 -0.85709082D-06 -0.13798437D-06 -0.14558166D-08 -0.69030331D-09
 -0.23027363D-07 -0.80245750D-07 -0.28897794D-06 -0.63701590D-06 -0.89671279D-06
  0.42776123D-07  0.11735044D-05  0.69388581D-06 -0.14790459D-10 -0.17914857D-09
 -0.37359546D-09 -0.10714067D-08 -0.55636660D-10  0.46204255D-08  0.11938292D-07
 -0.97267585D-08  0.41460008D-07 -0.79655055D-09 -0.12514112D-08  0.87246660D+01
  0.11492426D+02  0.12677945D+02  0.10530026D+02  0.55917360D+01  0.14426971D+01
 -0.76607828D+01 -0.10091043D+02 -0.11132000D+02 -0.92459977D+01 -0.49098813D+01
 -0.12667750D+01  0.17806054D-02  0.23454739D-02  0.25874248D-02  0.21490589D-02
  0.11412099D-02  0.29443812D-03 -0.34515480D-03  0.33367346D-02  0.47051440D-02
  0.67296007D-02 -0.34077750D-04 -0.61716785D-02  0.30306658D-03 -0.29298527D-02
 -0.41313981D-02 -0.59089922D-02  0.29922305D-04  0.54191032D-02 -0.70683556D-07
  0.68332314D-06  0.96355696D-06  0.13781413D-05 -0.69787138D-08 -0.12638856D-05
  0.57611581D-01 -0.50586438D-01  0.11761490D-04 -0.48308941D-03  0.42418245D-03
 -0.99883431D-07 -0.43688309D-04  0.38360982D-04 -0.87533245D-08 -0.82565718D-05
  0.84063950D-05 -0.14982316D-06  0.18319199D-04 -0.73391363D-03  0.64440152D-03
  0.28869745D-05 -0.29431135D-05  0.56139057D-07 -0.63993089D-05  0.26787080D-03
 -0.23519865D-03 -0.84475237D-06  0.85382494D-06 -0.90725674D-08  0.18934599D-05
 -0.45926241D-04  0.40324038D-04  0.18990287D-05 -0.16608231D-05 -0.18087452D-08
  0.19299551D-05 -0.16714776D-05 -0.23130717D-04 -0.76270413D-05  0.66539470D-05
  0.23136143D-04  0.52714163D-04  0.11025614D-04 -0.96823116D-05 -0.92430381D-08
  0.11019299D-04 -0.96801372D-05  0.47341935D-05 -0.44096141D-04  0.38727072D-04
 -0.47064643D-05 -0.10860624D-04  0.17419851D-07  0.32470632D-07  0.55044955D-07
  0.83345506D-07  0.10420024D-06  0.89630891D-07  0.34375376D-07 -0.36648873D-10
 -0.48516246D-09 -0.17621983D-08 -0.52275282D-08 -0.60236703D-08  0.73166448D-08
  0.62996248D-09 -0.12534148D-07 -0.12681342D-07 -0.22152343D-03 -0.21664508D-03
 -0.14314656D-03  0.19451209D-03  0.19022858D-03  0.12569206D-03 -0.59882577D-07
 -0.58563852D-07 -0.38695613D-07 -0.62000322D-05  0.54509080D-05  0.34537170D-08
 -0.51650974D-04  0.45347336D-04 -0.25192475D-07 -0.14865685D-04  0.13052803D-04
 -0.47779299D-08 -0.47054873D-04  0.47071003D-04 -0.16129767D-07  0.10718510D-03
 -0.98335871D-04  0.86254551D-04  0.23608045D-04 -0.23622834D-04  0.14788826D-07
 -0.53757519D-04  0.76396529D-04 -0.67034366D-04 -0.12039119D-04  0.12054129D-04
 -0.15010270D-07  0.27404925D-04 -0.56620351D-04  0.49688672D-04 -0.54236921D-04
  0.47583361D-04  0.51038846D-07 -0.54415547D-04  0.47642935D-04  0.12505210D-03
  0.21712631D-03 -0.19039302D-03 -0.12520521D-03 -0.28469724D-03  0.19365823D-04
 -0.16991383D-04 -0.18930601D-07  0.19422530D-04 -0.17010243D-04 -0.39778011D-04
 -0.77520000D-04  0.67984391D-04  0.39834803D-04  0.90548233D-04
MO    2     MO 0.0        OCC NO =    2.0000300  ORB. ENERGY =    0.000000
 -0.13363594D-07 -0.24912431D-07 -0.42105402D-07 -0.63292272D-07 -0.77743220D-07
 -0.65612535D-07 -0.24672027D-07 -0.10996387D-10 -0.82191181D-10 -0.30716721D-09
 -0.85694868D-09 -0.11480750D-08  0.13556625D-08 -0.14641730D-09  0.21559910D-08
 -0.49325255D-08  0.73843895D-04  0.69233345D-04  0.49298266D-04  0.84097281D-04
  0.78846546D-04  0.56143438D-04 -0.44564896D-07 -0.41782422D-07 -0.29751574D-07
  0.23989780D-03  0.27320834D-03 -0.16531253D-06  0.30687936D-03  0.34949141D-03
 -0.19952990D-06  0.62182693D-05  0.70814555D-05 -0.41213512D-08  0.48658590D-04
 -0.48886643D-04  0.22805269D-06  0.85281453D-04 -0.33511820D-03 -0.38157016D-03
  0.14593533D-03 -0.14589367D-03 -0.41665021D-07  0.25610655D-03  0.62962979D-04
  0.71976741D-04  0.30832285D-04 -0.30860791D-04  0.28505557D-07  0.54088012D-04
 -0.43948612D-04 -0.49993655D-04  0.61410040D-04  0.69925343D-04  0.16335268D-06
  0.61417716D-04  0.69945175D-04  0.18000296D-04 -0.24564784D-03 -0.27972120D-03
 -0.18490354D-04  0.31449503D-04 -0.17889788D-04 -0.20396589D-04 -0.46972872D-07
 -0.17872608D-04 -0.20352532D-04  0.37821655D-04  0.71541972D-04  0.81542300D-04
 -0.37680736D-04  0.66409969D-04 -0.30208004D-04 -0.54481379D-04 -0.80332762D-04
  0.27645317D-03  0.84655636D-03 -0.90202644D-05  0.30331186D-05  0.54304128D-04
  0.17861232D-04  0.55060542D-04  0.21741918D-03  0.20228747D-03  0.49660276D-04
  0.12988330D-03  0.16572117D-04 -0.83297632D-04  0.32385599D-04  0.50912033D-04
  0.19882747D-04 -0.30272166D-04  0.22246573D-03 -0.32730238D-04 -0.90187194D-05
  0.41748957D-04  0.19157280D-04  0.40466399D-04  0.23431180D-04 -0.78615037D-05
 -0.14178546D-04 -0.20906257D-04  0.71948492D-04  0.22029956D-03 -0.23465896D-05
  0.14485366D-04 -0.31753042D-05  0.46544034D-05  0.89879929D-04  0.42537395D-04
  0.52632044D-04  0.66174005D-04  0.47001329D-04  0.42960544D-05  0.13651798D-04
 -0.26949885D-04  0.13298087D-04 -0.11325838D-04  0.27571023D-04 -0.67972106D-04
  0.84287599D-05 -0.19270599D-04  0.10841840D-04  0.88914705D-05  0.35338108D-04
  0.49044126D-04  0.38068314D-04  0.68657772D-04  0.10123584D-03 -0.34839368D-03
 -0.10668623D-02  0.11367465D-04  0.58525600D-04  0.35470082D-04 -0.22569825D-04
  0.22379718D-03  0.15998232D-03 -0.25516370D-03  0.12968562D-03  0.10273304D-03
 -0.21032483D-04 -0.72476706D-07  0.64449081D-04 -0.64376604D-04 -0.13082593D-03
  0.25020891D-03  0.12725982D-03  0.22875281D-04  0.29775922D-04 -0.52651203D-04
 -0.30520132D-04  0.15683545D-04  0.31713645D-04  0.12269089D-06  0.22954157D-06
  0.39659692D-06  0.64293021D-06  0.97635121D-06  0.13570363D-05  0.16134122D-05
  0.14372837D-05  0.71378546D-06  0.11491342D-06  0.12124045D-08  0.57497362D-09
  0.19180157D-07  0.66839008D-07  0.24069809D-06  0.53058899D-06  0.74689805D-06
 -0.35629471D-07 -0.97744580D-06 -0.57795758D-06  0.12038530D-10  0.14581600D-09
  0.30408389D-09  0.87205965D-09  0.45284844D-10 -0.37607442D-08 -0.97170407D-08
  0.79169873D-08 -0.34691956D-07  0.13432123D-08  0.93119576D-09  0.76607827D+01
  0.10091043D+02  0.11132000D+02  0.92459976D+01  0.49098813D+01  0.12667750D+01
  0.87246648D+01  0.11492424D+02  0.12677943D+02  0.10530024D+02  0.55917352D+01
  0.14426969D+01 -0.51505494D-02 -0.67844785D-02 -0.74843418D-02 -0.62163319D-02
 -0.33010447D-02 -0.85168679D-03 -0.30306669D-03  0.29298537D-02  0.41313996D-02
  0.59089943D-02 -0.29922315D-04 -0.54191051D-02 -0.34515454D-03  0.33367320D-02
  0.47051405D-02  0.67295956D-02 -0.34077725D-04 -0.61716738D-02  0.20392462D-06
 -0.19714120D-05 -0.27798967D-05 -0.39759876D-05  0.20133842D-07  0.36463556D-05
  0.50586440D-01  0.57611568D-01 -0.34012933D-04 -0.42418177D-03 -0.48309045D-03
  0.28600663D-06 -0.38360969D-04 -0.43688317D-04  0.25673116D-07  0.91477459D-05
 -0.95809282D-05  0.43318229D-06  0.15842267D-04 -0.64442514D-03 -0.73389739D-03
 -0.31948381D-05  0.33539878D-05 -0.15914964D-06 -0.55304069D-05  0.23520809D-03
  0.26786315D-03  0.94633736D-06 -0.97323685D-06  0.26899498D-07  0.16469201D-05
 -0.40326497D-04 -0.45924547D-04  0.16757333D-05  0.18913816D-05  0.46774434D-08
  0.16862077D-05  0.19225451D-05  0.26356003D-04 -0.67134075D-05 -0.75966899D-05
 -0.26370035D-04  0.46244744D-04  0.96794057D-05  0.11026902D-04  0.26210258D-07
  0.96772922D-05  0.11020488D-04 -0.54391184D-05 -0.38715509D-04 -0.44101193D-04
  0.53604876D-05 -0.95636925D-05 -0.13564660D-07 -0.25284550D-07 -0.42862946D-07
 -0.64900297D-07 -0.81139665D-07 -0.69794662D-07 -0.26767755D-07  0.26830065D-10
  0.35517983D-09  0.12900778D-08  0.38269914D-08  0.44098346D-08 -0.53564009D-08
 -0.53736441D-09  0.92079510D-08  0.95111469D-08 -0.19451067D-03 -0.19022719D-03
 -0.12569115D-03 -0.22152444D-03 -0.21664606D-03 -0.14314721D-03  0.14312653D-06
  0.13997462D-06  0.92487149D-07 -0.54455230D-05 -0.62096260D-05  0.54646888D-09
 -0.45351370D-04 -0.51643422D-04  0.41273332D-07 -0.13052917D-04 -0.14865438D-04
  0.10099987D-07  0.53595404D-04 -0.53650536D-04  0.55131579D-07  0.94012606D-04
 -0.86377609D-04 -0.98270379D-04 -0.26880233D-04  0.26924728D-04 -0.44494285D-07
 -0.47142781D-04  0.67096927D-04  0.76362094D-04  0.13702447D-04 -0.13738367D-04
  0.35920348D-07  0.24027559D-04 -0.49723438D-04 -0.56597508D-04 -0.47665119D-04
 -0.54189714D-04 -0.13303512D-06 -0.47737586D-04 -0.54358951D-04 -0.14232292D-03
  0.19073294D-03  0.21692809D-03  0.14272203D-03 -0.24962571D-03  0.17017616D-04
  0.19350406D-04  0.48017769D-07  0.17040509D-04  0.19404175D-04  0.45264142D-04
 -0.68093356D-04 -0.77455394D-04 -0.45408196D-04  0.79387325D-04
MO    3     MO 0.0        OCC NO =    2.0000210  ORB. ENERGY =    0.000000
 -0.14328800D-01 -0.26711770D-01 -0.45146530D-01 -0.67863655D-01 -0.83358345D-01
 -0.70351502D-01 -0.26454002D-01 -0.38130502D-05 -0.28500188D-04 -0.10651171D-03
 -0.29715108D-03 -0.39810053D-03  0.47008249D-03 -0.86000658D-03 -0.19527038D-02
 -0.82160969D-04  0.21108662D-06  0.19790712D-06  0.14092166D-06  0.51309231D-06
  0.48105665D-06  0.34254099D-06  0.11826398D-02  0.11088000D-02  0.78953167D-03
  0.10589151D-06  0.26761025D-06  0.61284825D-03 -0.67533661D-07 -0.17235111D-06
 -0.38285300D-03  0.82785421D-09  0.20441728D-08  0.46896827D-05 -0.10682213D-03
 -0.10682329D-03  0.21364542D-03 -0.11575893D-08  0.11446270D-06  0.27614632D-06
 -0.24879423D-04 -0.24877315D-04  0.49756738D-04 -0.70635995D-09  0.26369963D-07
  0.68483192D-07  0.11301773D-04  0.11302641D-04 -0.22604414D-04  0.12180659D-09
 -0.11978938D-07 -0.29960593D-07 -0.15913436D-07  0.36221808D-04  0.79093196D-05
  0.39401874D-07 -0.10868720D-03 -0.11816390D-04  0.83384347D-08  0.21770867D-07
 -0.11911568D-04  0.38705750D-07  0.30513528D-08  0.52339405D-04 -0.86762249D-04
  0.82880854D-07 -0.15678964D-03  0.13021217D-03 -0.92034912D-07 -0.22857610D-06
  0.13007457D-03  0.55522919D-07 -0.53519369D-05 -0.96524386D-05 -0.14232515D-04
  0.75887598D-03  0.23895730D-03  0.50363956D-05  0.17436830D-07  0.95658925D-04
  0.28879630D-04  0.24919068D-07  0.20116514D-03 -0.48125180D-05  0.12746665D-07
  0.44547284D-04  0.39036420D-04 -0.74331581D-04  0.54278516D-04  0.20053065D-04
  0.46589691D-07  0.43616591D-07  0.77010361D-04 -0.96466404D-05 -0.12122295D-04
  0.21768935D-04 -0.68207600D-08  0.66251003D-08 -0.35057461D-04 -0.53517425D-05
 -0.96520879D-05 -0.14231998D-04  0.75887809D-03  0.23897603D-03  0.50366635D-05
  0.82832949D-04 -0.47821951D-04  0.28928083D-04  0.17420251D-03 -0.10060974D-03
 -0.47197099D-05  0.38570547D-04 -0.22255284D-04  0.39059026D-04  0.22097651D-04
 -0.42191450D-04  0.20093799D-04 -0.11134672D-03  0.66757037D-04 -0.38453549D-04
 -0.11497198D-04 -0.10254104D-04  0.21751302D-04  0.21205529D-05 -0.30374109D-04
  0.17575897D-04 -0.53515571D-05 -0.96517536D-05 -0.14231505D-04  0.75888192D-03
  0.23897559D-03  0.50366633D-05 -0.82835100D-04 -0.47801168D-04  0.28957954D-04
 -0.17423045D-03 -0.10056598D-03 -0.46566963D-05 -0.38562244D-04 -0.22245580D-04
  0.39072830D-04  0.22102394D-04 -0.42219450D-04  0.20117056D-04  0.11130028D-03
 -0.66769135D-04 -0.38476945D-04 -0.11486901D-04 -0.10253608D-04  0.21740509D-04
 -0.21134634D-05  0.30401998D-04  0.17568883D-04 -0.15424286D+00 -0.28857192D+00
 -0.49858828D+00 -0.80827018D+00 -0.12274358D+01 -0.17060203D+01 -0.20283274D+01
 -0.18069046D+01 -0.89734701D+00 -0.14446528D+00 -0.15241940D-02 -0.72116362D-03
 -0.24056811D-01 -0.83833171D-01 -0.30189682D+00 -0.66549397D+00 -0.93680073D+00
  0.44688448D-01  0.12259664D+01  0.72490628D+00 -0.15502196D-04 -0.18776946D-03
 -0.39157340D-03 -0.11229644D-02 -0.58313975D-04  0.48427669D-02  0.12512780D-01
 -0.10194824D-01  0.46492888D-01 -0.37565860D-03 -0.13268837D-03  0.10595611D-02
  0.13956899D-02  0.15396644D-02  0.12788118D-02  0.67908458D-03  0.17520737D-03
  0.26088993D-02  0.34365306D-02  0.37910312D-02  0.31487483D-02  0.16720727D-02
  0.43140350D-03  0.59801073D+01  0.78772002D+01  0.86897849D+01  0.72175468D+01
  0.38327176D+01  0.98886118D+00 -0.37648629D-07  0.36396272D-06  0.51322543D-06
  0.73404813D-06 -0.37171164D-08 -0.67319137D-06 -0.92683359D-07  0.89600308D-06
  0.12634579D-05  0.18070790D-05 -0.91507936D-08 -0.16572619D-05 -0.21245813D-03
  0.20539085D-02  0.28962254D-02  0.41423685D-02 -0.20976371D-04 -0.37989426D-02
  0.74292064D-05  0.18288557D-04  0.41926995D-01 -0.86466072D-07 -0.21198268D-06
 -0.48734851D-03 -0.17545658D-08 -0.44061728D-08 -0.99692913D-05 -0.44827353D-05
 -0.44828637D-05  0.89655990D-05  0.84423347D-10  0.44719909D-08  0.12370306D-07
 -0.11292867D-03 -0.11292862D-03  0.22585729D-03  0.20411874D-10  0.12043635D-06
  0.29396822D-06 -0.14355221D-04 -0.14355128D-04  0.28710349D-04  0.19730247D-10
  0.15327772D-07  0.37152162D-07  0.14088744D-08 -0.72612780D-05  0.49915262D-05
 -0.96734488D-08  0.21771630D-04 -0.74972880D-05  0.54468257D-08  0.12203609D-07
 -0.74772904D-05 -0.75736240D-08  0.82939633D-08  0.20840337D-05 -0.33988979D-04
  0.11442361D-07 -0.61640793D-05  0.50986408D-04 -0.36324250D-07 -0.88021739D-07
  0.50980529D-04  0.21084577D-08 -0.91055793D-03 -0.16972816D-02 -0.28772704D-02
 -0.43565765D-02 -0.54466801D-02 -0.46851216D-02 -0.17968450D-02 -0.68955997D-06
 -0.91284828D-05 -0.33156311D-04 -0.98357571D-04 -0.11333723D-03  0.13766495D-03
 -0.98305838D-04 -0.16406319D-03  0.10721395D-04  0.67594007D-06  0.66105462D-06
  0.43678674D-06  0.18031355D-05  0.17634271D-05  0.11651709D-05  0.39256497D-02
  0.38391997D-02  0.25367216D-02  0.15092678D-06  0.40748160D-06  0.88042160D-03
  0.38210533D-08  0.71337653D-08  0.19811618D-04  0.15231704D-08  0.43406585D-08
  0.90986309D-05 -0.36650352D-04 -0.36647679D-04  0.73298031D-04  0.69215997D-09
  0.37883396D-07  0.10116033D-06  0.22124495D-04  0.22123379D-04 -0.44247873D-04
 -0.29184401D-09 -0.23056375D-07 -0.60120853D-07  0.18027919D-04  0.18027998D-04
 -0.36055918D-04  0.24120598D-10 -0.18138646D-07 -0.51863993D-07 -0.91315542D-08
 -0.32215444D-05  0.43213773D-04 -0.13996954D-07  0.95306675D-05 -0.64829208D-04
  0.41391616D-07  0.13396577D-06 -0.64812110D-04 -0.13283352D-08  0.56450642D-08
  0.10209351D-05 -0.24498071D-04  0.71753002D-08 -0.29898637D-05  0.36749836D-04
 -0.24110493D-07 -0.72941593D-07  0.36744376D-04  0.39780736D-09
MO    4     MO 0.0        OCC NO =    2.0000124  ORB. ENERGY =    0.000000
  0.26719422D-01  0.49810385D-01  0.84186337D-01  0.12654777D+00  0.15544126D+00
  0.13118694D+00  0.49329717D-01 -0.14485890D-05 -0.10827305D-04 -0.40464111D-04
 -0.11288857D-03 -0.15123956D-03  0.17858572D-03  0.26349412D-02 -0.36077507D-02
 -0.40434387D-04  0.64752249D-06  0.60709349D-06  0.43228673D-06  0.16026707D-05
  0.15026056D-05  0.10699447D-05  0.36646543D-02  0.34358464D-02  0.24465273D-02
  0.22805117D-06  0.56423096D-06  0.13051025D-02 -0.74124067D-07 -0.18790354D-06
 -0.41544387D-03  0.70688949D-09  0.15313436D-08  0.38536063D-05 -0.31991325D-03
 -0.31991588D-03  0.63982913D-03 -0.12716816D-08  0.34021172D-06  0.83693865D-06
  0.90583183D-05  0.90637861D-05 -0.18122104D-04 -0.96229401D-09 -0.83454089D-08
 -0.23457443D-07 -0.18377890D-04 -0.18377107D-04  0.36754997D-04 -0.34986703D-10
  0.19208613D-07  0.49262881D-07  0.10064558D-07 -0.41943699D-04  0.22821369D-04
 -0.53954506D-07  0.12576868D-03 -0.34287992D-04  0.23760833D-07  0.62417129D-07
 -0.34176115D-04 -0.43589368D-07  0.12360453D-07  0.81642435D-04 -0.16350849D-03
  0.13685660D-06 -0.24449881D-03  0.24536949D-03 -0.17393795D-06 -0.42849504D-06
  0.24515599D-03  0.86926983D-07 -0.90591550D-04 -0.16338559D-03 -0.24091196D-03
  0.10180694D-02  0.68632928D-03  0.41517571D-05 -0.12478468D-08 -0.57968863D-04
  0.33739583D-04  0.31084946D-07  0.30413908D-03 -0.43561461D-04  0.27516916D-07
  0.11137936D-03  0.75544274D-04 -0.14208513D-03  0.24274885D-04  0.11781025D-03
  0.67816528D-07  0.11025827D-06  0.14246079D-03 -0.14522059D-04 -0.20852007D-04
  0.35374066D-04 -0.12797236D-07  0.98396400D-08 -0.62789562D-04 -0.90591083D-04
 -0.16338475D-03 -0.24091072D-03  0.10180822D-02  0.68634332D-03  0.41529692D-05
 -0.50201725D-04  0.29010839D-04  0.33716325D-04  0.26338351D-03 -0.15213516D-03
 -0.43412828D-04  0.96436597D-04 -0.55654323D-04  0.75600799D-04 -0.17362458D-04
 -0.10052829D-03  0.11789075D-03 -0.14400104D-03  0.12340722D-03 -0.70990999D-04
 -0.19257923D-04 -0.16083808D-04  0.35341731D-04  0.54408809D-05 -0.54397143D-04
  0.31469063D-04 -0.90591315D-04 -0.16338517D-03 -0.24091133D-03  0.10180866D-02
  0.68634859D-03  0.41527746D-05  0.50220652D-04  0.28997650D-04  0.33698431D-04
 -0.26343861D-03 -0.15206880D-03 -0.43319985D-04 -0.96424566D-04 -0.55630071D-04
  0.75635223D-04 -0.17367979D-04 -0.10056401D-03  0.11793199D-03  0.14393507D-03
 -0.12332948D-03 -0.71010680D-04 -0.19239978D-04 -0.16082657D-04  0.35322635D-04
 -0.54277622D-05  0.54444631D-04  0.31457422D-04  0.91922489D-01  0.17197717D+00
  0.29713840D+00  0.48169626D+00  0.73150199D+00  0.10167189D+01  0.12088009D+01
  0.10768419D+01  0.53478244D+00  0.86095448D-01  0.90835784D-03  0.43038797D-03
  0.14357022D-01  0.50031348D-01  0.18017099D+00  0.39716451D+00  0.55907945D+00
 -0.26669912D-01 -0.73165255D+00 -0.43262157D+00  0.63499210D-05  0.76913050D-04
  0.16039406D-03  0.45998223D-03  0.23886237D-04 -0.19836665D-02 -0.51254131D-02
  0.41759454D-02 -0.28726260D-01  0.14177401D-02 -0.18313671D-03  0.17563100D-02
  0.23134712D-02  0.25521208D-02  0.21197362D-02  0.11256387D-02  0.29042067D-03
  0.42921442D-02  0.56537579D-02  0.62369800D-02  0.51803002D-02  0.27508832D-02
  0.70974224D-03  0.98918534D+01  0.13029885D+02  0.14374003D+02  0.11938735D+02
  0.63397994D+01  0.16357014D+01 -0.59813449D-07  0.57823794D-06  0.81537586D-06
  0.11662032D-05 -0.59054887D-08 -0.10695183D-05 -0.14609657D-06  0.14123677D-05
  0.19915859D-05  0.28484946D-05 -0.14424376D-07 -0.26123382D-05 -0.33678601D-03
  0.32558305D-02  0.45910608D-02  0.65664315D-02 -0.33251485D-04 -0.60220370D-02
  0.12848175D-04  0.31397710D-04  0.72361289D-01 -0.53970452D-07 -0.13435263D-06
 -0.30608730D-03 -0.68542958D-09 -0.18657793D-08 -0.40295262D-05  0.45162437D-03
  0.45162425D-03 -0.90324862D-03 -0.80514061D-10 -0.48171424D-06 -0.11740943D-05
 -0.30876664D-03 -0.30876670D-03  0.61753334D-03  0.54229499D-10  0.32919987D-06
  0.80351482D-06  0.43791284D-05  0.43792252D-05 -0.87583536D-05  0.68249300D-11
 -0.48491711D-08 -0.10742588D-07  0.18148742D-07 -0.14430267D-04 -0.47342272D-04
 -0.39319469D-08  0.43414347D-04  0.70994334D-04 -0.50514280D-07 -0.12354600D-06
  0.71032482D-04 -0.15559147D-07  0.15030724D-07  0.41940525D-05 -0.62379410D-04
  0.21372628D-07 -0.12419737D-04  0.93574621D-04 -0.66464802D-07 -0.16242054D-06
  0.93563609D-04  0.44497931D-08 -0.64493419D-02 -0.12021584D-01 -0.20379264D-01