 title line
GAUSSIAN            211 MOL ORBITALS    339 PRIMITIVES        6 NUCLEI
  C    1    (CENTRE  1)   0.00033070  0.00005480 -0.94053370  CHARGE =  6.0
  H    2    (CENTRE  2)   0.00003590 -1.98906904 -1.17300214  CHARGE =  1.0
  H    3    (CENTRE  3)  -1.72213010  0.99468570 -1.19288017  CHARGE =  1.0
  H    4    (CENTRE  4)   1.72295780  0.99424539 -1.17459707  CHARGE =  1.0
  Cl   5    (CENTRE  5)   0.00104880  0.00181792  3.10806659  CHARGE = 17.0
  F    6    (CENTRE  6)  -0.00035149 -0.00174044 -4.90092914  CHARGE =  9.0
CENTRE ASSIGNMENTS    1  1  1  1  1  1  1  1  1  1  1  1  1  1  1  1  1  1  1  1
CENTRE ASSIGNMENTS    1  1  1  1  1  1  1  1  1  1  1  1  1  1  1  1  1  1  1  1
CENTRE ASSIGNMENTS    1  1  1  1  1  1  1  1  1  1  1  1  1  1  1  1  1  1  1  1
CENTRE ASSIGNMENTS    1  1  1  1  1  1  1  1  1  1  1  1  2  2  2  2  2  2  2  2
CENTRE ASSIGNMENTS    2  2  2  2  2  2  2  2  2  2  2  2  2  2  2  2  2  2  2  3
CENTRE ASSIGNMENTS    3  3  3  3  3  3  3  3  3  3  3  3  3  3  3  3  3  3  3  3
CENTRE ASSIGNMENTS    3  3  3  3  3  3  4  4  4  4  4  4  4  4  4  4  4  4  4  4
CENTRE ASSIGNMENTS    4  4  4  4  4  4  4  4  4  4  4  4  4  5  5  5  5  5  5  5
CENTRE ASSIGNMENTS    5  5  5  5  5  5  5  5  5  5  5  5  5  5  5  5  5  5  5  5
CENTRE ASSIGNMENTS    5  5  5  5  5  5  5  5  5  5  5  5  5  5  5  5  5  5  5  5
CENTRE ASSIGNMENTS    5  5  5  5  5  5  5  5  5  5  5  5  5  5  5  5  5  5  5  5
CENTRE ASSIGNMENTS    5  5  5  5  5  5  5  5  5  5  5  5  5  5  5  5  5  5  5  5
CENTRE ASSIGNMENTS    5  5  5  5  5  5  5  5  5  5  5  5  5  5  5  5  5  5  5  5
CENTRE ASSIGNMENTS    5  5  5  5  5  5  5  6  6  6  6  6  6  6  6  6  6  6  6  6
CENTRE ASSIGNMENTS    6  6  6  6  6  6  6  6  6  6  6  6  6  6  6  6  6  6  6  6
CENTRE ASSIGNMENTS    6  6  6  6  6  6  6  6  6  6  6  6  6  6  6  6  6  6  6  6
CENTRE ASSIGNMENTS    6  6  6  6  6  6  6  6  6  6  6  6  6  6  6  6  6  6  6
TYPE ASSIGNMENTS      1  1  1  1  1  1  1  1  1  1  1  1  1  1  1  1  2  2  2  3
TYPE ASSIGNMENTS      3  3  4  4  4  2  3  4  2  3  4  2  3  4  5  6  7  8  9 10
TYPE ASSIGNMENTS      5  6  7  8  9 10  5  6  7  8  9 10 11 12 13 17 14 15 18 19
TYPE ASSIGNMENTS     16 20 11 12 13 17 14 15 18 19 16 20  1  1  1  1  1  1  2  3
TYPE ASSIGNMENTS      4  2  3  4  2  3  4  5  6  7  8  9 10  5  6  7  8  9 10  1
TYPE ASSIGNMENTS      1  1  1  1  1  2  3  4  2  3  4  2  3  4  5  6  7  8  9 10
TYPE ASSIGNMENTS      5  6  7  8  9 10  1  1  1  1  1  1  2  3  4  2  3  4  2  3
TYPE ASSIGNMENTS      4  5  6  7  8  9 10  5  6  7  8  9 10  1  1  1  1  1  1  1
TYPE ASSIGNMENTS      1  1  1  1  1  1  1  1  1  1  1  1  1  1  1  1  1  1  1  1
TYPE ASSIGNMENTS      1  1  1  1  2  2  2  2  2  2  3  3  3  3  3  3  4  4  4  4
TYPE ASSIGNMENTS      4  4  2  2  2  2  2  2  3  3  3  3  3  3  4  4  4  4  4  4
TYPE ASSIGNMENTS      2  3  4  2  3  4  2  3  4  5  6  7  8  9 10  5  6  7  8  9
TYPE ASSIGNMENTS     10  5  6  7  8  9 10 11 12 13 17 14 15 18 19 16 20 11 12 13
TYPE ASSIGNMENTS     17 14 15 18 19 16 20  1  1  1  1  1  1  1  1  1  1  1  1  1
TYPE ASSIGNMENTS      1  1  1  2  2  2  3  3  3  4  4  4  2  3  4  2  3  4  2  3
TYPE ASSIGNMENTS      4  5  6  7  8  9 10  5  6  7  8  9 10  5  6  7  8  9 10 11
TYPE ASSIGNMENTS     12 13 17 14 15 18 19 16 20 11 12 13 17 14 15 18 19 16 20
EXPONENTS  0.8236000D+04 0.1235000D+04 0.2808000D+03 0.7927000D+02 0.2559000D+02
EXPONENTS  0.8997000D+01 0.3319000D+01 0.2808000D+03 0.7927000D+02 0.2559000D+02
EXPONENTS  0.8997000D+01 0.3319000D+01 0.3643000D+00 0.9059000D+00 0.1285000D+00
EXPONENTS  0.4402000D-01 0.1871000D+02 0.4133000D+01 0.1200000D+01 0.1871000D+02
EXPONENTS  0.4133000D+01 0.1200000D+01 0.1871000D+02 0.4133000D+01 0.1200000D+01
EXPONENTS  0.3827000D+00 0.3827000D+00 0.3827000D+00 0.1209000D+00 0.1209000D+00
EXPONENTS  0.1209000D+00 0.3569000D-01 0.3569000D-01 0.3569000D-01 0.1097000D+01
EXPONENTS  0.1097000D+01 0.1097000D+01 0.1097000D+01 0.1097000D+01 0.1097000D+01
EXPONENTS  0.3180000D+00 0.3180000D+00 0.3180000D+00 0.3180000D+00 0.3180000D+00
EXPONENTS  0.3180000D+00 0.1000000D+00 0.1000000D+00 0.1000000D+00 0.1000000D+00
EXPONENTS  0.1000000D+00 0.1000000D+00 0.7610000D+00 0.7610000D+00 0.7610000D+00
EXPONENTS  0.7610000D+00 0.7610000D+00 0.7610000D+00 0.7610000D+00 0.7610000D+00
EXPONENTS  0.7610000D+00 0.7610000D+00 0.2680000D+00 0.2680000D+00 0.2680000D+00
EXPONENTS  0.2680000D+00 0.2680000D+00 0.2680000D+00 0.2680000D+00 0.2680000D+00
EXPONENTS  0.2680000D+00 0.2680000D+00 0.3387000D+02 0.5095000D+01 0.1159000D+01
EXPONENTS  0.3258000D+00 0.1027000D+00 0.2526000D-01 0.1407000D+01 0.1407000D+01
EXPONENTS  0.1407000D+01 0.3880000D+00 0.3880000D+00 0.3880000D+00 0.1020000D+00
EXPONENTS  0.1020000D+00 0.1020000D+00 0.1057000D+01 0.1057000D+01 0.1057000D+01
EXPONENTS  0.1057000D+01 0.1057000D+01 0.1057000D+01 0.2470000D+00 0.2470000D+00
EXPONENTS  0.2470000D+00 0.2470000D+00 0.2470000D+00 0.2470000D+00 0.3387000D+02
EXPONENTS  0.5095000D+01 0.1159000D+01 0.3258000D+00 0.1027000D+00 0.2526000D-01
EXPONENTS  0.1407000D+01 0.1407000D+01 0.1407000D+01 0.3880000D+00 0.3880000D+00
EXPONENTS  0.3880000D+00 0.1020000D+00 0.1020000D+00 0.1020000D+00 0.1057000D+01
EXPONENTS  0.1057000D+01 0.1057000D+01 0.1057000D+01 0.1057000D+01 0.1057000D+01
EXPONENTS  0.2470000D+00 0.2470000D+00 0.2470000D+00 0.2470000D+00 0.2470000D+00
EXPONENTS  0.2470000D+00 0.3387000D+02 0.5095000D+01 0.1159000D+01 0.3258000D+00
EXPONENTS  0.1027000D+00 0.2526000D-01 0.1407000D+01 0.1407000D+01 0.1407000D+01
EXPONENTS  0.3880000D+00 0.3880000D+00 0.3880000D+00 0.1020000D+00 0.1020000D+00
EXPONENTS  0.1020000D+00 0.1057000D+01 0.1057000D+01 0.1057000D+01 0.1057000D+01
EXPONENTS  0.1057000D+01 0.1057000D+01 0.2470000D+00 0.2470000D+00 0.2470000D+00
EXPONENTS  0.2470000D+00 0.2470000D+00 0.2470000D+00 0.4561000D+06 0.6833000D+05
EXPONENTS  0.1555000D+05 0.4405000D+04 0.1439000D+04 0.5204000D+03 0.2031000D+03
EXPONENTS  0.8396000D+02 0.3620000D+02 0.1583000D+02 0.6334000D+01 0.4405000D+04
EXPONENTS  0.1439000D+04 0.5204000D+03 0.2031000D+03 0.8396000D+02 0.3620000D+02
EXPONENTS  0.1583000D+02 0.6334000D+01 0.2694000D+01 0.1439000D+04 0.2031000D+03
EXPONENTS  0.8396000D+02 0.3620000D+02 0.1583000D+02 0.6334000D+01 0.2694000D+01
EXPONENTS  0.4313000D+00 0.9768000D+00 0.1625000D+00 0.5910000D-01 0.6633000D+03
EXPONENTS  0.1568000D+03 0.4998000D+02 0.1842000D+02 0.7240000D+01 0.2922000D+01
EXPONENTS  0.6633000D+03 0.1568000D+03 0.4998000D+02 0.1842000D+02 0.7240000D+01
EXPONENTS  0.2922000D+01 0.6633000D+03 0.1568000D+03 0.4998000D+02 0.1842000D+02
EXPONENTS  0.7240000D+01 0.2922000D+01 0.1568000D+03 0.4998000D+02 0.1842000D+02
EXPONENTS  0.7240000D+01 0.2922000D+01 0.3818000D+00 0.1568000D+03 0.4998000D+02
EXPONENTS  0.1842000D+02 0.7240000D+01 0.2922000D+01 0.3818000D+00 0.1568000D+03
EXPONENTS  0.4998000D+02 0.1842000D+02 0.7240000D+01 0.2922000D+01 0.3818000D+00
EXPONENTS  0.1022000D+01 0.1022000D+01 0.1022000D+01 0.1301000D+00 0.1301000D+00
EXPONENTS  0.1301000D+00 0.4190000D-01 0.4190000D-01 0.4190000D-01 0.1046000D+01
EXPONENTS  0.1046000D+01 0.1046000D+01 0.1046000D+01 0.1046000D+01 0.1046000D+01
EXPONENTS  0.3440000D+00 0.3440000D+00 0.3440000D+00 0.3440000D+00 0.3440000D+00
EXPONENTS  0.3440000D+00 0.1350000D+00 0.1350000D+00 0.1350000D+00 0.1350000D+00
EXPONENTS  0.1350000D+00 0.1350000D+00 0.7060000D+00 0.7060000D+00 0.7060000D+00
EXPONENTS  0.7060000D+00 0.7060000D+00 0.7060000D+00 0.7060000D+00 0.7060000D+00
EXPONENTS  0.7060000D+00 0.7060000D+00 0.3120000D+00 0.3120000D+00 0.3120000D+00
EXPONENTS  0.3120000D+00 0.3120000D+00 0.3120000D+00 0.3120000D+00 0.3120000D+00
EXPONENTS  0.3120000D+00 0.3120000D+00 0.1950000D+05 0.2923000D+04 0.6645000D+03
EXPONENTS  0.1875000D+03 0.6062000D+02 0.2142000D+02 0.7950000D+01 0.6645000D+03
EXPONENTS  0.1875000D+03 0.6062000D+02 0.2142000D+02 0.7950000D+01 0.8815000D+00
EXPONENTS  0.2257000D+01 0.3041000D+00 0.9158000D-01 0.4388000D+02 0.9926000D+01
EXPONENTS  0.2930000D+01 0.4388000D+02 0.9926000D+01 0.2930000D+01 0.4388000D+02
EXPONENTS  0.9926000D+01 0.2930000D+01 0.9132000D+00 0.9132000D+00 0.9132000D+00
EXPONENTS  0.2672000D+00 0.2672000D+00 0.2672000D+00 0.7361000D-01 0.7361000D-01
EXPONENTS  0.7361000D-01 0.3107000D+01 0.3107000D+01 0.3107000D+01 0.3107000D+01
EXPONENTS  0.3107000D+01 0.3107000D+01 0.8550000D+00 0.8550000D+00 0.8550000D+00
EXPONENTS  0.8550000D+00 0.8550000D+00 0.8550000D+00 0.2920000D+00 0.2920000D+00
EXPONENTS  0.2920000D+00 0.2920000D+00 0.2920000D+00 0.2920000D+00 0.1917000D+01
EXPONENTS  0.1917000D+01 0.1917000D+01 0.1917000D+01 0.1917000D+01 0.1917000D+01
EXPONENTS  0.1917000D+01 0.1917000D+01 0.1917000D+01 0.1917000D+01 0.7240000D+00
EXPONENTS  0.7240000D+00 0.7240000D+00 0.7240000D+00 0.7240000D+00 0.7240000D+00
EXPONENTS  0.7240000D+00 0.7240000D+00 0.7240000D+00 0.7240000D+00
MO    1     MO 0.0        OCC NO =    2.0000300  ORB. ENERGY =    0.000000
 -0.38198976D-07 -0.71210587D-07 -0.12035559D-06 -0.18091691D-06 -0.22222401D-06
 -0.18754923D-06 -0.70523408D-07  0.58932762D-13  0.44048588D-12  0.16461963D-11
  0.45926314D-11  0.61528599D-11 -0.72653803D-11 -0.50331348D-08  0.25303852D-07
 -0.44026542D-08  0.55905741D-04  0.52415186D-04  0.37322735D-04  0.96753506D-04
  0.90712562D-04  0.64592748D-04 -0.48278055D-07 -0.45263746D-07 -0.32230483D-07
  0.18039921D-03  0.31220575D-03 -0.17252515D-06  0.23087943D-03  0.39956762D-03
 -0.20609715D-06  0.47128871D-05  0.81558277D-05 -0.43102310D-08  0.56204625D-04
 -0.56445208D-04  0.24058335D-06  0.64761785D-04 -0.25506542D-03 -0.44130780D-03
  0.16604077D-03 -0.16599313D-03 -0.47634362D-07  0.19173834D-03  0.49301307D-04
  0.85684193D-04  0.35051490D-04 -0.35081733D-04  0.30243473D-07  0.40452116D-04
 -0.33207552D-04 -0.57393427D-04  0.46404895D-04  0.80517470D-04  0.17078621D-06
  0.46924109D-04  0.80538515D-04  0.20691718D-04 -0.18613880D-03 -0.32209092D-03
 -0.21204076D-04  0.23685141D-04 -0.13587616D-04 -0.23409708D-04 -0.48829557D-07
 -0.13259486D-04 -0.23357772D-04  0.44604466D-04  0.54022336D-04  0.93586896D-04
 -0.44457977D-04  0.51560979D-04 -0.34766340D-04 -0.62702526D-04 -0.92454839D-04
  0.31315054D-03  0.96751753D-03 -0.10331975D-04  0.28001103D-05  0.61961412D-04
  0.20505147D-04  0.40116525D-04  0.24813593D-03  0.23545920D-03  0.36961843D-04
  0.14853315D-03  0.18923110D-04 -0.95608810D-04  0.36983237D-04  0.58625573D-04
  0.14198903D-04 -0.23343485D-04  0.25793210D-03 -0.37673553D-04 -0.10564111D-04
  0.48237664D-04  0.14051797D-04  0.31069053D-04  0.27165552D-04 -0.97449297D-08
 -0.17575382D-07 -0.25914891D-07  0.74894701D-07  0.24514953D-06 -0.19975929D-08
  0.31078935D-05  0.53491635D-05  0.18428962D-08  0.40323825D-04  0.69691820D-04
  0.21725325D-07  0.36913608D-04  0.63843674D-04 -0.29855830D-07  0.13266264D-04
 -0.13301565D-04  0.35301294D-07  0.15263235D-04 -0.21424508D-04 -0.37195856D-04
  0.11993968D-04 -0.11976666D-04 -0.17302504D-07  0.13857895D-04  0.31689879D-04
  0.54881715D-04  0.34774396D-04  0.62717055D-04  0.92476261D-04 -0.31324898D-03
 -0.96777685D-03  0.10334507D-04  0.52275790D-04  0.33381933D-04 -0.20565628D-04
  0.19483597D-03  0.15857845D-03 -0.23573537D-03  0.11021916D-03  0.10623002D-03
 -0.19063339D-04  0.23878569D-05  0.56451300D-04 -0.58839157D-04 -0.12168393D-03
  0.23516555D-03  0.10860786D-03  0.23422058D-04  0.24864969D-04 -0.48287027D-04
 -0.30478636D-04  0.79758515D-05  0.40365095D-04  0.14008754D-06  0.26208884D-06
  0.45283138D-06  0.73409288D-06  0.11147905D-05  0.15494539D-05  0.18421819D-05
  0.16410797D-05  0.81499487D-06  0.13120728D-06  0.13843143D-08  0.65503346D-09
  0.21850820D-07  0.76145732D-07  0.27421311D-06  0.60446868D-06  0.85089681D-06
 -0.40590551D-07 -0.11135462D-05 -0.65843292D-06  0.16014283D-10  0.19397207D-09
  0.40450831D-09  0.11600594D-08  0.60240270D-10 -0.50027388D-08 -0.12926116D-07
  0.10531591D-07 -0.39527138D-07 -0.24382671D-08  0.53980553D-09  0.58089292D+01
  0.76517186D+01  0.84410434D+01  0.70109474D+01  0.37230076D+01  0.96055543D+00
  0.10053178D+02  0.13242387D+02  0.14608426D+02  0.12133441D+02  0.64431940D+01
  0.16623777D+01 -0.54079138D-02 -0.71234876D-02 -0.78583219D-02 -0.65269516D-02
 -0.34659924D-02 -0.89424416D-03 -0.22996534D-03  0.22231570D-02  0.31348834D-02
  0.44837126D-02 -0.22704889D-04 -0.41119873D-02 -0.39798766D-03  0.38474886D-02
  0.54253606D-02  0.77597008D-02 -0.39294033D-04 -0.71163775D-02  0.21435991D-06
 -0.20722937D-05 -0.29221504D-05 -0.41794482D-05  0.21164137D-07  0.38329481D-05
  0.38346738D-01  0.66364481D-01 -0.35704146D-04 -0.32190404D-03 -0.55710096D-03
  0.30169045D-06 -0.28974810D-04 -0.50144990D-04  0.26854976D-07  0.10003219D-04
 -0.10461670D-04  0.45845169D-06  0.11286701D-04 -0.49233007D-03 -0.85202338D-03
 -0.37638557D-05  0.39314425D-05 -0.16758687D-06 -0.42507024D-05  0.17856070D-03
  0.30901507D-03  0.10246880D-05 -0.10529441D-05  0.28256074D-07  0.11662794D-05
 -0.30706082D-04 -0.53138956D-04  0.10886981D-05  0.20915626D-05  0.47059074D-08
  0.16235326D-05  0.21234859D-05  0.30031766D-04 -0.48896270D-05 -0.83981736D-05
 -0.30045884D-04  0.34668902D-04  0.74060074D-05  0.12720381D-04  0.27526339D-07
  0.71716738D-05  0.12714053D-04 -0.59874378D-05 -0.29389696D-04 -0.50875196D-04
  0.59048587D-05 -0.69440802D-05 -0.12679247D-07 -0.23634137D-07 -0.40065128D-07
 -0.60664023D-07 -0.75843390D-07 -0.65238916D-07 -0.25020528D-07  0.25857830D-10
  0.34230925D-09  0.12433295D-08  0.36883134D-08  0.42500363D-08 -0.51623021D-08
 -0.53485611D-09  0.82654273D-08  0.87916311D-08 -0.14554843D-03 -0.14234318D-03
 -0.94052158D-04 -0.25189338D-03 -0.24634623D-03 -0.16277137D-03  0.14270497D-06
  0.13956234D-06  0.92214738D-07 -0.44281826D-05 -0.76703513D-05 -0.60006237D-09
 -0.33409471D-04 -0.57815062D-04  0.41762125D-07 -0.98130591D-05 -0.16982708D-04
  0.10359213D-07  0.61194900D-04 -0.61252992D-04  0.58091611D-07  0.70617617D-04
 -0.65637123D-04 -0.11345708D-03 -0.30708535D-04  0.30755160D-04 -0.46624841D-07
 -0.35427282D-04  0.50658921D-04  0.87602584D-04  0.15574612D-04 -0.15611857D-04
  0.37244756D-07  0.17962813D-04 -0.36992339D-04 -0.63981929D-04 -0.36361151D-04
 -0.61826159D-04 -0.13933870D-06 -0.34133210D-04 -0.62001961D-04 -0.16282074D-03
  0.14321666D-03  0.24748044D-03  0.16323876D-03 -0.18783605D-03  0.12885653D-04
  0.21969193D-04  0.50081135D-07  0.12221843D-04  0.22024965D-04  0.51712370D-04
 -0.50878801D-04 -0.87932544D-04 -0.51862613D-04  0.59652210D-04
MO    2     MO 0.0        OCC NO =    2.0000300  ORB. ENERGY =    0.000000
 -0.55426179D-04 -0.10332556D-03 -0.17463428D-03 -0.26250790D-03 -0.32244393D-03
 -0.27213130D-03 -0.10232848D-03  0.16267353D-07  0.12158838D-06  0.45440355D-06
  0.12677152D-05  0.16983888D-05 -0.20054805D-05 -0.84663658D-05  0.32181090D-04
  0.10987454D-05  0.93341796D-04  0.87513867D-04  0.62315087D-04 -0.53938449D-04
 -0.50570725D-04 -0.36009369D-04 -0.61894917D-05 -0.58030419D-05 -0.41321115D-05
  0.31071108D-03 -0.17953532D-03 -0.92974894D-06  0.39810276D-03 -0.23002696D-03
  0.68203500D-05  0.81747704D-05 -0.47232433D-05  0.37502133D-07 -0.32507747D-04
  0.33206423D-04 -0.69867677D-06  0.11335767D-03 -0.44246296D-03  0.25559347D-03
 -0.94625498D-04  0.96502616D-04 -0.18771172D-05  0.33115449D-03  0.78581787D-04
 -0.45617292D-04 -0.20200337D-04  0.20232117D-04 -0.31780576D-07  0.69972772D-04
 -0.58479189D-04  0.33746016D-04  0.80174973D-04 -0.46523579D-04 -0.14944319D-05
  0.80199096D-04 -0.45718589D-04 -0.92800249D-05 -0.32072402D-03  0.18528933D-03
  0.13763321D-04  0.39049977D-04 -0.23032083D-04  0.12297134D-04  0.63547823D-06
 -0.22984962D-04  0.16364471D-04 -0.25463629D-04  0.92081210D-04 -0.53255874D-04
  0.23557194D-04  0.85154753D-04  0.20063084D-04  0.36184598D-04  0.53354168D-04
 -0.19299378D-03 -0.56249921D-03  0.58316503D-05  0.43611359D-05 -0.36306938D-04
 -0.12340799D-04  0.69963598D-04 -0.14526998D-03 -0.13399987D-03  0.63794744D-04
 -0.86454440D-04 -0.10876176D-04  0.55610639D-04 -0.21203415D-04 -0.34407224D-04
  0.25260163D-04 -0.42145314D-04 -0.14815883D-03  0.21793416D-04  0.62012096D-05
 -0.27994625D-04  0.24290713D-04  0.52831621D-04 -0.15206895D-04 -0.41168226D-04
 -0.74248590D-04 -0.10947950D-03  0.34722073D-03  0.11107046D-02 -0.11822024D-04
  0.58949320D-04 -0.34034376D-04  0.21761246D-04  0.24546980D-03 -0.14164187D-03
  0.26389783D-03  0.14782816D-03 -0.85383352D-04  0.21289687D-04  0.49351305D-05
 -0.71322516D-04  0.66387385D-04 -0.13190006D-03  0.25655216D-03 -0.14796452D-03
 -0.19702875D-04 -0.35294514D-04  0.54997389D-04 -0.27005836D-04  0.26565727D-04
 -0.15252649D-04  0.20047627D-04  0.36156722D-04  0.53313065D-04 -0.19285734D-03
 -0.56206713D-03  0.58262433D-05  0.33598645D-04  0.14345277D-04 -0.12360849D-04
  0.16064891D-03  0.11818876D-04 -0.13397772D-03  0.10671137D-03 -0.12105313D-04
 -0.10906368D-04 -0.12904990D-04  0.47426113D-04 -0.34521124D-04 -0.53669985D-04
  0.10717829D-03  0.11039702D-03 -0.41125070D-06  0.28372107D-04 -0.27960856D-04
 -0.13148631D-05  0.39547657D-04 -0.38268704D-04  0.58091672D-05  0.10868332D-04
  0.18778067D-04  0.30441453D-04  0.46228267D-04  0.64252942D-04  0.76391825D-04
  0.68052492D-04  0.33796307D-04  0.54409194D-05  0.57404914D-07  0.24002895D-07
  0.80069639D-06  0.27902666D-05  0.10048202D-04  0.22150011D-04  0.31180066D-04
 -0.14873908D-05 -0.40804531D-04 -0.24127464D-04  0.42586250D-08  0.51582349D-07
  0.10756955D-06  0.30849074D-06  0.16019495D-07 -0.13303617D-05 -0.34373991D-05
  0.28006310D-05 -0.64705819D-06 -0.60121746D-05  0.17819122D-06  0.10053142D+02
  0.13242340D+02  0.14608374D+02  0.12133398D+02  0.64431713D+01  0.16623719D+01
 -0.58089222D+01 -0.76517094D+01 -0.84410332D+01 -0.70109390D+01 -0.37230032D+01
 -0.96055428D+00 -0.25026501D-01 -0.32965756D-01 -0.36366389D-01 -0.30205134D-01
 -0.16039764D-01 -0.41383430D-02 -0.39787123D-03  0.38463631D-02  0.54237735D-02
  0.77574308D-02 -0.39282538D-04 -0.71142957D-02  0.22989866D-03 -0.22225123D-02
 -0.31339743D-02 -0.44824124D-02  0.22698305D-04  0.41107949D-02  0.12195200D-05
 -0.11789535D-04 -0.16624475D-04 -0.23777396D-04  0.12040539D-06  0.21806115D-04
  0.66364205D-01 -0.38346670D-01 -0.17123821D-03 -0.55713396D-03  0.32192519D-03
  0.33102120D-05 -0.50144622D-04  0.28974573D-04  0.35116997D-07 -0.84826344D-05
  0.49728012D-05  0.35098332D-05  0.22395704D-04 -0.84960839D-03  0.49091131D-03
  0.31498088D-05 -0.11876415D-05 -0.19621673D-05 -0.71824279D-05  0.30766958D-03
 -0.17777552D-03 -0.52322495D-06  0.69952872D-06 -0.17630376D-06  0.20608585D-05
 -0.52913952D-04  0.30573140D-04  0.17964131D-05 -0.85248277D-06 -0.99643915D-07
  0.18278204D-05 -0.15762072D-05 -0.16814715D-04 -0.72170596D-05  0.41336555D-05
  0.17113647D-04  0.58750561D-04  0.12676865D-04 -0.73807034D-05  0.28229922D-06
  0.12670520D-04 -0.71619533D-05  0.29925028D-05 -0.50701114D-04  0.29304064D-04
 -0.38394005D-05 -0.11970444D-04  0.30107144D-05  0.56119767D-05  0.95135509D-05
  0.14404803D-04  0.18009176D-04  0.15491121D-04  0.59411782D-05  0.37305013D-08
  0.49384853D-07  0.17937477D-06  0.53211188D-06  0.61315146D-06 -0.74476378D-06
  0.20043679D-06  0.12683891D-05 -0.10107205D-05 -0.25308902D-03 -0.24751553D-03
 -0.16354398D-03  0.14623178D-03  0.14301149D-03  0.94493738D-04 -0.15980791D-04
 -0.15628865D-04 -0.10326652D-04 -0.87009083D-05  0.50299679D-05 -0.27705086D-05
 -0.57179761D-04  0.33036754D-04 -0.21311411D-06 -0.16903634D-04  0.97670129D-05
 -0.25215749D-06 -0.35799664D-04  0.36563347D-04 -0.76368318D-06  0.12522171D-03
 -0.11306579D-03  0.65249092D-04  0.17910871D-04 -0.18360901D-04  0.45002964D-06
 -0.62732670D-04  0.87415214D-04 -0.50468224D-04 -0.92624814D-05  0.90497958D-05
  0.21268566D-06  0.31649249D-04 -0.63549108D-04  0.36697707D-04 -0.61934651D-04
  0.35395489D-04 -0.81451232D-06 -0.62122432D-04  0.36855984D-04  0.95362488D-04
  0.24792639D-03 -0.14304245D-03 -0.92918951D-04 -0.32544405D-03  0.21979248D-04
 -0.12573794D-04  0.39725194D-06  0.22038747D-04 -0.13045067D-04 -0.30497996D-04
 -0.87976492D-04  0.50766449D-04  0.29306241D-04  0.10334556D-03
MO    3     MO 0.0        OCC NO =    2.0000210  ORB. ENERGY =    0.000000
 -0.14485111D-01 -0.27003165D-01 -0.45639028D-01 -0.68603971D-01 -0.84267691D-01
 -0.71118958D-01 -0.26742585D-01 -0.38082722D-05 -0.28464475D-04 -0.10637824D-03
 -0.29677874D-03 -0.39760168D-03  0.46949345D-03 -0.87543347D-03 -0.19261225D-02
 -0.81512672D-04 -0.19322203D-05 -0.18115793D-05 -0.12899524D-05  0.17397097D-05
  0.16310884D-05  0.11614321D-05  0.11621884D-02  0.10896255D-02  0.77587828D-03
 -0.90882399D-06  0.84885633D-06  0.60602794D-03 -0.28090808D-05  0.14131250D-05
 -0.37572114D-03 -0.42616317D-07  0.27176898D-07  0.46975165D-05 -0.10563764D-03
 -0.10508992D-03  0.21072756D-03  0.94893354D-06 -0.12163381D-05  0.10393633D-05
 -0.23294573D-04 -0.23981805D-04  0.47276378D-04 -0.11972346D-05 -0.25862288D-05
  0.15739510D-05  0.11545448D-04  0.11213234D-04 -0.22758682D-04 -0.57817185D-06
 -0.47169346D-06  0.23534252D-06  0.48916831D-07  0.35980731D-04  0.69015557D-05
  0.10352084D-06 -0.10811139D-03 -0.97510444D-05 -0.25027133D-06  0.16919633D-06
 -0.10953623D-04 -0.18833179D-05 -0.13928491D-06  0.51664151D-04 -0.85294672D-04
 -0.60181609D-07 -0.15444012D-03  0.12827592D-03  0.47803633D-06 -0.55233413D-06
  0.12760810D-03 -0.86646822D-06 -0.49526656D-05 -0.89323363D-05 -0.13170725D-04
  0.75037784D-03  0.23859106D-03  0.51366630D-05 -0.24637463D-06  0.95518752D-04
  0.28263720D-04 -0.12776550D-06  0.19888267D-03 -0.35790006D-05 -0.59016444D-06
  0.44371915D-04  0.38835990D-04 -0.73601892D-04  0.54189393D-04  0.19412499D-04
 -0.34845405D-06 -0.56773562D-06  0.76009471D-04 -0.95347304D-05 -0.12014858D-04
  0.21549588D-04 -0.21553464D-06  0.10016415D-06 -0.34377173D-04 -0.51796955D-05
 -0.93417941D-05 -0.13774470D-04  0.74668889D-03  0.22722304D-03  0.48433981D-05
  0.81058731D-04 -0.46798890D-04  0.25666630D-04  0.17294031D-03 -0.99881292D-04
  0.45283491D-06  0.37114384D-04 -0.21415611D-04  0.38028688D-04  0.23414698D-04
 -0.40063903D-04  0.16649205D-04 -0.10994596D-03  0.66473526D-04 -0.38297427D-04
 -0.11353908D-04 -0.10347238D-04  0.21701146D-04  0.17110714D-05 -0.29750200D-04
  0.17215867D-04 -0.49524221D-05 -0.89318972D-05 -0.13170077D-04  0.75038530D-03
  0.23861435D-03  0.51368117D-05 -0.82846216D-04 -0.47502686D-04  0.28341734D-04
 -0.17232845D-03 -0.99293869D-04 -0.34245427D-05 -0.38712123D-04 -0.21636606D-04
  0.38872633D-04  0.22388832D-04 -0.41864083D-04  0.19475251D-04  0.11039496D-03
 -0.66207858D-04 -0.37449099D-04 -0.11288407D-04 -0.10233452D-04  0.21521859D-04
 -0.22223384D-05  0.29859218D-04  0.17147483D-04 -0.15469635D+00 -0.28942036D+00
 -0.50005420D+00 -0.81064661D+00 -0.12310447D+01 -0.17110363D+01 -0.20342910D+01
 -0.18122171D+01 -0.89998534D+00 -0.14489003D+00 -0.15286753D-02 -0.72327860D-03
 -0.24127363D-01 -0.84079030D-01 -0.30278220D+00 -0.66744568D+00 -0.93954810D+00
  0.44819507D-01  0.12295619D+01  0.72703223D+00 -0.15539045D-04 -0.18821578D-03
 -0.39250417D-03 -0.11256336D-02 -0.58452586D-04  0.48542781D-02  0.12542522D-01
 -0.10219057D-01  0.46627214D-01 -0.38865011D-03 -0.13196202D-03  0.12646446D-01
  0.16658328D-01  0.18376744D-01  0.15263324D-01  0.81052488D-02  0.20911966D-02
 -0.41079093D-02 -0.54110775D-02 -0.59692655D-02 -0.49579424D-02 -0.26328050D-02
 -0.67927745D-03  0.59312903D+01  0.78128969D+01  0.86188483D+01  0.71586283D+01
  0.38014303D+01  0.98078888D+00 -0.38795236D-06  0.37504738D-05  0.52885596D-05
  0.75640392D-05 -0.38303230D-07 -0.69369373D-05  0.11075311D-06 -0.10706898D-05
 -0.15097844D-05 -0.21593911D-05  0.10934853D-07  0.19803653D-05 -0.21030792D-03
  0.20331217D-02  0.28669138D-02  0.41004451D-02 -0.20764077D-04 -0.37604949D-02
  0.87029740D-04 -0.27860709D-04  0.41581285D-01 -0.69090691D-06  0.13976748D-06
 -0.48246621D-03 -0.65538025D-07  0.32492995D-07 -0.98118539D-05 -0.78692186D-05
 -0.82237747D-05  0.16092993D-04 -0.61268135D-06  0.16562280D-05 -0.92920137D-06
 -0.11094611D-03 -0.11080054D-03  0.22174664D-03  0.25218312D-06 -0.95829089D-08
  0.36213033D-06 -0.14243891D-04 -0.14312214D-04  0.28556105D-04 -0.11830631D-06
  0.19229809D-06 -0.65201328D-07 -0.15548844D-06 -0.69832072D-05  0.55406010D-05
 -0.16673134D-06  0.21297678D-04 -0.81438447D-05  0.63319666D-06 -0.34805627D-06
 -0.84779583D-05 -0.61777238D-06  0.64363758D-07  0.19889634D-05 -0.33632148D-04
  0.67535218D-07 -0.60094113D-05  0.50404931D-04 -0.26062649D-06  0.42521074D-07
  0.50491513D-04  0.16106855D-06 -0.88202814D-03 -0.16441020D-02 -0.27871191D-02
 -0.42200753D-02 -0.52760236D-02 -0.45383264D-02 -0.17405458D-02 -0.68494303D-06
 -0.90673631D-05 -0.32934313D-04 -0.97699018D-04 -0.11257839D-03  0.13674322D-03
 -0.96103679D-04 -0.15849072D-03  0.12581742D-04  0.16466245D-05  0.16103627D-05
  0.10640348D-05  0.12127837D-05  0.11860760D-05  0.78369055D-06  0.38933260D-02
  0.38075878D-02  0.25158343D-02 -0.44232631D-08  0.49293113D-06  0.87779466D-03
  0.16766503D-06 -0.86283557D-07  0.21659204D-04 -0.77712243D-07  0.50147430D-07
  0.93311570D-05 -0.35484496D-04 -0.35029915D-04  0.70514411D-04  0.78543982D-06
  0.40197474D-06 -0.11561729D-06  0.20995840D-04  0.20741748D-04 -0.41737587D-04
 -0.43955907D-06 -0.31217060D-06  0.11189211D-06  0.17985394D-04  0.18137794D-04
 -0.36123189D-04  0.26435716D-06  0.16254870D-06 -0.15583029D-06  0.22682325D-06
 -0.34522769D-05  0.45956114D-04  0.21976907D-06  0.96714412D-05 -0.67934005D-04
 -0.90023881D-06  0.68538963D-06 -0.69934336D-04 -0.35007094D-05 -0.58550764D-07
  0.10870190D-05 -0.25164570D-04 -0.56335906D-07 -0.30388423D-05  0.37433522D-04
  0.23198820D-06 -0.22221481D-06  0.38060189D-04  0.10967014D-05
MO    4     MO 0.0        OCC NO =    2.0000123  ORB. ENERGY =    0.000000
  0.26516034D-01  0.49431229D-01  0.83545511D-01  0.12558449D+00  0.15425805D+00
  0.13018835D+00  0.48954219D-01 -0.14857806D-05 -0.11105290D-04 -0.41503003D-04
 -0.11578692D-03 -0.15512254D-03  0.18317080D-03  0.26195009D-02 -0.35981457D-02
 -0.40455354D-04 -0.10917720D-04 -0.10236056D-04 -0.72886819D-05  0.82819346D-05
  0.77648401D-05  0.55290287D-05  0.36691429D-02  0.34400547D-02  0.24495239D-02
  0.87695889D-06  0.19131799D-06  0.13074297D-02 -0.49270703D-05  0.26142021D-05
 -0.41254102D-03 -0.10978863D-06  0.65339327D-07  0.37546943D-05 -0.32224212D-03
 -0.32001394D-03  0.64225606D-03  0.38645169D-05  0.30010939D-06  0.86074326D-06
  0.11861875D-04  0.11237735D-04 -0.23099610D-04 -0.10944572D-05 -0.76352589D-05
  0.43741100D-05 -0.17887513D-04 -0.18458420D-04  0.36345933D-04 -0.99131549D-06
 -0.82341925D-06  0.53524845D-06  0.34447966D-06 -0.42289682D-04  0.21400756D-04
  0.27751615D-06  0.12603850D-03 -0.31137338D-04 -0.13109551D-05  0.83054052D-06
 -0.33064929D-04 -0.35830135D-05 -0.27469876D-06  0.81127305D-04 -0.16392613D-03
 -0.15145639D-06 -0.24228997D-03  0.24687100D-03  0.97555266D-06 -0.10919470D-05
  0.24490739D-03 -0.29487544D-05 -0.90664724D-04 -0.16351756D-03 -0.24110655D-03
  0.10144586D-02  0.69036531D-03  0.44191324D-05 -0.81591251D-06 -0.58137414D-04
  0.33348858D-04 -0.70807131D-07  0.30319548D-03 -0.42435288D-04 -0.93258369D-06
  0.11179108D-03  0.76346566D-04 -0.14237360D-03  0.24758263D-04  0.11761534D-03
 -0.13237458D-05 -0.79260068D-06  0.14333391D-03 -0.14136269D-04 -0.20963146D-04
  0.35099415D-04 -0.27188778D-06 -0.25244402D-06 -0.62438001D-04 -0.90310953D-04
 -0.16287952D-03 -0.24016576D-03  0.10157996D-02  0.67005263D-03  0.37492366D-05
 -0.52461182D-04  0.30312504D-04  0.25166267D-04  0.26794061D-03 -0.15477073D-03
 -0.43135459D-04  0.94561105D-04 -0.54572040D-04  0.75179668D-04 -0.12341684D-04
 -0.96139411D-04  0.10848109D-03 -0.14510536D-03  0.11662544D-03 -0.67091088D-04
 -0.18656748D-04 -0.15935353D-04  0.34592101D-04  0.46555766D-05 -0.54997318D-04
  0.31815046D-04 -0.90664544D-04 -0.16351724D-03 -0.24110607D-03  0.10144731D-02
  0.69038780D-03  0.44199835D-05  0.49958970D-04  0.29788093D-04  0.33306683D-04
 -0.26266932D-03 -0.15150891D-03 -0.42193857D-04 -0.97261234D-04 -0.55003999D-04
  0.76438012D-04 -0.16475179D-04 -0.10126186D-03  0.11773704D-03  0.14390564D-03
 -0.12453739D-03 -0.70665332D-04 -0.19115269D-04 -0.15933185D-04  0.35048453D-04
 -0.59881045D-05  0.54009498D-04  0.31508458D-04  0.91169950D-01  0.17056925D+00
  0.29470583D+00  0.47775278D+00  0.72551343D+00  0.10083954D+01  0.11989049D+01
  0.10680261D+01  0.53040436D+00  0.85390614D-01  0.90092142D-03  0.42685116D-03
  0.14239040D-01  0.49620204D-01  0.17869039D+00  0.39390073D+00  0.55448509D+00
 -0.26450746D-01 -0.72564003D+00 -0.42906641D+00  0.62621231D-05  0.75849603D-04
  0.15817635D-03  0.45362224D-03  0.23555971D-04 -0.19562391D-02 -0.50545461D-02
  0.41182062D-02 -0.28502765D-01  0.14121762D-02 -0.18273508D-03  0.20833380D-01
  0.27442435D-01  0.30273301D-01  0.25144347D-01  0.13352346D-01  0.34449751D-02
 -0.67062081D-02 -0.88336448D-02 -0.97448930D-02 -0.80938967D-02 -0.42980837D-02
 -0.11089281D-02  0.99210862D+01  0.13068391D+02  0.14416481D+02  0.11974017D+02
  0.63585351D+01  0.16405353D+01 -0.52455616D-06  0.50710715D-05  0.71507401D-05
  0.10227450D-04 -0.51790367D-07 -0.93795362D-05  0.12222484D-06 -0.11815911D-05
 -0.16661668D-05 -0.23830593D-05  0.12067477D-07  0.21854902D-05 -0.33676482D-03
  0.32556256D-02  0.45907719D-02  0.65660182D-02 -0.33249392D-04 -0.60216580D-02
  0.14793838D-03 -0.46461313D-04  0.72611960D-01 -0.90046722D-06  0.35562112D-06
 -0.30451033D-03 -0.97813717D-07  0.54283350D-07 -0.38863156D-05  0.45544209D-03
  0.45480511D-03 -0.91024720D-03 -0.11045204D-05 -0.10815027D-05 -0.83825401D-06
 -0.31005029D-03 -0.30969019D-03  0.61974048D-03  0.62436058D-06  0.35250206D-06
  0.79310652D-06  0.44461826D-05  0.43169911D-05 -0.87631737D-05 -0.22363904D-06
  0.37601525D-06 -0.23065480D-06 -0.35878315D-06 -0.14029339D-04 -0.46838510D-04
 -0.38142591D-06  0.43080237D-04  0.70559796D-04  0.14577754D-05 -0.99222002D-06
  0.69955734D-04 -0.11227706D-05  0.11753297D-06  0.40707097D-05 -0.62730748D-04
  0.12390861D-06 -0.12285344D-04  0.94067915D-04 -0.47650752D-06  0.73214862D-07
  0.94124330D-04  0.11948692D-06 -0.63829349D-02 -0.11897802D-01 -0.20169425D-01