 title line
GAUSSIAN            211 MOL ORBITALS    339 PRIMITIVES        6 NUCLEI
  C    1    (CENTRE  1)   0.00033070  0.00005480 -0.94053370  CHARGE =  6.0
  H    2    (CENTRE  2)   0.00003590 -2.00796630 -1.17300214  CHARGE =  1.0
  H    3    (CENTRE  3)  -1.72213010  0.99468570 -1.17398291  CHARGE =  1.0
  H    4    (CENTRE  4)   1.72295780  0.99424539 -1.17459707  CHARGE =  1.0
  Cl   5    (CENTRE  5)   0.00104880  0.00181792  3.10806659  CHARGE = 17.0
  F    6    (CENTRE  6)  -0.00035149 -0.00174044 -4.90092914  CHARGE =  9.0
CENTRE ASSIGNMENTS    1  1  1  1  1  1  1  1  1  1  1  1  1  1  1  1  1  1  1  1
CENTRE ASSIGNMENTS    1  1  1  1  1  1  1  1  1  1  1  1  1  1  1  1  1  1  1  1
CENTRE ASSIGNMENTS    1  1  1  1  1  1  1  1  1  1  1  1  1  1  1  1  1  1  1  1
CENTRE ASSIGNMENTS    1  1  1  1  1  1  1  1  1  1  1  1  2  2  2  2  2  2  2  2
CENTRE ASSIGNMENTS    2  2  2  2  2  2  2  2  2  2  2  2  2  2  2  2  2  2  2  3
CENTRE ASSIGNMENTS    3  3  3  3  3  3  3  3  3  3  3  3  3  3  3  3  3  3  3  3
CENTRE ASSIGNMENTS    3  3  3  3  3  3  4  4  4  4  4  4  4  4  4  4  4  4  4  4
CENTRE ASSIGNMENTS    4  4  4  4  4  4  4  4  4  4  4  4  4  5  5  5  5  5  5  5
CENTRE ASSIGNMENTS    5  5  5  5  5  5  5  5  5  5  5  5  5  5  5  5  5  5  5  5
CENTRE ASSIGNMENTS    5  5  5  5  5  5  5  5  5  5  5  5  5  5  5  5  5  5  5  5
CENTRE ASSIGNMENTS    5  5  5  5  5  5  5  5  5  5  5  5  5  5  5  5  5  5  5  5
CENTRE ASSIGNMENTS    5  5  5  5  5  5  5  5  5  5  5  5  5  5  5  5  5  5  5  5
CENTRE ASSIGNMENTS    5  5  5  5  5  5  5  5  5  5  5  5  5  5  5  5  5  5  5  5
CENTRE ASSIGNMENTS    5  5  5  5  5  5  5  6  6  6  6  6  6  6  6  6  6  6  6  6
CENTRE ASSIGNMENTS    6  6  6  6  6  6  6  6  6  6  6  6  6  6  6  6  6  6  6  6
CENTRE ASSIGNMENTS    6  6  6  6  6  6  6  6  6  6  6  6  6  6  6  6  6  6  6  6
CENTRE ASSIGNMENTS    6  6  6  6  6  6  6  6  6  6  6  6  6  6  6  6  6  6  6
TYPE ASSIGNMENTS      1  1  1  1  1  1  1  1  1  1  1  1  1  1  1  1  2  2  2  3
TYPE ASSIGNMENTS      3  3  4  4  4  2  3  4  2  3  4  2  3  4  5  6  7  8  9 10
TYPE ASSIGNMENTS      5  6  7  8  9 10  5  6  7  8  9 10 11 12 13 17 14 15 18 19
TYPE ASSIGNMENTS     16 20 11 12 13 17 14 15 18 19 16 20  1  1  1  1  1  1  2  3
TYPE ASSIGNMENTS      4  2  3  4  2  3  4  5  6  7  8  9 10  5  6  7  8  9 10  1
TYPE ASSIGNMENTS      1  1  1  1  1  2  3  4  2  3  4  2  3  4  5  6  7  8  9 10
TYPE ASSIGNMENTS      5  6  7  8  9 10  1  1  1  1  1  1  2  3  4  2  3  4  2  3
TYPE ASSIGNMENTS      4  5  6  7  8  9 10  5  6  7  8  9 10  1  1  1  1  1  1  1
TYPE ASSIGNMENTS      1  1  1  1  1  1  1  1  1  1  1  1  1  1  1  1  1  1  1  1
TYPE ASSIGNMENTS      1  1  1  1  2  2  2  2  2  2  3  3  3  3  3  3  4  4  4  4
TYPE ASSIGNMENTS      4  4  2  2  2  2  2  2  3  3  3  3  3  3  4  4  4  4  4  4
TYPE ASSIGNMENTS      2  3  4  2  3  4  2  3  4  5  6  7  8  9 10  5  6  7  8  9
TYPE ASSIGNMENTS     10  5  6  7  8  9 10 11 12 13 17 14 15 18 19 16 20 11 12 13
TYPE ASSIGNMENTS     17 14 15 18 19 16 20  1  1  1  1  1  1  1  1  1  1  1  1  1
TYPE ASSIGNMENTS      1  1  1  2  2  2  3  3  3  4  4  4  2  3  4  2  3  4  2  3
TYPE ASSIGNMENTS      4  5  6  7  8  9 10  5  6  7  8  9 10  5  6  7  8  9 10 11
TYPE ASSIGNMENTS     12 13 17 14 15 18 19 16 20 11 12 13 17 14 15 18 19 16 20
EXPONENTS  0.8236000D+04 0.1235000D+04 0.2808000D+03 0.7927000D+02 0.2559000D+02
EXPONENTS  0.8997000D+01 0.3319000D+01 0.2808000D+03 0.7927000D+02 0.2559000D+02
EXPONENTS  0.8997000D+01 0.3319000D+01 0.3643000D+00 0.9059000D+00 0.1285000D+00
EXPONENTS  0.4402000D-01 0.1871000D+02 0.4133000D+01 0.1200000D+01 0.1871000D+02
EXPONENTS  0.4133000D+01 0.1200000D+01 0.1871000D+02 0.4133000D+01 0.1200000D+01
EXPONENTS  0.3827000D+00 0.3827000D+00 0.3827000D+00 0.1209000D+00 0.1209000D+00
EXPONENTS  0.1209000D+00 0.3569000D-01 0.3569000D-01 0.3569000D-01 0.1097000D+01
EXPONENTS  0.1097000D+01 0.1097000D+01 0.1097000D+01 0.1097000D+01 0.1097000D+01
EXPONENTS  0.3180000D+00 0.3180000D+00 0.3180000D+00 0.3180000D+00 0.3180000D+00
EXPONENTS  0.3180000D+00 0.1000000D+00 0.1000000D+00 0.1000000D+00 0.1000000D+00
EXPONENTS  0.1000000D+00 0.1000000D+00 0.7610000D+00 0.7610000D+00 0.7610000D+00
EXPONENTS  0.7610000D+00 0.7610000D+00 0.7610000D+00 0.7610000D+00 0.7610000D+00
EXPONENTS  0.7610000D+00 0.7610000D+00 0.2680000D+00 0.2680000D+00 0.2680000D+00
EXPONENTS  0.2680000D+00 0.2680000D+00 0.2680000D+00 0.2680000D+00 0.2680000D+00
EXPONENTS  0.2680000D+00 0.2680000D+00 0.3387000D+02 0.5095000D+01 0.1159000D+01
EXPONENTS  0.3258000D+00 0.1027000D+00 0.2526000D-01 0.1407000D+01 0.1407000D+01
EXPONENTS  0.1407000D+01 0.3880000D+00 0.3880000D+00 0.3880000D+00 0.1020000D+00
EXPONENTS  0.1020000D+00 0.1020000D+00 0.1057000D+01 0.1057000D+01 0.1057000D+01
EXPONENTS  0.1057000D+01 0.1057000D+01 0.1057000D+01 0.2470000D+00 0.2470000D+00
EXPONENTS  0.2470000D+00 0.2470000D+00 0.2470000D+00 0.2470000D+00 0.3387000D+02
EXPONENTS  0.5095000D+01 0.1159000D+01 0.3258000D+00 0.1027000D+00 0.2526000D-01
EXPONENTS  0.1407000D+01 0.1407000D+01 0.1407000D+01 0.3880000D+00 0.3880000D+00
EXPONENTS  0.3880000D+00 0.1020000D+00 0.1020000D+00 0.1020000D+00 0.1057000D+01
EXPONENTS  0.1057000D+01 0.1057000D+01 0.1057000D+01 0.1057000D+01 0.1057000D+01
EXPONENTS  0.2470000D+00 0.2470000D+00 0.2470000D+00 0.2470000D+00 0.2470000D+00
EXPONENTS  0.2470000D+00 0.3387000D+02 0.5095000D+01 0.1159000D+01 0.3258000D+00
EXPONENTS  0.1027000D+00 0.2526000D-01 0.1407000D+01 0.1407000D+01 0.1407000D+01
EXPONENTS  0.3880000D+00 0.3880000D+00 0.3880000D+00 0.1020000D+00 0.1020000D+00
EXPONENTS  0.1020000D+00 0.1057000D+01 0.1057000D+01 0.1057000D+01 0.1057000D+01
EXPONENTS  0.1057000D+01 0.1057000D+01 0.2470000D+00 0.2470000D+00 0.2470000D+00
EXPONENTS  0.2470000D+00 0.2470000D+00 0.2470000D+00 0.4561000D+06 0.6833000D+05
EXPONENTS  0.1555000D+05 0.4405000D+04 0.1439000D+04 0.5204000D+03 0.2031000D+03
EXPONENTS  0.8396000D+02 0.3620000D+02 0.1583000D+02 0.6334000D+01 0.4405000D+04
EXPONENTS  0.1439000D+04 0.5204000D+03 0.2031000D+03 0.8396000D+02 0.3620000D+02
EXPONENTS  0.1583000D+02 0.6334000D+01 0.2694000D+01 0.1439000D+04 0.2031000D+03
EXPONENTS  0.8396000D+02 0.3620000D+02 0.1583000D+02 0.6334000D+01 0.2694000D+01
EXPONENTS  0.4313000D+00 0.9768000D+00 0.1625000D+00 0.5910000D-01 0.6633000D+03
EXPONENTS  0.1568000D+03 0.4998000D+02 0.1842000D+02 0.7240000D+01 0.2922000D+01
EXPONENTS  0.6633000D+03 0.1568000D+03 0.4998000D+02 0.1842000D+02 0.7240000D+01
EXPONENTS  0.2922000D+01 0.6633000D+03 0.1568000D+03 0.4998000D+02 0.1842000D+02
EXPONENTS  0.7240000D+01 0.2922000D+01 0.1568000D+03 0.4998000D+02 0.1842000D+02
EXPONENTS  0.7240000D+01 0.2922000D+01 0.3818000D+00 0.1568000D+03 0.4998000D+02
EXPONENTS  0.1842000D+02 0.7240000D+01 0.2922000D+01 0.3818000D+00 0.1568000D+03
EXPONENTS  0.4998000D+02 0.1842000D+02 0.7240000D+01 0.2922000D+01 0.3818000D+00
EXPONENTS  0.1022000D+01 0.1022000D+01 0.1022000D+01 0.1301000D+00 0.1301000D+00
EXPONENTS  0.1301000D+00 0.4190000D-01 0.4190000D-01 0.4190000D-01 0.1046000D+01
EXPONENTS  0.1046000D+01 0.1046000D+01 0.1046000D+01 0.1046000D+01 0.1046000D+01
EXPONENTS  0.3440000D+00 0.3440000D+00 0.3440000D+00 0.3440000D+00 0.3440000D+00
EXPONENTS  0.3440000D+00 0.1350000D+00 0.1350000D+00 0.1350000D+00 0.1350000D+00
EXPONENTS  0.1350000D+00 0.1350000D+00 0.7060000D+00 0.7060000D+00 0.7060000D+00
EXPONENTS  0.7060000D+00 0.7060000D+00 0.7060000D+00 0.7060000D+00 0.7060000D+00
EXPONENTS  0.7060000D+00 0.7060000D+00 0.3120000D+00 0.3120000D+00 0.3120000D+00
EXPONENTS  0.3120000D+00 0.3120000D+00 0.3120000D+00 0.3120000D+00 0.3120000D+00
EXPONENTS  0.3120000D+00 0.3120000D+00 0.1950000D+05 0.2923000D+04 0.6645000D+03
EXPONENTS  0.1875000D+03 0.6062000D+02 0.2142000D+02 0.7950000D+01 0.6645000D+03
EXPONENTS  0.1875000D+03 0.6062000D+02 0.2142000D+02 0.7950000D+01 0.8815000D+00
EXPONENTS  0.2257000D+01 0.3041000D+00 0.9158000D-01 0.4388000D+02 0.9926000D+01
EXPONENTS  0.2930000D+01 0.4388000D+02 0.9926000D+01 0.2930000D+01 0.4388000D+02
EXPONENTS  0.9926000D+01 0.2930000D+01 0.9132000D+00 0.9132000D+00 0.9132000D+00
EXPONENTS  0.2672000D+00 0.2672000D+00 0.2672000D+00 0.7361000D-01 0.7361000D-01
EXPONENTS  0.7361000D-01 0.3107000D+01 0.3107000D+01 0.3107000D+01 0.3107000D+01
EXPONENTS  0.3107000D+01 0.3107000D+01 0.8550000D+00 0.8550000D+00 0.8550000D+00
EXPONENTS  0.8550000D+00 0.8550000D+00 0.8550000D+00 0.2920000D+00 0.2920000D+00
EXPONENTS  0.2920000D+00 0.2920000D+00 0.2920000D+00 0.2920000D+00 0.1917000D+01
EXPONENTS  0.1917000D+01 0.1917000D+01 0.1917000D+01 0.1917000D+01 0.1917000D+01
EXPONENTS  0.1917000D+01 0.1917000D+01 0.1917000D+01 0.1917000D+01 0.7240000D+00
EXPONENTS  0.7240000D+00 0.7240000D+00 0.7240000D+00 0.7240000D+00 0.7240000D+00
EXPONENTS  0.7240000D+00 0.7240000D+00 0.7240000D+00 0.7240000D+00
MO    1     MO 0.0        OCC NO =    2.0000300  ORB. ENERGY =    0.000000
 -0.15203266D-04 -0.28341951D-04 -0.47901759D-04 -0.72005278D-04 -0.88445587D-04
 -0.74644955D-04 -0.28068453D-04 -0.18918573D-07 -0.14140461D-06 -0.52846133D-06
 -0.14743248D-05 -0.19751888D-05  0.23323297D-05  0.55823592D-06  0.23854407D-04
  0.51745688D-06  0.99020397D-08  0.92837916D-08  0.66106127D-08  0.10859793D-03
  0.10181747D-03  0.72500101D-04 -0.29909468D-07 -0.28042027D-07 -0.19967594D-07
  0.32676413D-07  0.34975713D-03  0.40217311D-05  0.41334149D-07  0.45744554D-03
 -0.19169280D-05  0.82190321D-09  0.93730446D-05 -0.22265422D-07  0.62497435D-04
 -0.62295763D-04 -0.20167219D-06 -0.12733770D-06 -0.70068069D-07 -0.51243110D-03
  0.19187630D-03 -0.19105163D-03 -0.82467570D-06 -0.93907373D-07 -0.58831792D-07
  0.94981261D-04  0.41018745D-04 -0.40991725D-04 -0.27019665D-07 -0.35311111D-07
 -0.20337568D-07 -0.65917238D-04  0.12749563D-07  0.92346752D-04 -0.73232294D-06
  0.35651808D-08  0.92450624D-04  0.23961184D-04 -0.41813870D-07 -0.36949088D-03
 -0.21764215D-04 -0.17537751D-06  0.68017436D-08 -0.27103462D-04 -0.29582029D-06
 -0.11532393D-07 -0.25674554D-04  0.50371212D-04 -0.88728380D-08  0.10698494D-03
 -0.49483751D-04  0.18039784D-07 -0.40879709D-04 -0.73728239D-04 -0.10871225D-03
  0.34724484D-03  0.10981913D-02 -0.12113144D-04  0.12190521D-07  0.67779046D-04
  0.21576958D-04  0.79716914D-07  0.28369994D-03  0.26325048D-03  0.22954905D-07
  0.17005597D-03  0.22035307D-04 -0.11034618D-03  0.44863441D-04  0.65482742D-04
  0.90431941D-07  0.10054484D-06  0.29332237D-03 -0.43022885D-04 -0.11611602D-04
  0.54634488D-04  0.12441419D-07  0.36166526D-07  0.30825967D-04  0.20021117D-04
  0.36108908D-04  0.53242564D-04 -0.18448039D-03 -0.55774788D-03  0.59998407D-05
 -0.29103014D-04  0.21519025D-04 -0.12287250D-04 -0.86920937D-04  0.13307731D-03
 -0.13478219D-03 -0.41260211D-04  0.98931801D-04 -0.11053222D-04  0.10041246D-04
  0.24513961D-04 -0.34555208D-04  0.78321335D-04 -0.14878230D-03  0.38806443D-04
  0.20918396D-04  0.70916920D-05 -0.28010088D-04  0.25626477D-04  0.13047788D-04
  0.53406641D-04  0.20018556D-04  0.36104290D-04  0.53235754D-04 -0.18445765D-03
 -0.55768236D-03  0.59993153D-05  0.29099735D-04  0.21509335D-04 -0.12295599D-04
  0.86889240D-04  0.13304895D-03 -0.13479898D-03  0.41271370D-04  0.98918810D-04
 -0.11067235D-04  0.10075483D-04  0.24528419D-04 -0.34603902D-04 -0.78291107D-04
  0.14874732D-03  0.38788362D-04  0.20906504D-04  0.70955310D-05 -0.28002035D-04
 -0.25613600D-04 -0.13071689D-04  0.53420250D-04  0.59337788D-04  0.11101467D-03
  0.19180873D-03  0.31094448D-03  0.47219903D-03  0.65631223D-03  0.78030495D-03
  0.69512276D-03  0.34521266D-03  0.55576318D-04  0.58636298D-06  0.27870754D-06
  0.92972170D-05  0.32398940D-04  0.11667383D-03  0.25719294D-03  0.36204464D-03
 -0.17270709D-04 -0.47379829D-03 -0.28015396D-03  0.53399853D-08  0.64680262D-07
  0.13488387D-06  0.38682345D-06  0.20087203D-07 -0.16681703D-05 -0.43102317D-05
  0.35117739D-05 -0.17372399D-04  0.23079083D-05 -0.32501433D-07  0.10800763D-02
  0.14227131D-02  0.15694753D-02  0.13035721D-02  0.69223295D-03  0.17859972D-03
  0.11610740D+02  0.15294061D+02  0.16871743D+02  0.14013304D+02  0.74414532D+01
  0.19199338D+01 -0.54785760D-03 -0.72165663D-03 -0.79610022D-03 -0.66122357D-03
 -0.35112806D-03 -0.90592876D-04 -0.42715425D-07  0.41294524D-06  0.58229590D-06
  0.83283717D-06 -0.42173702D-08 -0.76379024D-06 -0.45950605D-03  0.44422089D-02
  0.62639782D-02  0.89591459D-02 -0.45367854D-04 -0.82163818D-02 -0.11397273D-07
  0.11018150D-06  0.15536742D-06  0.22221652D-06 -0.11252732D-08 -0.20379350D-06
  0.71298287D-05  0.76652352D-01 -0.27342642D-05 -0.60168341D-07 -0.64371543D-03
 -0.27857789D-06 -0.54020643D-08 -0.58000366D-04  0.96324445D-08  0.12529671D-04
 -0.12241305D-04 -0.28836629D-06 -0.18100539D-06 -0.94883188D-07 -0.98051812D-03
 -0.44984182D-05  0.43099341D-05  0.18848406D-06  0.65635674D-07  0.34126960D-07
  0.35577399D-03  0.13014518D-05 -0.13115428D-05  0.10091032D-07 -0.11513417D-07
 -0.60151712D-08 -0.61082133D-04  0.64761807D-08  0.22499041D-05 -0.57642844D-07
 -0.62091393D-08  0.26064854D-05  0.35302644D-04 -0.13219403D-07 -0.93561978D-05
 -0.35129715D-04 -0.24305235D-07  0.31087099D-10  0.14646356D-04 -0.10196577D-09
  0.26661364D-08  0.14535904D-04 -0.72229561D-05 -0.27593977D-08 -0.58474973D-04
  0.72232620D-05 -0.21835638D-07 -0.22902508D-05 -0.42690314D-05 -0.72369593D-05
 -0.10957735D-04 -0.13699582D-04 -0.11784097D-04 -0.45194550D-05 -0.15399335D-08
 -0.20385836D-07 -0.74045064D-07 -0.21965329D-06 -0.25310605D-06  0.30743500D-06
 -0.27889553D-06 -0.44451308D-06  0.21665034D-06 -0.26633993D-07 -0.26047464D-07
 -0.17210661D-07 -0.29520088D-03 -0.28870001D-03 -0.19075631D-03  0.43339655D-05
  0.42385236D-05  0.28005717D-05 -0.19015768D-08 -0.87627878D-05  0.12884783D-05
 -0.52538573D-08 -0.67505216D-04 -0.46965249D-06 -0.17798016D-08 -0.19612414D-04
  0.87544010D-07  0.70916536D-04 -0.70865068D-04 -0.51468776D-07 -0.63350402D-07
 -0.36880360D-07 -0.13210862D-03 -0.35562776D-04  0.35483078D-04  0.79698238D-07
  0.37825844D-07  0.21585711D-07  0.10194833D-03  0.18048902D-04 -0.17793516D-04
 -0.25538580D-06 -0.22901463D-07 -0.12348163D-07 -0.74474639D-04 -0.37491783D-07
 -0.71945625D-04  0.39331620D-06  0.24580844D-07 -0.71917863D-04 -0.18803980D-03
  0.87894503D-07  0.28775474D-03  0.18685986D-03  0.22874556D-06  0.12108736D-07
  0.25551441D-04 -0.15078845D-06 -0.76364028D-08  0.25568915D-04  0.59687565D-04
 -0.28689807D-07 -0.10222324D-03 -0.59235200D-04 -0.77177468D-07
MO    2     MO 0.0        OCC NO =    2.0000300  ORB. ENERGY =    0.000000
 -0.32068373D-09 -0.59781908D-09 -0.10103957D-08 -0.15188132D-08 -0.18655899D-08
 -0.15744921D-08 -0.59205015D-09  0.52414889D-12  0.39176882D-11  0.14641295D-10
  0.40846935D-10  0.54723631D-10 -0.64618404D-10 -0.24883501D-09  0.87056071D-08
  0.22785061D-08  0.11105185D-03  0.10411816D-03  0.74138336D-04 -0.10537724D-07
 -0.98797863D-08 -0.70349964D-08 -0.21752220D-07 -0.20394089D-07 -0.14521807D-07
  0.36294956D-03 -0.34199410D-07 -0.61596766D-07  0.46338848D-03 -0.43977309D-07
 -0.85763784D-07  0.93405113D-05 -0.91466382D-09 -0.16911554D-08 -0.71923996D-07
 -0.17697151D-07  0.89621148D-07  0.12800476D-03 -0.51048033D-03  0.24585019D-07
  0.72970267D-07 -0.54559787D-07 -0.18410480D-07  0.38494510D-03  0.97986473D-04
 -0.76705123D-07 -0.26133710D-09 -0.11986903D-07  0.12248240D-07  0.81579577D-04
 -0.65993707D-04 -0.79798810D-08  0.92041054D-04 -0.93587824D-08  0.66323200D-07
  0.94362431D-04  0.13862065D-08 -0.17302521D-06 -0.37048559D-03  0.26690141D-07
 -0.25944388D-07  0.52030157D-04 -0.27021062D-04  0.22354479D-08 -0.19562152D-07
 -0.25945289D-04  0.21642420D-07  0.67325677D-07  0.10700847D-03 -0.28348763D-07
 -0.86392220D-08  0.99187248D-04 -0.11724791D-08 -0.21146143D-08 -0.31179976D-08
  0.66920243D-08  0.36569456D-07 -0.61159505D-09  0.56740240D-05  0.66063975D-09
 -0.45532075D-09  0.79005548D-04 -0.20963843D-08 -0.52408384D-08  0.73844900D-04
 -0.34797715D-08 -0.12054552D-07 -0.71371934D-08 -0.28981872D-08  0.10035381D-07
  0.29813520D-04 -0.46415143D-04  0.11541336D-07  0.12878602D-07 -0.36721559D-08
 -0.92064460D-08  0.28378480D-04  0.59450869D-04 -0.11891351D-07 -0.34725394D-04
 -0.62628678D-04 -0.92345949D-04  0.31607005D-03  0.97071755D-03 -0.10505094D-04
  0.54707116D-04 -0.29106364D-04  0.21550749D-04  0.23667629D-03 -0.87195063D-04
  0.23315016D-03  0.14786113D-03 -0.41850402D-04  0.19331597D-04  0.10536940D-04
 -0.69217670D-04  0.58680729D-04 -0.10598814D-03  0.21157729D-03 -0.14899258D-03
 -0.10887155D-04 -0.37090132D-04  0.47977286D-04 -0.16307483D-04  0.38431008D-04
  0.12971810D-04  0.34726797D-04  0.62631209D-04  0.92349681D-04 -0.31609071D-03
 -0.97075702D-03  0.10505409D-04  0.54709414D-04  0.29094184D-04 -0.21570450D-04
  0.23662249D-03  0.87143850D-04 -0.23324658D-03  0.14786778D-03  0.41819415D-04
 -0.19385368D-04 -0.10487631D-04  0.69246383D-04 -0.58758751D-04 -0.10589950D-03
  0.21159291D-03  0.14897863D-03  0.10898393D-04  0.37095151D-04 -0.47993545D-04
 -0.16300345D-04  0.38386062D-04 -0.12972317D-04 -0.31758910D-07 -0.59417532D-07
 -0.10266032D-06 -0.16642443D-06 -0.25273147D-06 -0.35127297D-06 -0.41763665D-06
 -0.37204524D-06 -0.18476553D-06 -0.29745687D-07 -0.31383457D-09 -0.14875821D-09
 -0.49623248D-08 -0.17292708D-07 -0.62273843D-07 -0.13727494D-06 -0.19323881D-06
  0.92181209D-08  0.25288654D-06  0.14953023D-06 -0.30091450D-11 -0.36448094D-10
 -0.76008657D-10 -0.21797960D-09 -0.11319377D-10  0.94003373D-09  0.24288666D-08
 -0.19789262D-08  0.87395907D-08 -0.34532432D-09 -0.50068609D-09  0.11610730D+02
  0.15294047D+02  0.16871728D+02  0.14013291D+02  0.74414466D+01  0.19199321D+01
 -0.10801688D-02 -0.14228350D-02 -0.15696097D-02 -0.13036838D-02 -0.69229226D-03
 -0.17861502D-03 -0.20605989D-02 -0.27142908D-02 -0.29942876D-02 -0.24869903D-02
 -0.13206609D-02 -0.34073740D-03 -0.45947389D-03  0.44418979D-02  0.62635397D-02
  0.89585187D-02 -0.45364678D-04 -0.82158066D-02  0.42781073D-07 -0.41357989D-06
 -0.58319082D-06 -0.83411714D-06  0.42238518D-08  0.76496409D-06  0.81470829D-07
 -0.78760756D-06 -0.11106089D-05 -0.15884645D-05  0.80437605D-08  0.14567717D-05
  0.76654262D-01 -0.71321214D-05 -0.13602932D-04 -0.64353782D-03  0.59641411D-07
  0.11389415D-06 -0.57986114D-04  0.53868560D-08  0.10349296D-07 -0.17019157D-06
 -0.35842789D-08  0.17377585D-06  0.24950317D-04 -0.97995032D-03  0.87628592D-07
  0.61663120D-07  0.98934607D-09 -0.62652466D-07 -0.85577725D-05  0.35594860D-03
 -0.32231504D-07 -0.10474418D-07 -0.44711310D-09  0.10921532D-07  0.25203873D-05
 -0.61024755D-04  0.53537368D-08  0.23885124D-05 -0.26585577D-09  0.15991402D-08
  0.23424415D-05  0.12133262D-07  0.56530080D-08 -0.95079786D-05 -0.11335695D-07
 -0.10450429D-07  0.70018415D-04  0.14639488D-04 -0.13958055D-08  0.10299774D-07
  0.14654093D-04 -0.39555735D-08 -0.30565420D-07 -0.58572556D-04  0.81429902D-08
 -0.33390214D-09 -0.14506258D-04  0.50260887D-08  0.93686380D-08  0.15881929D-07
  0.24047388D-07  0.30064531D-07  0.25860888D-07  0.99182072D-08 -0.12444127D-10
 -0.16473694D-09 -0.59835455D-09 -0.17750075D-08 -0.20453376D-08  0.24843672D-08
  0.11496499D-09 -0.42778949D-08 -0.40870356D-08 -0.29112283D-03 -0.28471177D-03
 -0.18812110D-03  0.27167393D-07  0.26569117D-07  0.17555339D-07  0.47583876D-07
  0.46535991D-07  0.30748297D-07 -0.84291375D-05 -0.53133738D-09  0.31412984D-08
 -0.66776887D-04  0.73212189D-08  0.71123691D-08 -0.19528264D-04  0.18461714D-08
  0.29208374D-08 -0.33928308D-08 -0.21396599D-07  0.24789430D-07  0.14150551D-03
 -0.13277419D-03 -0.12153759D-07  0.76869275D-08  0.10679220D-07 -0.18366147D-07
 -0.70958362D-04  0.10207045D-03  0.25423989D-08 -0.71514085D-08 -0.49307180D-08
  0.12082126D-07  0.35895304D-04 -0.74194876D-04  0.16087443D-08 -0.71824600D-04
  0.79823962D-08 -0.48806791D-07 -0.70955892D-04 -0.58277724D-07  0.79340418D-07
  0.28642969D-03  0.34330535D-07  0.67079955D-07 -0.37652279D-03  0.25493629D-04
 -0.28514212D-08  0.17112244D-07  0.25228465D-04  0.18205807D-07 -0.29890529D-07
 -0.10170935D-03 -0.96515431D-08 -0.21446203D-07  0.11947561D-03
MO    3     MO 0.0        OCC NO =    2.0000210  ORB. ENERGY =    0.000000
 -0.14470630D-01 -0.26976170D-01 -0.45593403D-01 -0.68535389D-01 -0.84183450D-01
 -0.71047862D-01 -0.26715851D-01 -0.38227394D-05 -0.28572609D-04 -0.10678236D-03
 -0.29790617D-03 -0.39911213D-03  0.47127701D-03 -0.87117180D-03 -0.19253629D-02
 -0.81359426D-04  0.20859639D-06  0.19557238D-06  0.13925918D-06  0.49790122D-05
  0.46681405D-05  0.33239941D-05  0.11654148D-02  0.10926505D-02  0.77803224D-03
  0.10231784D-06 -0.13700503D-04  0.60420339D-03 -0.67667206D-07 -0.50804390D-05
 -0.37812760D-03  0.83040243D-09 -0.19206843D-07  0.46757319D-05 -0.10707733D-03
 -0.10229913D-03  0.20937646D-03  0.19527700D-09  0.11315003D-06  0.81539336D-06
 -0.27802373D-04 -0.21563487D-04  0.49365860D-04  0.15526921D-08  0.27572027D-07
  0.30988644D-05  0.11276386D-04  0.11710169D-04 -0.22986555D-04  0.10954776D-09
 -0.12202763D-07 -0.33940896D-06 -0.15691102D-07  0.36001926D-04  0.75178988D-05
  0.39257290D-07 -0.10895179D-03 -0.10613996D-04  0.78160144D-08  0.94601082D-06
 -0.11939701D-04  0.38648437D-07  0.29513994D-08  0.52177346D-04 -0.85457116D-04
  0.81955755D-07 -0.15593014D-03  0.12877074D-03 -0.90809953D-07 -0.60189319D-06
  0.12760060D-03  0.54756304D-07 -0.58606414D-05 -0.10569908D-04 -0.15585323D-04
  0.73673163D-03  0.21973200D-03  0.47964956D-05  0.16382530D-07  0.91978438D-04
  0.25376690D-04  0.24272513D-07  0.19768014D-03 -0.16430621D-05  0.11972101D-07
  0.41639469D-04  0.37690022D-04 -0.73290888D-04  0.54905448D-04  0.18385440D-04
  0.45609471D-07  0.42143549D-07  0.74922085D-04 -0.94088054D-05 -0.12480374D-04
  0.21889180D-04 -0.68036395D-08  0.67655380D-08 -0.33808633D-04 -0.47004902D-05
 -0.84775277D-05 -0.12500110D-04  0.75895563D-03  0.24012142D-03  0.51193550D-05
  0.83737858D-04 -0.47512938D-04  0.28906745D-04  0.17540955D-03 -0.10289791D-03
 -0.43068858D-05  0.38655342D-04 -0.22907235D-04  0.38881290D-04  0.22872963D-04
 -0.41965518D-04  0.19092555D-04 -0.11235357D-03  0.65780742D-04 -0.38331109D-04
 -0.11520296D-04 -0.10156787D-04  0.21677083D-04  0.11887606D-05 -0.29866048D-04
  0.17579284D-04 -0.47003364D-05 -0.84772502D-05 -0.12499700D-04  0.75895987D-03
  0.24012217D-03  0.51193271D-05 -0.83739892D-04 -0.47492069D-04  0.28936933D-04
 -0.17543823D-03 -0.10285339D-03 -0.42432261D-05 -0.38647456D-04 -0.22897488D-04
  0.38895299D-04  0.22878400D-04 -0.41993836D-04  0.19115435D-04  0.11230677D-03
 -0.65794272D-04 -0.38355053D-04 -0.11509937D-04 -0.10156560D-04  0.21666497D-04
 -0.11816576D-05  0.29893860D-04  0.17572065D-04 -0.15465587D+00 -0.28934464D+00
 -0.49992336D+00 -0.81043450D+00 -0.12307226D+01 -0.17105886D+01 -0.20337587D+01
 -0.18117429D+01 -0.89974985D+00 -0.14485211D+00 -0.15282754D-02 -0.72309061D-03
 -0.24121092D-01 -0.84057177D-01 -0.30270351D+00 -0.66727221D+00 -0.93930391D+00
  0.44807858D-01  0.12292423D+01  0.72684327D+00 -0.15534680D-04 -0.18816291D-03
 -0.39239391D-03 -0.11253174D-02 -0.58436167D-04  0.48529145D-02  0.12538999D-01
 -0.10216186D-01  0.46617360D-01 -0.38514544D-03 -0.13208246D-03  0.10519915D-02
  0.13857190D-02  0.15286649D-02  0.12696759D-02  0.67423314D-03  0.17395567D-03
  0.35277567D-02  0.46468809D-02  0.51262370D-02  0.42577412D-02  0.22609787D-02
  0.58334433D-03  0.59355942D+01  0.78185661D+01  0.86251023D+01  0.71638228D+01
  0.38041887D+01  0.98150056D+00 -0.37315009D-07  0.36073750D-06  0.50867753D-06
  0.72754344D-06 -0.36841775D-08 -0.66722595D-06 -0.13833777D-06  0.13373606D-05
  0.18858180D-05  0.26972186D-05 -0.13658335D-07 -0.24736039D-05 -0.21052138D-03
  0.20351853D-02  0.28698237D-02  0.41046070D-02 -0.20785152D-04 -0.37643118D-02
  0.73756976D-05  0.24335463D-04  0.41612878D-01 -0.85738555D-07 -0.12860672D-06
 -0.48327251D-03 -0.17364290D-08 -0.16200329D-07 -0.98304987D-05 -0.74307934D-05
 -0.79198673D-05  0.15350661D-04 -0.18425459D-09  0.78169362D-08 -0.55476327D-06
 -0.11107109D-03 -0.11094829D-03  0.22201938D-03  0.75208983D-10  0.11839912D-06
  0.34281127D-06 -0.14304829D-04 -0.14264991D-04  0.28569820D-04  0.16799233D-10
  0.15262248D-07 -0.78811130D-07  0.12182641D-08 -0.72005148D-05  0.54665804D-05
 -0.97198379D-08  0.21760140D-04 -0.84423353D-05  0.60650456D-08 -0.15859547D-06
 -0.79574060D-05 -0.73960175D-08  0.82192578D-08  0.20614285D-05 -0.33584772D-04
  0.11302064D-07 -0.61675019D-05  0.50517179D-04 -0.35959837D-07 -0.16783637D-07
  0.50237137D-04  0.20148585D-08 -0.87864443D-03 -0.16377947D-02 -0.27764269D-02
 -0.42038859D-02 -0.52557833D-02 -0.45209161D-02 -0.17338686D-02 -0.68095182D-06
 -0.90145271D-05 -0.32742403D-04 -0.97129720D-04 -0.11192238D-03  0.13594641D-03
 -0.95804771D-04 -0.15832600D-03  0.12692138D-04  0.66735865D-06  0.65266218D-06
  0.43124150D-06  0.57021277D-06  0.55765564D-06  0.36846666D-06  0.38990713D-02
  0.38132065D-02  0.25195468D-02  0.14966295D-06  0.94011104D-07  0.87856023D-03
  0.41586265D-08 -0.60424892D-07  0.21769008D-04  0.15350356D-08 -0.56625293D-07
  0.93497566D-05 -0.35318166D-04 -0.35955463D-04  0.71273628D-04  0.72930365D-09
  0.36411049D-07  0.27298750D-06  0.20898155D-04  0.21180485D-04 -0.42078640D-04
 -0.30426856D-09 -0.21743786D-07 -0.10126706D-06  0.18169440D-04  0.18066002D-04
 -0.36235442D-04  0.47574718D-10 -0.18069286D-07  0.89363489D-07 -0.97986567D-08
 -0.30682684D-05  0.46833584D-04 -0.14684293D-07  0.96642450D-05 -0.70164931D-04
  0.44080263D-07 -0.45943984D-06 -0.70335822D-04 -0.16312043D-08  0.58057822D-08
  0.94405572D-06 -0.25526036D-04  0.73290296D-08 -0.30416156D-05  0.38279689D-04
 -0.24746376D-07  0.20944845D-06  0.38298419D-04  0.51468103D-09
MO    4     MO 0.0        OCC NO =    2.0000123  ORB. ENERGY =    0.000000
  0.26452120D-01  0.49312081D-01  0.83344135D-01  0.12528178D+00  0.15388623D+00
  0.12987455D+00  0.48836221D-01 -0.15243225D-05 -0.11393366D-04 -0.42579611D-04
 -0.11879048D-03 -0.15914650D-03  0.18792234D-03  0.26165254D-02 -0.35893330D-02
 -0.40521197D-04  0.64677781D-06  0.60639531D-06  0.43178958D-06 -0.50381119D-05
 -0.47235501D-05 -0.33634491D-05  0.36686166D-02  0.34395612D-02  0.24491725D-02
  0.22471457D-06 -0.21689475D-04  0.13012735D-02 -0.75820363D-07 -0.11165544D-04
 -0.41503327D-03  0.69492339D-09 -0.52378148D-07  0.37522106D-05 -0.32135592D-03
 -0.31770226D-03  0.63905819D-03 -0.44275475D-09  0.34032430D-06  0.57399467D-06
  0.36231123D-05  0.14720628D-04 -0.18343740D-04  0.37775097D-08 -0.58162112D-08
  0.61004532D-05 -0.18457795D-04 -0.17243935D-04  0.35701730D-04  0.24118628D-09
  0.18647507D-07 -0.52193309D-06  0.10242796D-07 -0.41513481D-04  0.22057993D-04
 -0.53188924D-07  0.12430815D-03 -0.32154833D-04  0.22460535D-07  0.23228992D-06
 -0.34019146D-04 -0.43610501D-07  0.12485282D-07  0.82236752D-04 -0.16344663D-03
  0.13683443D-06 -0.24550050D-03  0.24629386D-03 -0.17429027D-06 -0.12097583D-05
  0.24404602D-03  0.86190053D-07 -0.89359119D-04 -0.16116285D-03 -0.23763453D-03
  0.99356207D-03  0.64965968D-03  0.38894000D-05 -0.27391916D-08 -0.64096929D-04
  0.27906178D-04  0.30793865D-07  0.30096792D-03 -0.37906881D-04  0.26508966D-07
  0.10680282D-03  0.73907211D-04 -0.13862080D-03  0.20331108D-04  0.11828969D-03
  0.65053642D-07  0.10828206D-06  0.13900042D-03 -0.14383422D-04 -0.21224822D-04
  0.35608243D-04 -0.12637278D-07  0.10093978D-07 -0.61150273D-04 -0.90047117D-04
 -0.16240368D-03 -0.23946414D-03  0.10296370D-02  0.69436869D-03  0.43267641D-05
 -0.48321745D-04  0.28882006D-04  0.34666662D-04  0.26751066D-03 -0.15741327D-03
 -0.44250449D-04  0.97174315D-04 -0.57554379D-04  0.76279467D-04 -0.16156558D-04
 -0.10104661D-03  0.11720317D-03 -0.14757506D-03  0.12325887D-03 -0.72040551D-04
 -0.19629881D-04 -0.16009746D-04  0.35639627D-04  0.40009709D-05 -0.54408390D-04
  0.32054065D-04 -0.90047356D-04 -0.16240412D-03 -0.23946477D-03  0.10296405D-02
  0.69437448D-03  0.43265139D-05  0.48341191D-04  0.28869130D-04  0.34649308D-04
 -0.26756719D-03 -0.15734513D-03 -0.44155743D-04 -0.97162647D-04 -0.57530009D-04
  0.76314309D-04 -0.16161142D-04 -0.10108309D-03  0.11724423D-03  0.14750778D-03
 -0.12318306D-03 -0.72061381D-04 -0.19611623D-04 -0.16008995D-04  0.35620618D-04
 -0.39874813D-05  0.54456526D-04  0.32041994D-04  0.91239529D-01  0.17069942D+00
  0.29493074D+00  0.47811739D+00  0.72606713D+00  0.10091650D+01  0.11998199D+01
  0.10688412D+01  0.53080915D+00  0.85455783D-01  0.90160898D-03  0.42718229D-03
  0.14250086D-01  0.49658697D-01  0.17882901D+00  0.39420629D+00  0.55491523D+00
 -0.26471265D-01 -0.72620295D+00 -0.42939926D+00  0.62729975D-05  0.75981319D-04
  0.15845103D-03  0.45440997D-03  0.23596877D-04 -0.19596362D-02 -0.50633235D-02
  0.41253576D-02 -0.28521993D-01  0.14157428D-02 -0.18297002D-03  0.17612115D-02
  0.23199275D-02  0.25592432D-02  0.21256519D-02  0.11287801D-02  0.29123117D-03
 -0.14287010D-02 -0.18819334D-02 -0.20760672D-02 -0.17243363D-02 -0.91567044D-03
 -0.23624776D-03  0.99187252D+01  0.13065281D+02  0.14413051D+02  0.11971167D+02
  0.63570219D+01  0.16401449D+01 -0.59825855D-07  0.57835787D-06  0.81554498D-06
  0.11664451D-05 -0.59067136D-08 -0.10697401D-05  0.27661241D-07 -0.26741108D-06
 -0.37707754D-06 -0.53932063D-06  0.27310437D-08  0.49460788D-06 -0.33684736D-03
  0.32564235D-02  0.45918971D-02  0.65676275D-02 -0.33257541D-04 -0.60231339D-02
  0.12888938D-04 -0.96817233D-05  0.72585868D-01 -0.53638697D-07  0.27043050D-06
 -0.30475890D-03 -0.66681783D-09  0.11878990D-07 -0.39106079D-05  0.45393066D-03
  0.45348568D-03 -0.90741634D-03 -0.33679792D-10 -0.48395575D-06 -0.15774685D-06
 -0.30923279D-03 -0.30908506D-03  0.61831786D-03  0.10220743D-10  0.32959305D-06
  0.24887862D-06  0.44182933D-05  0.45082424D-05 -0.89265357D-05  0.39712726D-11
 -0.49554699D-08 -0.17043753D-06  0.17970092D-07 -0.14445252D-04 -0.47001141D-04
 -0.39836631D-08  0.43817980D-04  0.69868128D-04 -0.49926614D-07 -0.48222280D-06
  0.71135295D-04 -0.15402835D-07  0.15066625D-07  0.41717582D-05 -0.62326513D-04
  0.21317183D-07 -0.12551864D-04  0.93815811D-04 -0.66517059D-07  0.36588853D-07
  0.93163726D-04  0.43450843D-08 -0.63439804D-02 -0.11825190D-01 -0.20046332D-01