 Entering Gaussian System, Link 0=g09
 Input=GAUSSIAN+YH_2.com
 Output=GAUSSIAN+YH_2.log
 Initial command:
 /home/bruns/programas/chemistry/gaussian/g09/l1.exe /home/bruns/programas/chemistry/gaussian/work/Gau-12935.inp -scrdir=/home/bruns/programas/chemistry/gaussian/work/
 Entering Link 1 = /home/bruns/programas/chemistry/gaussian/g09/l1.exe PID=     12943.
  
 Copyright (c) 1988,1990,1992,1993,1995,1998,2003,2009,2010,
            Gaussian, Inc.  All Rights Reserved.
  
 This is part of the Gaussian(R) 09 program.  It is based on
 the Gaussian(R) 03 system (copyright 2003, Gaussian, Inc.),
 the Gaussian(R) 98 system (copyright 1998, Gaussian, Inc.),
 the Gaussian(R) 94 system (copyright 1995, Gaussian, Inc.),
 the Gaussian 92(TM) system (copyright 1992, Gaussian, Inc.),
 the Gaussian 90(TM) system (copyright 1990, Gaussian, Inc.),
 the Gaussian 88(TM) system (copyright 1988, Gaussian, Inc.),
 the Gaussian 86(TM) system (copyright 1986, Carnegie Mellon
 University), and the Gaussian 82(TM) system (copyright 1983,
 Carnegie Mellon University). Gaussian is a federally registered
 trademark of Gaussian, Inc.
  
 This software contains proprietary and confidential information,
 including trade secrets, belonging to Gaussian, Inc.
  
 This software is provided under written license and may be
 used, copied, transmitted, or stored only in accord with that
 written license.
  
 The following legend is applicable only to US Government
 contracts under FAR:
  
                    RESTRICTED RIGHTS LEGEND
  
 Use, reproduction and disclosure by the US Government is
 subject to restrictions as set forth in subparagraphs (a)
 and (c) of the Commercial Computer Software - Restricted
 Rights clause in FAR 52.227-19.
  
 Gaussian, Inc.
 340 Quinnipiac St., Bldg. 40, Wallingford CT 06492
  
  
 ---------------------------------------------------------------
 Warning -- This program may not be used in any manner that
 competes with the business of Gaussian, Inc. or will provide
 assistance to any competitor of Gaussian, Inc.  The licensee
 of this program is prohibited from giving any competitor of
 Gaussian, Inc. access to this program.  By using this program,
 the user acknowledges that Gaussian, Inc. is engaged in the
 business of creating and licensing software in the field of
 computational chemistry and represents and warrants to the
 licensee that it is not a competitor of Gaussian, Inc. and that
 it will not use this program in any manner prohibited above.
 ---------------------------------------------------------------
  

 Cite this work as:
 Gaussian 09, Revision B.01,
 M. J. Frisch, G. W. Trucks, H. B. Schlegel, G. E. Scuseria, 
 M. A. Robb, J. R. Cheeseman, G. Scalmani, V. Barone, B. Mennucci, 
 G. A. Petersson, H. Nakatsuji, M. Caricato, X. Li, H. P. Hratchian, 
 A. F. Izmaylov, J. Bloino, G. Zheng, J. L. Sonnenberg, M. Hada, 
 M. Ehara, K. Toyota, R. Fukuda, J. Hasegawa, M. Ishida, T. Nakajima, 
 Y. Honda, O. Kitao, H. Nakai, T. Vreven, J. A. Montgomery, Jr., 
 J. E. Peralta, F. Ogliaro, M. Bearpark, J. J. Heyd, E. Brothers, 
 K. N. Kudin, V. N. Staroverov, T. Keith, R. Kobayashi, J. Normand, 
 K. Raghavachari, A. Rendell, J. C. Burant, S. S. Iyengar, J. Tomasi, 
 M. Cossi, N. Rega, J. M. Millam, M. Klene, J. E. Knox, J. B. Cross, 
 V. Bakken, C. Adamo, J. Jaramillo, R. Gomperts, R. E. Stratmann, 
 O. Yazyev, A. J. Austin, R. Cammi, C. Pomelli, J. W. Ochterski, 
 R. L. Martin, K. Morokuma, V. G. Zakrzewski, G. A. Voth, 
 P. Salvador, J. J. Dannenberg, S. Dapprich, A. D. Daniels, 
 O. Farkas, J. B. Foresman, J. V. Ortiz, J. Cioslowski, 
 and D. J. Fox, Gaussian, Inc., Wallingford CT, 2010.
 
 ******************************************
 Gaussian 09:  EM64L-G09RevB.01 12-Aug-2010
                10-Aug-2021 
 ******************************************
 %nproc=8
 Will use up to    8 processors via shared memory.
 %mem=8GB
 -----------------------------------------------------
 # QCISD aug-cc-pvtz nosymm density=current output=wfn
 -----------------------------------------------------
 1/30=1,38=1/1;
 2/12=2,15=1,17=6,18=5,40=1/2;
 3/5=16,6=1,7=10,11=9,16=1,25=1,30=1,71=1/1,2,3;
 4//1;
 5/5=2,38=5/2;
 8/6=4,9=120000,10=1/1,4;
 9/5=8,15=1/13;
 11/28=-7,31=1,32=3,42=3/11;
 10/5=6,13=10,31=1/2;
 6/7=2,8=2,9=2,10=2,22=-1,31=1/1;
 99/5=1,6=1100,9=1/99;
 ----------
 title line
 ----------
 Symbolic Z-matrix:
 Charge = -1 Multiplicity = 1
 C                     0.00018   0.00003  -0.49771 
 H                     0.00002  -1.04257  -0.62073 
 H                    -0.91131   0.52637  -0.62125 
 H                     0.91175   0.52613  -0.62157 
 Cl                    0.00056   0.00096   1.64472 
 F                    -0.00019  -0.00092  -2.59346 
 
                          Input orientation:                          
 ---------------------------------------------------------------------
 Center     Atomic      Atomic             Coordinates (Angstroms)
 Number     Number       Type             X           Y           Z
 ---------------------------------------------------------------------
      1          6           0        0.000175    0.000029   -0.497709
      2          1           0        0.000019   -1.042570   -0.620726
      3          1           0       -0.911312    0.526365   -0.621245
      4          1           0        0.911750    0.526132   -0.621570
      5         17           0        0.000555    0.000962    1.644718
      6          9           0       -0.000186   -0.000921   -2.593460
 ---------------------------------------------------------------------
                    Distance matrix (angstroms):
                    1          2          3          4          5
     1  C    0.000000
     2  H    1.049831   0.000000
     3  H    1.059764   1.814409   0.000000
     4  H    1.059762   1.814409   1.823062   0.000000
     5  Cl   2.142427   2.494233   2.498427   2.498428   0.000000
     6  F    2.095751   2.230855   2.235579   2.235568   4.238178
                    6
     6  F    0.000000
 Symmetry turned off by external request.
 Stoichiometry    CH3ClF(1-)
 Framework group  C1[X(CH3ClF)]
 Deg. of freedom    12
 Full point group                 C1      NOp   1
 Rotational constants (GHZ):    151.8362652      2.2149349      2.2147300
 Standard basis: Aug-CC-pVTZ (5D, 7F)
 Integral buffers will be    131072 words long.
 Raffenetti 1 integral format.
 Two-electron integral symmetry is turned off.
   211 basis functions,   339 primitive gaussians,   244 cartesian basis functions
    18 alpha electrons       18 beta electrons
       nuclear repulsion energy        85.0260396022 Hartrees.
 NAtoms=    6 NActive=    6 NUniq=    6 SFac= 1.00D+00 NAtFMM=   50 NAOKFM=F Big=F
 One-electron integrals computed using PRISM.
 NBasis=   211 RedAO= T  NBF=   211
 NBsUse=   211 1.00D-06 NBFU=   211
 Harris functional with IExCor=  205 diagonalized for initial guess.
 ExpMin= 2.53D-02 ExpMax= 4.56D+05 ExpMxC= 1.44D+03 IAcc=3 IRadAn=         0 AccDes= 0.00D+00
 HarFok:  IExCor=  205 AccDes= 0.00D+00 IRadAn=         0 IDoV= 1
 ScaDFX=  1.000000  1.000000  1.000000  1.000000
 FoFCou: FMM=F IPFlag=           0 FMFlag=      100000 FMFlg1=           0
         NFxFlg=           0 DoJE=T BraDBF=F KetDBF=T FulRan=T
         Omega=  0.000000  0.000000  1.000000  0.000000  0.000000 ICntrl=     500 IOpCl=  0
         NMat0=    1 NMatS0=    1 NMatT0=    0 NMatD0=    1 NMtDS0=    0 NMtDT0=    0
         I1Cent=           4 NGrid=           0.
 Symmetry not used in FoFCou.
 Requested convergence on RMS density matrix=1.00D-08 within 128 cycles.
 Requested convergence on MAX density matrix=1.00D-06.
 Requested convergence on             energy=1.00D-06.
 No special actions if energy rises.
 Keep R1 ints in memory in canonical form, NReq=454274131.
 SCF Done:  E(RHF) =  -598.617047188     A.U. after   12 cycles
             Convg  =    0.9465D-08             -V/T =  2.0001
 ExpMin= 2.53D-02 ExpMax= 4.56D+05 ExpMxC= 1.44D+03 IAcc=3 IRadAn=         5 AccDes= 0.00D+00
 HarFok:  IExCor=  205 AccDes= 0.00D+00 IRadAn=         5 IDoV=-2
 ScaDFX=  1.000000  1.000000  1.000000  1.000000
 DSYEVD returned Info=         101 IAlg= 4 N=    50 NDim=    50 NE2=    21472034 trying DSYEV.
 Range of M.O.s used for correlation:     8   211
 NBasis=   211 NAE=    18 NBE=    18 NFC=     7 NFV=     0
 NROrb=    204 NOA=    11 NOB=    11 NVA=   193 NVB=   193

 **** Warning!!: The largest alpha MO coefficient is  0.35068512D+02

 Semi-Direct transformation.
 ModeAB=           2 MOrb=            11 LenV=    1072528222
 LASXX=     44979418 LTotXX=    44979418 LenRXX=    44979418
 LTotAB=    45631872 MaxLAS=    67073160 LenRXY=    67073160
 NonZer=    89958836 LenScr=   135708672 LnRSAI=           0
 LnScr1=           0 LExtra=           0 Total=    247761250
 MaxDsk=          -1 SrtSym=           F ITran=            4
 JobTyp=0 Pass  1:  I=   1 to  11.
 (rs|ai) integrals will be sorted in core.
 Spin components of T(2) and E(2):
     alpha-alpha T2 =       0.2565396919D-01 E2=     -0.8206568856D-01
     alpha-beta  T2 =       0.1450967580D+00 E2=     -0.5098626141D+00
     beta-beta   T2 =       0.2565396919D-01 E2=     -0.8206568856D-01
 ANorm=    0.1093802860D+01
 E2 =    -0.6739939912D+00 EUMP2 =    -0.59929104117915D+03
 R2 and R3 integrals will be kept in memory, NReq=   900794930.
 Iterations=  50 Convergence= 0.100D-07
 Iteration Nr.   1
 **********************
 DD1Dir will call FoFMem   1 times, MxPair=       132
 NAB=    66 NAA=     0 NBB=     0.
 MP4(R+Q)=  0.14425022D-01
 E3=       -0.18713364D-01        EUMP3=      -0.59930975454D+03
 E4(DQ)=   -0.44572712D-03        UMP4(DQ)=   -0.59931020027D+03
 E4(SDQ)=  -0.98002563D-02        UMP4(SDQ)=  -0.59931955480D+03
 DE(Corr)= -0.67828233     E(Corr)=     -599.29532952    
 NORM(A)=   0.10995836D+01
 Iteration Nr.   2
 **********************
 DD1Dir will call FoFMem   1 times, MxPair=       132
 NAB=    66 NAA=     0 NBB=     0.
 DE(Corr)= -0.70045484     E(CORR)=     -599.31750203     Delta=-2.22D-02
 NORM(A)=   0.11069219D+01
 Iteration Nr.   3
 **********************
 DD1Dir will call FoFMem   1 times, MxPair=       132
 NAB=    66 NAA=     0 NBB=     0.
 DE(Corr)= -0.69805851     E(CORR)=     -599.31510570     Delta= 2.40D-03
 NORM(A)=   0.11108999D+01
 Iteration Nr.   4
 **********************
 DD1Dir will call FoFMem   1 times, MxPair=       132
 NAB=    66 NAA=     0 NBB=     0.
 DE(Corr)= -0.70111211     E(CORR)=     -599.31815930     Delta=-3.05D-03
 NORM(A)=   0.11130034D+01
 Iteration Nr.   5
 **********************
 DD1Dir will call FoFMem   1 times, MxPair=       132
 NAB=    66 NAA=     0 NBB=     0.
 DE(Corr)= -0.70170669     E(CORR)=     -599.31875388     Delta=-5.95D-04
 NORM(A)=   0.11140335D+01
 Iteration Nr.   6
 **********************
 DD1Dir will call FoFMem   1 times, MxPair=       132
 NAB=    66 NAA=     0 NBB=     0.
 DE(Corr)= -0.70185332     E(CORR)=     -599.31890051     Delta=-1.47D-04
 NORM(A)=   0.11143583D+01
 Iteration Nr.   7
 **********************
 DD1Dir will call FoFMem   1 times, MxPair=       132
 NAB=    66 NAA=     0 NBB=     0.
 DE(Corr)= -0.70188294     E(CORR)=     -599.31893013     Delta=-2.96D-05
 NORM(A)=   0.11143892D+01
 Iteration Nr.   8
 **********************
 DD1Dir will call FoFMem   1 times, MxPair=       132
 NAB=    66 NAA=     0 NBB=     0.
 DE(Corr)= -0.70189679     E(CORR)=     -599.31894398     Delta=-1.38D-05
 NORM(A)=   0.11144070D+01
 Iteration Nr.   9
 **********************
 DD1Dir will call FoFMem   1 times, MxPair=       132
 NAB=    66 NAA=     0 NBB=     0.
 DE(Corr)= -0.70187363     E(CORR)=     -599.31892081     Delta= 2.32D-05
 NORM(A)=   0.11144102D+01
 Iteration Nr.  10
 **********************
 DD1Dir will call FoFMem   1 times, MxPair=       132
 NAB=    66 NAA=     0 NBB=     0.
 DE(Corr)= -0.70189290     E(CORR)=     -599.31894009     Delta=-1.93D-05
 NORM(A)=   0.11144104D+01
 Iteration Nr.  11
 **********************
 DD1Dir will call FoFMem   1 times, MxPair=       132
 NAB=    66 NAA=     0 NBB=     0.
 DE(Corr)= -0.70188373     E(CORR)=     -599.31893091     Delta= 9.17D-06
 NORM(A)=   0.11144133D+01
 Iteration Nr.  12
 **********************
 DD1Dir will call FoFMem   1 times, MxPair=       132
 NAB=    66 NAA=     0 NBB=     0.
 DE(Corr)= -0.70188747     E(CORR)=     -599.31893466     Delta=-3.74D-06
 NORM(A)=   0.11144137D+01
 Iteration Nr.  13
 **********************
 DD1Dir will call FoFMem   1 times, MxPair=       132
 NAB=    66 NAA=     0 NBB=     0.
 DE(Corr)= -0.70188803     E(CORR)=     -599.31893522     Delta=-5.64D-07
 NORM(A)=   0.11144144D+01
 Iteration Nr.  14
 **********************
 DD1Dir will call FoFMem   1 times, MxPair=       132
 NAB=    66 NAA=     0 NBB=     0.
 DE(Corr)= -0.70188825     E(CORR)=     -599.31893544     Delta=-2.22D-07
 NORM(A)=   0.11144145D+01
 Iteration Nr.  15
 **********************
 DD1Dir will call FoFMem   1 times, MxPair=       132
 NAB=    66 NAA=     0 NBB=     0.
 DE(Corr)= -0.70188816     E(CORR)=     -599.31893535     Delta= 9.02D-08
 NORM(A)=   0.11144145D+01
 Iteration Nr.  16
 **********************
 DD1Dir will call FoFMem   1 times, MxPair=       132
 NAB=    66 NAA=     0 NBB=     0.
 DE(Corr)= -0.70188837     E(CORR)=     -599.31893555     Delta=-2.02D-07
 NORM(A)=   0.11144143D+01
 Iteration Nr.  17
 **********************
 DD1Dir will call FoFMem   1 times, MxPair=       132
 NAB=    66 NAA=     0 NBB=     0.
 DE(Corr)= -0.70188824     E(CORR)=     -599.31893542     Delta= 1.30D-07
 NORM(A)=   0.11144142D+01
 Iteration Nr.  18
 **********************
 DD1Dir will call FoFMem   1 times, MxPair=       132
 NAB=    66 NAA=     0 NBB=     0.
 DE(Corr)= -0.70188827     E(CORR)=     -599.31893546     Delta=-3.67D-08
 NORM(A)=   0.11144140D+01
 Iteration Nr.  19
 **********************
 DD1Dir will call FoFMem   1 times, MxPair=       132
 NAB=    66 NAA=     0 NBB=     0.
 DE(Corr)= -0.70188822     E(CORR)=     -599.31893541     Delta= 5.25D-08
 NORM(A)=   0.11144140D+01
 Iteration Nr.  20
 **********************
 DD1Dir will call FoFMem   1 times, MxPair=       132
 NAB=    66 NAA=     0 NBB=     0.
 DE(Corr)= -0.70188822     E(CORR)=     -599.31893541     Delta=-2.70D-09
 NORM(A)=   0.11144139D+01
 Iteration Nr.  21
 **********************
 DD1Dir will call FoFMem   1 times, MxPair=       132
 NAB=    66 NAA=     0 NBB=     0.
 DE(Corr)= -0.70188820     E(CORR)=     -599.31893539     Delta= 1.96D-08
 NORM(A)=   0.11144139D+01
 Iteration Nr.  22
 **********************
 DD1Dir will call FoFMem   1 times, MxPair=       132
 NAB=    66 NAA=     0 NBB=     0.
 DE(Corr)= -0.70188820     E(CORR)=     -599.31893539     Delta= 2.43D-09
 NORM(A)=   0.11144138D+01
 Iteration Nr.  23
 **********************
 DD1Dir will call FoFMem   1 times, MxPair=       132
 NAB=    66 NAA=     0 NBB=     0.
 DE(Corr)= -0.70188820     E(CORR)=     -599.31893538     Delta= 5.49D-09
 NORM(A)=   0.11144138D+01
 Iteration Nr.  24
 **********************
 DD1Dir will call FoFMem   1 times, MxPair=       132
 NAB=    66 NAA=     0 NBB=     0.
 DE(Corr)= -0.70188820     E(CORR)=     -599.31893538     Delta=-1.08D-09
 NORM(A)=   0.11144138D+01
 Iteration Nr.  25
 **********************
 DD1Dir will call FoFMem   1 times, MxPair=       132
 NAB=    66 NAA=     0 NBB=     0.
 DE(Corr)= -0.70188819     E(CORR)=     -599.31893538     Delta= 4.48D-09
 NORM(A)=   0.11144138D+01
 Iteration Nr.  26
 **********************
 DD1Dir will call FoFMem   1 times, MxPair=       132
 NAB=    66 NAA=     0 NBB=     0.
 DE(Corr)= -0.70188820     E(CORR)=     -599.31893538     Delta=-3.92D-09
 NORM(A)=   0.11144138D+01
 Iteration Nr.  27
 **********************
 DD1Dir will call FoFMem   1 times, MxPair=       132
 NAB=    66 NAA=     0 NBB=     0.
 DE(Corr)= -0.70188819     E(CORR)=     -599.31893538     Delta= 3.59D-09
 NORM(A)=   0.11144138D+01
 Iteration Nr.  28
 **********************
 DD1Dir will call FoFMem   1 times, MxPair=       132
 NAB=    66 NAA=     0 NBB=     0.
 DE(Corr)= -0.70188820     E(CORR)=     -599.31893538     Delta=-3.81D-09
 NORM(A)=   0.11144138D+01
 Largest amplitude= 6.61D-02

 Z-AMPLITUDE ITERATIONS

 Iteration Nr.   1
 **********************
 DD1Dir will call FoFMem   1 times, MxPair=       132
 NAB=    66 NAA=     0 NBB=     0.
 DE(Z)  -0.68251826D+00          E(Z)=    -0.59929956545D+03
 NORM(A)=   0.11146240D+01
 Iteration Nr.   2
 **********************
 DD1Dir will call FoFMem   1 times, MxPair=       132
 NAB=    66 NAA=     0 NBB=     0.
 DE(Z)  -0.68254134D+00          E(Z)=    -0.59929958852D+03
 NORM(A)=   0.11779088D+01
 Iteration Nr.   3
 **********************
 DD1Dir will call FoFMem   1 times, MxPair=       132
 NAB=    66 NAA=     0 NBB=     0.
 DE(Z)  -0.68777097D+00          E(Z)=    -0.59930481815D+03
 NORM(A)=   0.11146689D+01
 Iteration Nr.   4
 **********************
 DD1Dir will call FoFMem   1 times, MxPair=       132
 NAB=    66 NAA=     0 NBB=     0.
 DE(Z)  -0.68254374D+00          E(Z)=    -0.59929959093D+03
 NORM(A)=   0.11139130D+01
 Iteration Nr.   5
 **********************
 DD1Dir will call FoFMem   1 times, MxPair=       132
 NAB=    66 NAA=     0 NBB=     0.
 DE(Z)  -0.68246927D+00          E(Z)=    -0.59929951645D+03
 NORM(A)=   0.11077703D+01
 Iteration Nr.   6
 **********************
 DD1Dir will call FoFMem   1 times, MxPair=       132
 NAB=    66 NAA=     0 NBB=     0.
 DE(Z)  -0.68184966D+00          E(Z)=    -0.59929889685D+03
 NORM(A)=   0.11077649D+01
 Iteration Nr.   7
 **********************
 DD1Dir will call FoFMem   1 times, MxPair=       132
 NAB=    66 NAA=     0 NBB=     0.
 DE(Z)  -0.68185314D+00          E(Z)=    -0.59929890033D+03
 NORM(A)=   0.11077601D+01
 Iteration Nr.   8
 **********************
 DD1Dir will call FoFMem   1 times, MxPair=       132
 NAB=    66 NAA=     0 NBB=     0.
 DE(Z)  -0.68184991D+00          E(Z)=    -0.59929889710D+03
 NORM(A)=   0.11077566D+01
 Iteration Nr.   9
 **********************
 DD1Dir will call FoFMem   1 times, MxPair=       132
 NAB=    66 NAA=     0 NBB=     0.
 DE(Z)  -0.68185025D+00          E(Z)=    -0.59929889744D+03
 NORM(A)=   0.11077554D+01
 Iteration Nr.  10
 **********************
 DD1Dir will call FoFMem   1 times, MxPair=       132
 NAB=    66 NAA=     0 NBB=     0.
 DE(Z)  -0.68184999D+00          E(Z)=    -0.59929889718D+03
 NORM(A)=   0.11077551D+01
 Iteration Nr.  11
 **********************
 DD1Dir will call FoFMem   1 times, MxPair=       132
 NAB=    66 NAA=     0 NBB=     0.
 DE(Z)  -0.68185002D+00          E(Z)=    -0.59929889721D+03
 NORM(A)=   0.11077549D+01
 Iteration Nr.  12
 **********************
 DD1Dir will call FoFMem   1 times, MxPair=       132
 NAB=    66 NAA=     0 NBB=     0.
 DE(Z)  -0.68185008D+00          E(Z)=    -0.59929889727D+03
 NORM(A)=   0.11077550D+01
 Iteration Nr.  13
 **********************
 DD1Dir will call FoFMem   1 times, MxPair=       132
 NAB=    66 NAA=     0 NBB=     0.
 DE(Z)  -0.68185011D+00          E(Z)=    -0.59929889730D+03
 NORM(A)=   0.11077550D+01
 Iteration Nr.  14
 **********************
 DD1Dir will call FoFMem   1 times, MxPair=       132
 NAB=    66 NAA=     0 NBB=     0.
 DE(Z)  -0.68185009D+00          E(Z)=    -0.59929889727D+03
 NORM(A)=   0.11077550D+01
 Iteration Nr.  15
 **********************
 DD1Dir will call FoFMem   1 times, MxPair=       132
 NAB=    66 NAA=     0 NBB=     0.
 DE(Z)  -0.68185011D+00          E(Z)=    -0.59929889730D+03
 NORM(A)=   0.11077550D+01
 Iteration Nr.  16
 **********************
 DD1Dir will call FoFMem   1 times, MxPair=       132
 NAB=    66 NAA=     0 NBB=     0.
 DE(Z)  -0.68185011D+00          E(Z)=    -0.59929889730D+03
 NORM(A)=   0.11077550D+01
 Iteration Nr.  17
 **********************
 DD1Dir will call FoFMem   1 times, MxPair=       132
 NAB=    66 NAA=     0 NBB=     0.
 DE(Z)  -0.68185011D+00          E(Z)=    -0.59929889730D+03
 NORM(A)=   0.11077550D+01
 Iteration Nr.  18
 **********************
 DD1Dir will call FoFMem   1 times, MxPair=       132
 NAB=    66 NAA=     0 NBB=     0.
 DE(Z)  -0.68185011D+00          E(Z)=    -0.59929889730D+03
 NORM(A)=   0.11077550D+01
 Iteration Nr.  19
 **********************
 DD1Dir will call FoFMem   1 times, MxPair=       132
 NAB=    66 NAA=     0 NBB=     0.
 DE(Z)  -0.68185011D+00          E(Z)=    -0.59929889730D+03
 NORM(A)=   0.11077550D+01
 Iteration Nr.  20
 **********************
 DD1Dir will call FoFMem   1 times, MxPair=       132
 NAB=    66 NAA=     0 NBB=     0.
 DE(Z)  -0.68185011D+00          E(Z)=    -0.59929889729D+03
 NORM(A)=   0.11077548D+01
 Iteration Nr.  21
 **********************
 DD1Dir will call FoFMem   1 times, MxPair=       132
 NAB=    66 NAA=     0 NBB=     0.
 DE(Z)  -0.68185011D+00          E(Z)=    -0.59929889730D+03
 NORM(A)=   0.11077550D+01
 Iteration Nr.  22
 **********************
 DD1Dir will call FoFMem   1 times, MxPair=       132
 NAB=    66 NAA=     0 NBB=     0.
 DE(Z)  -0.68185011D+00          E(Z)=    -0.59929889729D+03
 NORM(A)=   0.11077550D+01
 Discarding MO integrals.
          Differentiating once with respect to electric field.
                with respect to dipole field.
          Electric field/nuclear overlap derivatives assumed to be zero.
          Keep R1 ints in memory in canonical form, NReq=448662239.
          There are     1 degrees of freedom in the 1st order CPHF.  IDoFFX=0.
 LinEq1:  Iter=  0 NonCon=     1 RMS=3.11D-03 Max=1.20D-01
 AX will form     1 AO Fock derivatives at one time.
 LinEq1:  Iter=  1 NonCon=     1 RMS=6.92D-04 Max=9.42D-03
 LinEq1:  Iter=  2 NonCon=     1 RMS=2.29D-04 Max=5.70D-03
 LinEq1:  Iter=  3 NonCon=     1 RMS=9.49D-05 Max=1.45D-03
 LinEq1:  Iter=  4 NonCon=     1 RMS=3.83D-05 Max=4.07D-04
 LinEq1:  Iter=  5 NonCon=     1 RMS=1.06D-05 Max=2.25D-04
 LinEq1:  Iter=  6 NonCon=     1 RMS=2.41D-06 Max=4.23D-05
 LinEq1:  Iter=  7 NonCon=     1 RMS=6.03D-07 Max=9.11D-06
 LinEq1:  Iter=  8 NonCon=     1 RMS=1.49D-07 Max=1.80D-06
 LinEq1:  Iter=  9 NonCon=     1 RMS=3.02D-08 Max=7.43D-07
 LinEq1:  Iter= 10 NonCon=     1 RMS=6.51D-09 Max=8.86D-08
 LinEq1:  Iter= 11 NonCon=     1 RMS=1.05D-09 Max=1.16D-08
 LinEq1:  Iter= 12 NonCon=     1 RMS=1.68D-10 Max=2.85D-09
 LinEq1:  Iter= 13 NonCon=     0 RMS=2.39D-11 Max=3.19D-10
 Linear equations converged to 1.000D-10 1.000D-09 after    13 iterations.
 End of Minotr Frequency-dependent properties file   721 does not exist.
 End of Minotr Frequency-dependent properties file   722 does not exist.

 **********************************************************************

            Population analysis using the QCI/CC density.

 **********************************************************************

     Natural Orbital Coefficients:
                           1         2         3         4         5
     Eigenvalues --     2.00003   2.00003   2.00002   2.00001   2.00001
   1 1   C  1S          0.00000   0.00004  -0.04324   0.08148   0.97610
   2        2S          0.00000  -0.00001   0.00131   0.00048  -0.01333
   3        3S          0.00000   0.00000  -0.00132   0.00404   0.03988
   4        4S          0.00000  -0.00016  -0.01270  -0.02374   0.00300
   5        5S          0.00000  -0.00001  -0.00121  -0.00064  -0.00065
   6        6PX         0.00005   0.00000   0.00000   0.00000   0.00000
   7        6PY         0.00000   0.00005   0.00000   0.00000   0.00004
   8        6PZ         0.00000   0.00000   0.00053   0.00168   0.00087
   9        7PX         0.00085   0.00000   0.00000   0.00000   0.00000
  10        7PY         0.00000   0.00088   0.00003   0.00005  -0.00007
  11        7PZ         0.00000  -0.00001   0.00142   0.00305  -0.00092
  12        8PX         0.00456   0.00000   0.00000   0.00000   0.00000
  13        8PY         0.00000   0.00462   0.00005   0.00011  -0.00008
  14        8PZ         0.00000   0.00002  -0.00374  -0.00413  -0.00308
  15        9PX         0.00042   0.00000   0.00000   0.00000   0.00000
  16        9PY         0.00000   0.00042   0.00000   0.00000   0.00001
  17        9PZ         0.00000   0.00000   0.00021   0.00017  -0.00049
  18       10D 0        0.00000   0.00000   0.00011   0.00033  -0.00058
  19       10D+1       -0.00015   0.00000   0.00000   0.00000   0.00000
  20       10D-1        0.00000  -0.00015   0.00000   0.00000   0.00000
  21       10D+2        0.00000   0.00004   0.00000   0.00000  -0.00001
  22       10D-2        0.00004   0.00000   0.00000   0.00000   0.00000
  23       11D 0        0.00000   0.00000   0.00021  -0.00009  -0.00026
  24       11D+1        0.00025   0.00000   0.00000   0.00000   0.00000
  25       11D-1        0.00000   0.00026  -0.00001  -0.00002   0.00002
  26       11D+2        0.00000   0.00102   0.00002   0.00003  -0.00005
  27       11D-2        0.00102   0.00000   0.00000   0.00000   0.00000
  28       12D 0        0.00000   0.00000  -0.00078   0.00122  -0.00238
  29       12D+1       -0.00131   0.00000   0.00000   0.00000   0.00000
  30       12D-1        0.00000  -0.00131   0.00001   0.00001   0.00000
  31       12D+2        0.00000   0.00163   0.00001   0.00002  -0.00002
  32       12D-2        0.00163   0.00000   0.00000   0.00000   0.00000
  33       13F 0        0.00000   0.00000   0.00001   0.00003   0.00019
  34       13F+1       -0.00019   0.00000   0.00000   0.00000   0.00000
  35       13F-1        0.00000  -0.00019   0.00000   0.00000   0.00000
  36       13F+2        0.00000   0.00002   0.00000   0.00000   0.00000
  37       13F-2        0.00002   0.00000   0.00000   0.00000   0.00000
  38       13F+3        0.00000   0.00000   0.00000   0.00000   0.00000
  39       13F-3        0.00000   0.00000  -0.00006   0.00007   0.00091
  40       14F 0        0.00000   0.00000  -0.00113  -0.00216  -0.00018
  41       14F+1        0.00058   0.00000   0.00000   0.00000   0.00000
  42       14F-1        0.00000   0.00058   0.00000   0.00000   0.00001
  43       14F+2        0.00000   0.00034   0.00000  -0.00001   0.00001
  44       14F-2        0.00035   0.00000   0.00000   0.00000   0.00000
  45       14F+3        0.00000   0.00000   0.00000   0.00000   0.00000
  46       14F-3        0.00000  -0.00001  -0.00086  -0.00136  -0.00194
  47 2   H  1S          0.00000  -0.00015  -0.00001  -0.00036  -0.00140
  48        2S          0.00000   0.00126   0.00250   0.00342  -0.00078
  49        3S          0.00000   0.00891   0.00195   0.00556  -0.00454
  50        4S          0.00000  -0.00027   0.00012   0.00010  -0.00013
  51        5PX         0.00000   0.00000   0.00000   0.00000   0.00000
  52        5PY         0.00000   0.00003   0.00005  -0.00002  -0.00049
  53        5PZ         0.00000   0.00001   0.00001   0.00002  -0.00009
  54        6PX         0.00020   0.00000   0.00000   0.00000   0.00000
  55        6PY         0.00000   0.00067   0.00046   0.00071  -0.00088
  56        6PZ         0.00000   0.00064  -0.00002  -0.00011   0.00025
  57        7PX         0.00094   0.00000   0.00000   0.00000   0.00000
  58        7PY         0.00000   0.00213   0.00057   0.00140  -0.00107
  59        7PZ         0.00000   0.00027   0.00048   0.00095  -0.00007
  60        8D 0        0.00000   0.00004   0.00001   0.00006   0.00013
  61        8D+1       -0.00002   0.00000   0.00000   0.00000   0.00000
  62        8D-1        0.00000   0.00010   0.00002   0.00005  -0.00004
  63        8D+2        0.00000  -0.00005  -0.00004  -0.00006   0.00027
  64        8D-2        0.00001   0.00000   0.00000   0.00000   0.00000
  65        9D 0        0.00000   0.00040   0.00015   0.00025   0.00066
  66        9D+1        0.00026   0.00000   0.00000   0.00000   0.00000
  67        9D-1        0.00000   0.00013  -0.00014  -0.00026   0.00001
  68        9D+2        0.00000  -0.00013   0.00001   0.00002  -0.00008
  69        9D-2        0.00012   0.00000   0.00000   0.00000   0.00000
  70 3   H  1S         -0.00014   0.00008  -0.00002  -0.00036  -0.00134
  71        2S          0.00104  -0.00060   0.00243   0.00330  -0.00054
  72        3S          0.00757  -0.00439   0.00179   0.00521  -0.00423
  73        4S         -0.00023   0.00014   0.00011   0.00009  -0.00013
  74        5PX         0.00003  -0.00001   0.00004  -0.00002  -0.00041
  75        5PY        -0.00001   0.00001  -0.00002   0.00001   0.00024
  76        5PZ         0.00001  -0.00001   0.00001   0.00001  -0.00009
  77        6PX         0.00054  -0.00021   0.00039   0.00060  -0.00066
  78        6PY        -0.00021   0.00031  -0.00022  -0.00034   0.00037
  79        6PZ         0.00054  -0.00031  -0.00001  -0.00010   0.00025
  80        7PX         0.00181  -0.00052   0.00046   0.00116  -0.00086
  81        7PY        -0.00051   0.00122  -0.00026  -0.00065   0.00047
  82        7PZ         0.00023  -0.00014   0.00047   0.00092  -0.00006
  83        8D 0        0.00003  -0.00002   0.00001   0.00007   0.00014
  84        8D+1        0.00007  -0.00005   0.00002   0.00004  -0.00003
  85        8D-1       -0.00005   0.00001  -0.00001  -0.00002   0.00002
  86        8D+2        0.00003  -0.00001   0.00002   0.00003  -0.00014
  87        8D-2       -0.00003   0.00003  -0.00003  -0.00004   0.00024
  88        9D 0        0.00034  -0.00019   0.00015   0.00025   0.00063
  89        9D+1        0.00016   0.00005  -0.00012  -0.00022   0.00001
  90        9D-1        0.00005   0.00022   0.00007   0.00013   0.00000
  91        9D+2        0.00011   0.00006   0.00000  -0.00001   0.00005
  92        9D-2       -0.00007   0.00011   0.00001   0.00003  -0.00009
  93 4   H  1S          0.00014   0.00008  -0.00002  -0.00036  -0.00134
  94        2S         -0.00104  -0.00060   0.00243   0.00330  -0.00054
  95        3S         -0.00756  -0.00439   0.00179   0.00521  -0.00423
  96        4S          0.00023   0.00014   0.00011   0.00009  -0.00013
  97        5PX         0.00003   0.00001  -0.00004   0.00002   0.00041
  98        5PY         0.00001   0.00001  -0.00002   0.00001   0.00024
  99        5PZ        -0.00001  -0.00001   0.00001   0.00001  -0.00009
 100        6PX         0.00054   0.00021  -0.00039  -0.00060   0.00066
 101        6PY         0.00021   0.00031  -0.00022  -0.00034   0.00037
 102        6PZ        -0.00054  -0.00031  -0.00001  -0.00010   0.00025
 103        7PX         0.00181   0.00052  -0.00046  -0.00116   0.00086
 104        7PY         0.00051   0.00122  -0.00026  -0.00065   0.00047
 105        7PZ        -0.00023  -0.00014   0.00047   0.00092  -0.00006
 106        8D 0       -0.00003  -0.00002   0.00001   0.00007   0.00014
 107        8D+1        0.00007   0.00005  -0.00002  -0.00004   0.00003
 108        8D-1        0.00005   0.00001  -0.00001  -0.00002   0.00002
 109        8D+2       -0.00003  -0.00001   0.00002   0.00003  -0.00014
 110        8D-2       -0.00003  -0.00003   0.00003   0.00004  -0.00024
 111        9D 0       -0.00034  -0.00019   0.00015   0.00025   0.00063
 112        9D+1        0.00016  -0.00005   0.00012   0.00022  -0.00001
 113        9D-1       -0.00005   0.00022   0.00007   0.00013   0.00000
 114        9D+2       -0.00011   0.00006   0.00000  -0.00001   0.00005
 115        9D-2       -0.00007  -0.00011  -0.00001  -0.00003   0.00009
 116 5   Cl 1S          0.00000  -0.00009  -0.25050   0.14813  -0.02300
 117        2S          0.00000   0.00032   0.84560  -0.50071   0.07882
 118        3S          0.00000  -0.00001  -0.02309   0.00934  -0.00240
 119        4S          0.00000   0.00002   0.06652  -0.04080   0.00648
 120        5S          0.00000  -0.00001  -0.00210   0.00779   0.00351
 121        6S          0.00000   0.00000  -0.00154  -0.00211   0.00302
 122        7PX         0.97887   0.00029   0.00009   0.00015  -0.00001
 123        7PY        -0.00029   0.97886   0.00015   0.00086  -0.00011
 124        7PZ        -0.00017  -0.00082   0.50139   0.83552  -0.04812
 125        8PX        -0.01915  -0.00001   0.00000   0.00000   0.00000
 126        8PY         0.00001  -0.01915   0.00000  -0.00001   0.00000
 127        8PZ         0.00000   0.00002  -0.00880  -0.01404   0.00012
 128        9PX         0.05233   0.00002   0.00001   0.00001   0.00000
 129        9PY        -0.00002   0.05233   0.00001   0.00005  -0.00001
 130        9PZ        -0.00001  -0.00004   0.02847   0.04952  -0.00273
 131       10PX        -0.00578   0.00000   0.00000   0.00000   0.00000
 132       10PY         0.00000  -0.00578   0.00000   0.00000   0.00000
 133       10PZ         0.00000   0.00001  -0.00435  -0.00277  -0.00347
 134       11PX        -0.00214   0.00000   0.00000   0.00000   0.00000
 135       11PY         0.00000  -0.00214   0.00000   0.00000   0.00000
 136       11PZ         0.00000   0.00000  -0.00036  -0.00015  -0.00053
 137       12D 0        0.00000   0.00000   0.00001  -0.00051  -0.00017
 138       12D+1       -0.00032   0.00000   0.00000   0.00000   0.00000
 139       12D-1        0.00000  -0.00032   0.00000   0.00000   0.00000
 140       12D+2        0.00000   0.00001   0.00000   0.00000   0.00000
 141       12D-2        0.00001   0.00000   0.00000   0.00000   0.00000
 142       13D 0        0.00000   0.00000   0.00088   0.00244   0.00041
 143       13D+1        0.00081   0.00000   0.00000   0.00000   0.00000
 144       13D-1        0.00000   0.00081   0.00000   0.00000   0.00000
 145       13D+2        0.00000  -0.00002   0.00000   0.00000   0.00000
 146       13D-2       -0.00002   0.00000   0.00000   0.00000   0.00000
 147       14D 0        0.00000   0.00000   0.00058  -0.00017   0.00080
 148       14D+1       -0.00071   0.00000   0.00000   0.00000   0.00000
 149       14D-1        0.00000  -0.00071   0.00000   0.00000   0.00000
 150       14D+2        0.00000   0.00003   0.00000   0.00000   0.00000
 151       14D-2        0.00003   0.00000   0.00000   0.00000   0.00000
 152       15F 0        0.00000   0.00000   0.00001  -0.00007  -0.00003
 153       15F+1       -0.00001   0.00000   0.00000   0.00000   0.00000
 154       15F-1        0.00000  -0.00001   0.00000   0.00000   0.00000
 155       15F+2        0.00000   0.00003   0.00000   0.00000   0.00000
 156       15F-2        0.00003   0.00000   0.00000   0.00000   0.00000
 157       15F+3        0.00000   0.00000   0.00000   0.00000   0.00000
 158       15F-3        0.00000   0.00000   0.00001   0.00003   0.00000
 159       16F 0        0.00000   0.00000  -0.00032  -0.00059  -0.00031
 160       16F+1       -0.00022   0.00000   0.00000   0.00000   0.00000
 161       16F-1        0.00000  -0.00022   0.00000   0.00000   0.00000
 162       16F+2        0.00000  -0.00003   0.00000   0.00000   0.00000
 163       16F-2       -0.00003   0.00000   0.00000   0.00000   0.00000
 164       16F+3        0.00000   0.00000   0.00000   0.00000   0.00000
 165       16F-3        0.00000   0.00000  -0.00002  -0.00005   0.00002
 166 6   F  1S          0.00000   0.00000  -0.00144  -0.01044  -0.04967
 167        2S          0.00000   0.00000   0.00020   0.00043   0.00080
 168        3S          0.00000   0.00000  -0.00007  -0.00045  -0.00202
 169        4S          0.00000   0.00000  -0.00055  -0.00105   0.00057
 170        5S          0.00000   0.00000   0.00010  -0.00168   0.00180
 171        6PX        -0.00004   0.00000   0.00000   0.00000   0.00000
 172        6PY         0.00000  -0.00004   0.00000   0.00000   0.00000
 173        6PZ         0.00000   0.00000   0.00058   0.00111   0.00011
 174        7PX        -0.00001   0.00000   0.00000   0.00000   0.00000
 175        7PY         0.00000  -0.00001   0.00000   0.00000   0.00000
 176        7PZ         0.00000   0.00000   0.00069   0.00132   0.00002
 177        8PX        -0.00024   0.00000   0.00000   0.00000   0.00000
 178        8PY         0.00000  -0.00024   0.00000   0.00000   0.00000
 179        8PZ         0.00000   0.00000   0.00008   0.00017   0.00048
 180        9PX        -0.00036   0.00000   0.00000   0.00000   0.00000
 181        9PY         0.00000  -0.00036   0.00000   0.00000   0.00000
 182        9PZ         0.00000   0.00000   0.00017  -0.00009   0.00072
 183       10D 0        0.00000   0.00000   0.00001   0.00001  -0.00002
 184       10D+1       -0.00001   0.00000   0.00000   0.00000   0.00000
 185       10D-1        0.00000  -0.00001   0.00000   0.00000   0.00000
 186       10D+2        0.00000   0.00001   0.00000   0.00000   0.00000
 187       10D-2        0.00001   0.00000   0.00000   0.00000   0.00000
 188       11D 0        0.00000   0.00000  -0.00003  -0.00010   0.00001
 189       11D+1        0.00005   0.00000   0.00000   0.00000   0.00000
 190       11D-1        0.00000   0.00005   0.00000   0.00000   0.00000
 191       11D+2        0.00000  -0.00003   0.00000   0.00000   0.00000
 192       11D-2       -0.00003   0.00000   0.00000   0.00000   0.00000
 193       12D 0        0.00000   0.00000  -0.00019  -0.00012   0.00011
 194       12D+1       -0.00022   0.00000   0.00000   0.00000   0.00000
 195       12D-1        0.00000  -0.00022   0.00000   0.00000   0.00000
 196       12D+2        0.00000   0.00011   0.00000   0.00000   0.00000
 197       12D-2        0.00011   0.00000   0.00000   0.00000   0.00000
 198       13F 0        0.00000   0.00000   0.00001  -0.00001  -0.00004
 199       13F+1        0.00002   0.00000   0.00000   0.00000   0.00000
 200       13F-1        0.00000   0.00002   0.00000   0.00000   0.00000
 201       13F+2        0.00000  -0.00002   0.00000   0.00000   0.00000
 202       13F-2       -0.00002   0.00000   0.00000   0.00000   0.00000
 203       13F+3        0.00000   0.00000   0.00000   0.00000   0.00000
 204       13F-3        0.00000   0.00000   0.00000   0.00000   0.00000
 205       14F 0        0.00000   0.00000  -0.00004   0.00002   0.00013
 206       14F+1       -0.00006   0.00000   0.00000   0.00000   0.00000
 207       14F-1        0.00000  -0.00006   0.00000   0.00000   0.00000
 208       14F+2        0.00000   0.00004   0.00000   0.00000   0.00000
 209       14F-2        0.00004   0.00000   0.00000   0.00000   0.00000
 210       14F+3        0.00000   0.00000   0.00000   0.00000   0.00000
 211       14F-3        0.00000   0.00000   0.00000   0.00000  -0.00001
                           6         7         8         9        10
     Eigenvalues --     2.00000   2.00000   1.98361   1.97545   1.96958
   1 1   C  1S          0.05030  -0.00046   0.01555  -0.07441  -0.14334
   2        2S         -0.00012  -0.00001  -0.04234   0.20188   0.39613
   3        3S          0.00229  -0.00003  -0.01049   0.04689   0.09593
   4        4S         -0.00702   0.00016   0.00535   0.08028   0.19030
   5        5S         -0.00017   0.00010   0.00787  -0.00716  -0.02885
   6        6PX         0.00000   0.00000   0.00000   0.00000   0.00000
   7        6PY         0.00000   0.00000   0.00018  -0.00127  -0.00471
   8        6PZ         0.00004   0.00000   0.00648   0.01012  -0.02739
   9        7PX         0.00000   0.00000   0.00000   0.00000  -0.00001
  10        7PY         0.00001   0.00000   0.00024  -0.00157  -0.00596
  11        7PZ        -0.00076   0.00000   0.00708   0.01761  -0.03268
  12        8PX         0.00000   0.00000   0.00000   0.00000   0.00000
  13        8PY         0.00000   0.00000   0.00011  -0.00098  -0.00394
  14        8PZ         0.00522   0.00009   0.01668   0.00583  -0.02268
  15        9PX         0.00000   0.00000   0.00000   0.00000   0.00000
  16        9PY         0.00000   0.00000   0.00000  -0.00002  -0.00017
  17        9PZ         0.00011   0.00001  -0.00070   0.00031  -0.00406
  18       10D 0        0.00004   0.00000   0.00052  -0.00222  -0.00958
  19       10D+1        0.00000   0.00000   0.00000   0.00000   0.00000
  20       10D-1        0.00000   0.00000  -0.00001   0.00002   0.00008
  21       10D+2        0.00000   0.00000   0.00001  -0.00009  -0.00033
  22       10D-2        0.00000   0.00000   0.00000   0.00000   0.00000
  23       11D 0       -0.00023  -0.00002  -0.00528   0.00451  -0.01882
  24       11D+1        0.00000   0.00000   0.00000   0.00000  -0.00001
  25       11D-1        0.00001   0.00000  -0.00004   0.00006   0.00011
  26       11D+2        0.00000   0.00000   0.00007  -0.00026  -0.00088
  27       11D-2        0.00000   0.00000   0.00000   0.00000   0.00000
  28       12D 0        0.00027   0.00008   0.00206  -0.00854  -0.01663
  29       12D+1        0.00000   0.00000   0.00000   0.00000   0.00000
  30       12D-1       -0.00001   0.00000  -0.00003  -0.00004  -0.00002
  31       12D+2       -0.00001   0.00000   0.00005  -0.00024  -0.00071
  32       12D-2        0.00000   0.00000   0.00000   0.00000   0.00000
  33       13F 0       -0.00007   0.00000   0.00000   0.00243   0.00062
  34       13F+1        0.00000   0.00000   0.00000   0.00000   0.00000
  35       13F-1        0.00000   0.00000   0.00000  -0.00001   0.00000
  36       13F+2        0.00000   0.00000   0.00000   0.00000  -0.00001
  37       13F-2        0.00000   0.00000   0.00000   0.00000   0.00000
  38       13F+3        0.00000   0.00000   0.00000   0.00000   0.00000
  39       13F-3        0.00001   0.00000  -0.00014   0.00194   0.00389
  40       14F 0        0.00127  -0.00001   0.00471   0.00261  -0.00198
  41       14F+1        0.00000   0.00000   0.00000   0.00000   0.00000
  42       14F-1        0.00000   0.00000   0.00001   0.00003   0.00010
  43       14F+2        0.00000   0.00000  -0.00002   0.00003   0.00006
  44       14F-2        0.00000   0.00000   0.00000   0.00000   0.00000
  45       14F+3        0.00000   0.00000   0.00000   0.00000   0.00000
  46       14F-3       -0.00044   0.00003   0.00185  -0.00097   0.00406
  47 2   H  1S         -0.00008   0.00000  -0.00884   0.03892   0.08415
  48        2S          0.00098  -0.00006  -0.01530   0.04474   0.08564
  49        3S          0.00182   0.00004  -0.00075  -0.00592  -0.01486
  50        4S          0.00003   0.00000  -0.00047   0.00051   0.00031
  51        5PX         0.00000   0.00000   0.00000   0.00000   0.00000
  52        5PY         0.00001   0.00000  -0.00112   0.00419   0.00902
  53        5PZ        -0.00004   0.00000   0.00027   0.00099   0.00039
  54        6PX         0.00000   0.00000   0.00000   0.00000   0.00000
  55        6PY         0.00007   0.00000  -0.00058   0.00049   0.00060
  56        6PZ         0.00033  -0.00001   0.00005   0.00245  -0.00053
  57        7PX         0.00000   0.00000   0.00000   0.00000   0.00000
  58        7PY         0.00044   0.00001   0.00141  -0.00531  -0.01119
  59        7PZ        -0.00057   0.00001  -0.00287  -0.00184  -0.00146
  60        8D 0        0.00006   0.00000   0.00014  -0.00037  -0.00094
  61        8D+1        0.00000   0.00000   0.00000   0.00000   0.00000
  62        8D-1       -0.00001   0.00000  -0.00016   0.00051   0.00025
  63        8D+2       -0.00002   0.00000   0.00003  -0.00057  -0.00142
  64        8D-2        0.00000   0.00000   0.00000   0.00000   0.00000
  65        9D 0        0.00009  -0.00001  -0.00007   0.00128   0.00106
  66        9D+1        0.00000   0.00000   0.00000   0.00000   0.00000
  67        9D-1        0.00014   0.00000  -0.00007   0.00002  -0.00040
  68        9D+2        0.00004   0.00000  -0.00102   0.00236   0.00429
  69        9D-2        0.00000   0.00000   0.00000   0.00000   0.00000
  70 3   H  1S         -0.00008   0.00000  -0.00859   0.03736   0.07885
  71        2S          0.00098  -0.00006  -0.01535   0.04407   0.08208
  72        3S          0.00182   0.00004  -0.00093  -0.00458  -0.01080
  73        4S          0.00003   0.00000  -0.00047   0.00052   0.00045
  74        5PX         0.00001   0.00000  -0.00094   0.00347   0.00732
  75        5PY        -0.00001   0.00000   0.00055  -0.00202  -0.00431
  76        5PZ        -0.00004   0.00000   0.00028   0.00096   0.00033
  77        6PX         0.00006   0.00000  -0.00064   0.00071   0.00104
  78        6PY        -0.00004   0.00000   0.00039  -0.00047  -0.00084
  79        6PZ         0.00032  -0.00001   0.00009   0.00242  -0.00054
  80        7PX         0.00037   0.00001   0.00119  -0.00432  -0.00874
  81        7PY        -0.00022   0.00000  -0.00066   0.00236   0.00473
  82        7PZ        -0.00055   0.00001  -0.00280  -0.00173  -0.00126
  83        8D 0        0.00006   0.00000   0.00014  -0.00035  -0.00089
  84        8D+1       -0.00001   0.00000  -0.00013   0.00043   0.00019
  85        8D-1        0.00000   0.00000   0.00007  -0.00025  -0.00012
  86        8D+2        0.00001   0.00000  -0.00002   0.00027   0.00065
  87        8D-2       -0.00001   0.00000   0.00003  -0.00048  -0.00119
  88        9D 0        0.00009  -0.00001  -0.00006   0.00124   0.00102
  89        9D+1        0.00012   0.00000  -0.00005   0.00003  -0.00033
  90        9D-1       -0.00007   0.00000   0.00003  -0.00001   0.00020
  91        9D+2       -0.00002   0.00000   0.00050  -0.00114  -0.00209
  92        9D-2        0.00003   0.00000  -0.00085   0.00197   0.00355
  93 4   H  1S         -0.00008   0.00000  -0.00859   0.03736   0.07885
  94        2S          0.00098  -0.00006  -0.01535   0.04407   0.08208
  95        3S          0.00182   0.00004  -0.00093  -0.00458  -0.01080
  96        4S          0.00003   0.00000  -0.00047   0.00052   0.00045
  97        5PX        -0.00001   0.00000   0.00094  -0.00347  -0.00732
  98        5PY        -0.00001   0.00000   0.00055  -0.00202  -0.00431
  99        5PZ        -0.00004   0.00000   0.00028   0.00096   0.00033
 100        6PX        -0.00006   0.00000   0.00064  -0.00071  -0.00104
 101        6PY        -0.00004   0.00000   0.00039  -0.00047  -0.00084
 102        6PZ         0.00032  -0.00001   0.00009   0.00242  -0.00054
 103        7PX        -0.00037  -0.00001  -0.00119   0.00432   0.00874
 104        7PY        -0.00022   0.00000  -0.00066   0.00236   0.00473
 105        7PZ        -0.00055   0.00001  -0.00280  -0.00173  -0.00126
 106        8D 0        0.00006   0.00000   0.00014  -0.00035  -0.00089
 107        8D+1        0.00001   0.00000   0.00013  -0.00043  -0.00019
 108        8D-1        0.00000   0.00000   0.00007  -0.00025  -0.00012
 109        8D+2        0.00001   0.00000  -0.00002   0.00027   0.00065
 110        8D-2        0.00001   0.00000  -0.00003   0.00048   0.00119
 111        9D 0        0.00009  -0.00001  -0.00006   0.00124   0.00102
 112        9D+1       -0.00012   0.00000   0.00005  -0.00003   0.00033
 113        9D-1       -0.00007   0.00000   0.00003  -0.00001   0.00020
 114        9D+2       -0.00002   0.00000   0.00050  -0.00115  -0.00209
 115        9D-2       -0.00003   0.00000   0.00085  -0.00197  -0.00355
 116 5   Cl 1S          0.00007   0.99708  -0.00065   0.06624  -0.03525
 117        2S         -0.00006   0.01040   0.00295  -0.25103   0.13249
 118        3S          0.00006   0.00017  -0.00398   0.52281  -0.28180
 119        4S          0.00008   0.00026  -0.00026   0.06403  -0.03791
 120        5S         -0.00182  -0.00020  -0.01236   0.34977  -0.17295
 121        6S         -0.00051  -0.00011  -0.00462   0.02459   0.01112
 122        7PX         0.00000   0.00000   0.00000   0.00000   0.00001
 123        7PY         0.00000   0.00000   0.00000   0.00005   0.00026
 124        7PZ         0.00730   0.00016   0.00151   0.00473   0.02858
 125        8PX         0.00000   0.00000   0.00000   0.00000  -0.00001
 126        8PY         0.00000   0.00000   0.00001  -0.00012  -0.00065
 127        8PZ         0.00051  -0.00003  -0.00224  -0.00639  -0.07163
 128        9PX         0.00000   0.00000   0.00000   0.00000  -0.00001
 129        9PY         0.00000   0.00000   0.00000  -0.00005  -0.00029
 130        9PZ         0.00031   0.00003  -0.00263   0.00052  -0.03124
 131       10PX         0.00000   0.00000   0.00000   0.00000  -0.00001
 132       10PY         0.00000   0.00000   0.00000  -0.00002  -0.00021
 133       10PZ         0.00096   0.00015   0.00273   0.00276  -0.05210
 134       11PX         0.00000   0.00000   0.00000   0.00000   0.00000
 135       11PY         0.00000   0.00000   0.00000   0.00001   0.00002
 136       11PZ         0.00002   0.00002  -0.00040   0.00257  -0.00872
 137       12D 0       -0.00003   0.00001  -0.00036   0.00451   0.00449
 138       12D+1        0.00000   0.00000   0.00000   0.00000   0.00000
 139       12D-1        0.00000   0.00000   0.00000   0.00003   0.00010
 140       12D+2        0.00000   0.00000   0.00000   0.00000  -0.00001
 141       12D-2        0.00000   0.00000   0.00000   0.00000   0.00000
 142       13D 0       -0.00022   0.00000  -0.00164   0.00824   0.00960
 143       13D+1        0.00000   0.00000   0.00000   0.00000   0.00000
 144       13D-1        0.00000   0.00000   0.00000   0.00005   0.00016
 145       13D+2        0.00000   0.00000   0.00000   0.00000  -0.00001
 146       13D-2        0.00000   0.00000   0.00000   0.00000   0.00000
 147       14D 0       -0.00014  -0.00004  -0.00184  -0.00016   0.00536
 148       14D+1        0.00000   0.00000   0.00000   0.00000   0.00000
 149       14D-1        0.00000   0.00000   0.00000  -0.00001  -0.00001
 150       14D+2        0.00000   0.00000   0.00000   0.00001   0.00002
 151       14D-2        0.00000   0.00000   0.00000   0.00000   0.00000
 152       15F 0        0.00005   0.00000   0.00023  -0.00181  -0.00190
 153       15F+1        0.00000   0.00000   0.00000   0.00000   0.00000
 154       15F-1        0.00000   0.00000   0.00000  -0.00001  -0.00004
 155       15F+2        0.00000   0.00000   0.00000   0.00000   0.00001
 156       15F-2        0.00000   0.00000   0.00000   0.00000   0.00000
 157       15F+3        0.00000   0.00000   0.00000   0.00000   0.00000
 158       15F-3       -0.00001   0.00000  -0.00001   0.00002   0.00009
 159       16F 0       -0.00005   0.00001   0.00005  -0.00093  -0.00169
 160       16F+1        0.00000   0.00000   0.00000   0.00000   0.00000
 161       16F-1        0.00000   0.00000   0.00000  -0.00001  -0.00002
 162       16F+2        0.00000   0.00000   0.00000   0.00000  -0.00001
 163       16F-2        0.00000   0.00000   0.00000   0.00000   0.00000
 164       16F+3        0.00000   0.00000   0.00000   0.00000   0.00000
 165       16F-3        0.00003   0.00000   0.00002  -0.00001  -0.00021
 166 6   F  1S          0.97743  -0.00002   0.21187   0.01340   0.02166
 167        2S         -0.01503   0.00000  -0.53156  -0.03467  -0.05741
 168        3S          0.04206   0.00000  -0.16469  -0.01101  -0.01856
 169        4S          0.00193  -0.00001  -0.36871  -0.02408  -0.04396
 170        5S         -0.00083  -0.00006  -0.04529   0.00425   0.00774
 171        6PX         0.00000   0.00000   0.00000   0.00000   0.00002
 172        6PY         0.00000   0.00000  -0.00002  -0.00019  -0.00153
 173        6PZ         0.00048   0.00000   0.01350   0.01312   0.08691
 174        7PX         0.00000   0.00000   0.00000   0.00000   0.00002
 175        7PY         0.00000   0.00000  -0.00002  -0.00023  -0.00184
 176        7PZ        -0.00013   0.00000   0.01472   0.01602   0.10458
 177        8PX         0.00000   0.00000   0.00000   0.00000   0.00001
 178        8PY         0.00000   0.00000  -0.00002  -0.00015  -0.00141
 179        8PZ         0.00241  -0.00001   0.01246   0.01264   0.08314
 180        9PX         0.00000   0.00000   0.00000   0.00000   0.00000
 181        9PY         0.00000   0.00000  -0.00001  -0.00004  -0.00037
 182        9PZ        -0.00008  -0.00002   0.00219   0.00327   0.02406
 183       10D 0       -0.00002   0.00000  -0.00013   0.00018   0.00060
 184       10D+1        0.00000   0.00000   0.00000   0.00000   0.00000
 185       10D-1        0.00000   0.00000   0.00000   0.00000  -0.00001
 186       10D+2        0.00000   0.00000   0.00000   0.00000   0.00000
 187       10D-2        0.00000   0.00000   0.00000   0.00000   0.00000
 188       11D 0       -0.00003   0.00000  -0.00104   0.00092   0.00274
 189       11D+1        0.00000   0.00000   0.00000   0.00000   0.00000
 190       11D-1        0.00000   0.00000   0.00000  -0.00001  -0.00004
 191       11D+2        0.00000   0.00000   0.00000   0.00000   0.00000
 192       11D-2        0.00000   0.00000   0.00000   0.00000   0.00000
 193       12D 0        0.00080   0.00000  -0.00055   0.00036   0.00383
 194       12D+1        0.00000   0.00000   0.00000   0.00000   0.00000
 195       12D-1        0.00000   0.00000   0.00000   0.00001  -0.00001
 196       12D+2        0.00000   0.00000   0.00000   0.00001   0.00001
 197       12D-2        0.00000   0.00000   0.00000   0.00000   0.00000
 198       13F 0       -0.00006   0.00000  -0.00002   0.00013   0.00027
 199       13F+1        0.00000   0.00000   0.00000   0.00000   0.00000
 200       13F-1        0.00000   0.00000   0.00000   0.00000  -0.00001
 201       13F+2        0.00000   0.00000   0.00000   0.00000   0.00000
 202       13F-2        0.00000   0.00000   0.00000   0.00000   0.00000
 203       13F+3        0.00000   0.00000   0.00000   0.00000   0.00000
 204       13F-3        0.00001   0.00000   0.00001   0.00002   0.00003
 205       14F 0        0.00020   0.00000  -0.00039  -0.00006   0.00062
 206       14F+1        0.00000   0.00000   0.00000   0.00000   0.00000
 207       14F-1        0.00000   0.00000   0.00000   0.00000   0.00000
 208       14F+2        0.00000   0.00000   0.00000   0.00000   0.00001
 209       14F-2        0.00000   0.00000   0.00000   0.00000   0.00000
 210       14F+3        0.00000   0.00000   0.00000   0.00000   0.00000
 211       14F-3       -0.00001   0.00000  -0.00007  -0.00006  -0.00009
                          11        12        13        14        15
     Eigenvalues --     1.96441   1.96437   1.95949   1.95925   1.94913
   1 1   C  1S         -0.00167   0.00000  -0.00166   0.00000   0.00228
   2        2S          0.00458   0.00000   0.00449   0.00000  -0.00652
   3        3S          0.00100   0.00000   0.00085   0.00000  -0.00163
   4        4S          0.00096   0.00000  -0.00140   0.00000  -0.01343
   5        5S         -0.00071   0.00000  -0.00117   0.00000  -0.00267
   6        6PX         0.00004   0.09804   0.00005   0.23091   0.00002
   7        6PY         0.10323  -0.00004   0.23016  -0.00005   0.06625
   8        6PZ        -0.00025  -0.00002  -0.00025  -0.00004  -0.00204
   9        7PX         0.00005   0.13126   0.00007   0.30593   0.00002
  10        7PY         0.13806  -0.00005   0.30499  -0.00007   0.09211
  11        7PZ        -0.00022  -0.00002  -0.00036  -0.00005  -0.00287
  12        8PX         0.00004   0.09631   0.00005   0.23653   0.00002
  13        8PY         0.10153  -0.00004   0.23589  -0.00005   0.07086
  14        8PZ        -0.00031  -0.00002  -0.00038  -0.00004  -0.00300
  15        9PX         0.00000  -0.00211   0.00000   0.01904   0.00000
  16        9PY        -0.00171   0.00000   0.01913   0.00000   0.01209
  17        9PZ        -0.00007   0.00000  -0.00006   0.00000  -0.00005
  18       10D 0       -0.00008   0.00000  -0.00003   0.00000   0.00044
  19       10D+1        0.00000  -0.00271   0.00000  -0.00128   0.00000
  20       10D-1       -0.00276   0.00000  -0.00126   0.00000  -0.00372
  21       10D+2        0.00659   0.00000   0.01482   0.00000   0.00493
  22       10D-2        0.00000   0.00623   0.00000   0.01478   0.00000
  23       11D 0       -0.00009   0.00000   0.00013   0.00000   0.00229
  24       11D+1       -0.00001  -0.01271  -0.00001   0.00765  -0.00001
  25       11D-1       -0.01267   0.00000   0.00782  -0.00001  -0.01555
  26       11D+2        0.02166   0.00000   0.04518   0.00001   0.01668
  27       11D-2        0.00000   0.02067  -0.00001   0.04534  -0.00001
  28       12D 0       -0.00029   0.00000  -0.00021   0.00000   0.00126
  29       12D+1       -0.00001  -0.00610  -0.00001   0.00570   0.00000
  30       12D-1       -0.00594   0.00000   0.00574  -0.00001   0.00116
  31       12D+2        0.02101   0.00000   0.03580   0.00001   0.00990
  32       12D-2        0.00000   0.02014   0.00000   0.03605   0.00000
  33       13F 0        0.00001   0.00000   0.00003   0.00000  -0.00009
  34       13F+1        0.00000   0.00025   0.00000  -0.00200   0.00000
  35       13F-1        0.00023   0.00000  -0.00200   0.00000  -0.00220
  36       13F+2       -0.00064   0.00000  -0.00008   0.00000  -0.00033
  37       13F-2        0.00000  -0.00064   0.00000  -0.00012   0.00000
  38       13F+3        0.00000   0.00001   0.00000   0.00003   0.00000
  39       13F-3        0.00008   0.00000   0.00010   0.00000  -0.00011
  40       14F 0       -0.00002   0.00000  -0.00007   0.00000  -0.00027
  41       14F+1        0.00000   0.00038   0.00000  -0.00584   0.00000
  42       14F-1        0.00026   0.00000  -0.00590   0.00000  -0.00721
  43       14F+2       -0.00387   0.00000  -0.00003   0.00000  -0.00324
  44       14F-2        0.00000  -0.00387   0.00000  -0.00014   0.00000
  45       14F+3        0.00000   0.00001   0.00000   0.00003   0.00000
  46       14F-3       -0.00001   0.00000  -0.00005   0.00000  -0.00066
  47 2   H  1S         -0.07009   0.00002  -0.15037   0.00001  -0.04713
  48        2S         -0.06177   0.00002  -0.14922   0.00001  -0.04386
  49        3S          0.06222  -0.00002   0.12359  -0.00001   0.00665
  50        4S         -0.00541   0.00000   0.01789   0.00000   0.00111
  51        5PX         0.00000   0.00215   0.00000   0.00449   0.00000
  52        5PY        -0.00551   0.00000  -0.01235   0.00000  -0.00363
  53        5PZ        -0.00006   0.00000  -0.00284   0.00000   0.00006
  54        6PX         0.00000   0.00811   0.00000   0.01380   0.00000
  55        6PY         0.00767   0.00000   0.01178   0.00000   0.00584
  56        6PZ        -0.00284   0.00000   0.00071   0.00000  -0.00126
  57        7PX         0.00000   0.00929   0.00001   0.01342   0.00000
  58        7PY         0.01487  -0.00001   0.04561  -0.00001   0.00974
  59        7PZ         0.00091   0.00000   0.00780   0.00000   0.00335
  60        8D 0        0.00042   0.00000   0.00131   0.00000   0.00039
  61        8D+1        0.00000   0.00002   0.00000   0.00032   0.00000
  62        8D-1       -0.00075   0.00000  -0.00020   0.00000  -0.00030
  63        8D+2        0.00061   0.00000   0.00184   0.00000   0.00052
  64        8D-2        0.00000   0.00107   0.00000   0.00229   0.00000
  65        9D 0       -0.00045   0.00000   0.00149   0.00000  -0.00013
  66        9D+1        0.00000  -0.00155   0.00000   0.00099   0.00000
  67        9D-1       -0.00326   0.00000   0.00354   0.00000  -0.00037
  68        9D+2       -0.00158   0.00000  -0.00255   0.00000  -0.00096
  69        9D-2        0.00000   0.00160   0.00000   0.00283   0.00000
  70 3   H  1S          0.03629  -0.05842   0.07628  -0.13120   0.02133
  71        2S          0.03326  -0.05276   0.07811  -0.13374   0.02232
  72        3S         -0.03062   0.05041  -0.05983   0.10356  -0.00138
  73        4S          0.00272  -0.00493  -0.00883   0.01512  -0.00051
  74        5PX         0.00344  -0.00345   0.00730  -0.00820   0.00188
  75        5PY         0.00020   0.00320   0.00012   0.00725  -0.00006
  76        5PZ         0.00002   0.00002   0.00140  -0.00243  -0.00022
  77        6PX         0.00043   0.00739   0.00104   0.01178  -0.00062
  78        6PY         0.00804   0.00038   0.01278   0.00107   0.00393
  79        6PZ         0.00140  -0.00241  -0.00027   0.00034   0.00053
  80        7PX        -0.00248   0.01290  -0.01414   0.03754  -0.00244
  81        7PY         0.01103  -0.00210   0.02136  -0.01397   0.00412
  82        7PZ        -0.00044   0.00057  -0.00387   0.00662  -0.00110
  83        8D 0       -0.00023   0.00036  -0.00069   0.00118  -0.00019
  84        8D+1        0.00034  -0.00056   0.00024  -0.00011   0.00010
  85        8D-1       -0.00017   0.00033   0.00018   0.00024  -0.00009
  86        8D+2        0.00099   0.00019   0.00214   0.00013   0.00055
  87        8D-2        0.00018   0.00072   0.00012   0.00200   0.00005
  88        9D 0        0.00028  -0.00046  -0.00072   0.00129   0.00011
  89        9D+1        0.00076  -0.00288  -0.00107   0.00281  -0.00023
  90        9D-1       -0.00195   0.00078   0.00166  -0.00105  -0.00105
  91        9D+2        0.00083   0.00141   0.00141   0.00240   0.00052
  92        9D-2        0.00150  -0.00079   0.00244  -0.00126   0.00098
  93 4   H  1S          0.03632   0.05840   0.07630   0.13119   0.02133
  94        2S          0.03329   0.05274   0.07813   0.13373   0.02233
  95        3S         -0.03064  -0.05039  -0.05985  -0.10355  -0.00139
  96        4S          0.00272   0.00493  -0.00883  -0.01512  -0.00051
  97        5PX        -0.00344  -0.00345  -0.00730  -0.00820  -0.00188
  98        5PY         0.00020  -0.00320   0.00012  -0.00725  -0.00006
  99        5PZ         0.00002  -0.00002   0.00140   0.00243  -0.00022
 100        6PX        -0.00042   0.00739  -0.00103   0.01178   0.00062
 101        6PY         0.00804  -0.00039   0.01278  -0.00107   0.00393
 102        6PZ         0.00140   0.00241  -0.00027  -0.00035   0.00053
 103        7PX         0.00249   0.01290   0.01415   0.03754   0.00244
 104        7PY         0.01103   0.00209   0.02135   0.01396   0.00412
 105        7PZ        -0.00044  -0.00058  -0.00388  -0.00663  -0.00110
 106        8D 0       -0.00023  -0.00036  -0.00069  -0.00118  -0.00019
 107        8D+1       -0.00034  -0.00056  -0.00024  -0.00011  -0.00010
 108        8D-1       -0.00017  -0.00033   0.00018  -0.00024  -0.00009
 109        8D+2        0.00099  -0.00019   0.00214  -0.00013   0.00055
 110        8D-2       -0.00018   0.00072  -0.00012   0.00200  -0.00005
 111        9D 0        0.00028   0.00046  -0.00072  -0.00129   0.00011
 112        9D+1       -0.00076  -0.00288   0.00107   0.00281   0.00022
 113        9D-1       -0.00195  -0.00077   0.00166   0.00105  -0.00105
 114        9D+2        0.00082  -0.00141   0.00141  -0.00240   0.00052
 115        9D-2       -0.00150  -0.00079  -0.00244  -0.00126  -0.00098
 116 5   Cl 1S         -0.00024   0.00000  -0.00020   0.00000   0.00044
 117        2S          0.00089   0.00000   0.00072   0.00000  -0.00169
 118        3S         -0.00195   0.00000  -0.00165   0.00000   0.00344
 119        4S         -0.00028   0.00000  -0.00025   0.00000   0.00052
 120        5S         -0.00103   0.00000  -0.00084   0.00000   0.00304
 121        6S          0.00033   0.00000   0.00043   0.00000   0.00099
 122        7PX         0.00000  -0.00882  -0.00001  -0.04353   0.00005
 123        7PY        -0.00925   0.00000  -0.04180   0.00001   0.22367
 124        7PZ         0.00050   0.00000   0.00084   0.00001   0.00135
 125        8PX         0.00001   0.02089   0.00002   0.10288  -0.00012
 126        8PY         0.02194  -0.00001   0.09888  -0.00002  -0.51172
 127        8PZ        -0.00122   0.00000  -0.00197  -0.00002  -0.00314
 128        9PX         0.00000   0.00969   0.00001   0.04758  -0.00006
 129        9PY         0.01016   0.00000   0.04567  -0.00001  -0.24717
 130        9PZ        -0.00052   0.00000  -0.00087  -0.00001  -0.00154
 131       10PX         0.00000   0.01041   0.00001   0.05565  -0.00009
 132       10PY         0.01083   0.00000   0.05298  -0.00001  -0.36765
 133       10PZ        -0.00092   0.00000  -0.00149  -0.00001  -0.00353
 134       11PX         0.00000   0.00211   0.00000   0.00336  -0.00002
 135       11PY         0.00207   0.00000   0.00297   0.00000  -0.06204
 136       11PZ        -0.00015   0.00000  -0.00026   0.00000  -0.00111
 137       12D 0        0.00007   0.00000   0.00009   0.00000  -0.00020
 138       12D+1        0.00000  -0.00189   0.00000  -0.00618   0.00000
 139       12D-1       -0.00201   0.00000  -0.00612   0.00000   0.00028
 140       12D+2        0.00012   0.00000   0.00054   0.00000   0.00024
 141       12D-2        0.00000   0.00011   0.00000   0.00054   0.00000
 142       13D 0        0.00016   0.00000   0.00022   0.00000  -0.00029
 143       13D+1        0.00000  -0.00292   0.00000  -0.01096   0.00000
 144       13D-1       -0.00311   0.00000  -0.01082   0.00000   0.00080
 145       13D+2        0.00034   0.00000   0.00064   0.00000   0.00054
 146       13D-2        0.00000   0.00032   0.00000   0.00064   0.00000
 147       14D 0        0.00009   0.00000   0.00015   0.00000   0.00012
 148       14D+1        0.00000   0.00006   0.00000   0.00005   0.00000
 149       14D-1        0.00007   0.00000   0.00009   0.00000   0.00337
 150       14D+2       -0.00065   0.00000  -0.00007   0.00000   0.00006
 151       14D-2        0.00000  -0.00066   0.00000  -0.00007   0.00000
 152       15F 0       -0.00003   0.00000  -0.00004   0.00000   0.00004
 153       15F+1        0.00000   0.00089   0.00000   0.00263   0.00000
 154       15F-1        0.00093   0.00000   0.00259   0.00000  -0.00143
 155       15F+2       -0.00012   0.00000  -0.00034   0.00000  -0.00010
 156       15F-2        0.00000  -0.00011   0.00000  -0.00034   0.00000
 157       15F+3        0.00000   0.00000   0.00000   0.00000   0.00000
 158       15F-3        0.00000   0.00000   0.00000   0.00000   0.00000
 159       16F 0       -0.00003   0.00000  -0.00005   0.00000   0.00005
 160       16F+1        0.00000   0.00060   0.00000   0.00201   0.00000
 161       16F-1        0.00063   0.00000   0.00195   0.00000  -0.00182
 162       16F+2        0.00001   0.00000   0.00019   0.00000  -0.00020
 163       16F-2        0.00000   0.00002   0.00000   0.00019   0.00000
 164       16F+3        0.00000   0.00000   0.00000   0.00000   0.00000
 165       16F-3        0.00000   0.00000   0.00000   0.00000   0.00001
 166 6   F  1S          0.00022   0.00000   0.00017   0.00000  -0.00052
 167        2S         -0.00061   0.00000  -0.00052   0.00000   0.00113
 168        3S         -0.00020   0.00000  -0.00017   0.00000   0.00034
 169        4S         -0.00045   0.00000  -0.00041   0.00000   0.00072
 170        5S          0.00023   0.00000   0.00021   0.00000   0.00023
 171        6PX         0.00013   0.33205  -0.00004  -0.16229   0.00000
 172        6PY         0.32863  -0.00013  -0.16916   0.00004  -0.02204
 173        6PZ         0.00145  -0.00006   0.00287   0.00003   0.01648
 174        7PX         0.00016   0.39610  -0.00004  -0.19243   0.00000
 175        7PY         0.39204  -0.00016  -0.20063   0.00004  -0.02609
 176        7PZ         0.00173  -0.00007   0.00343   0.00003   0.01965
 177        8PX         0.00013   0.32023  -0.00004  -0.16186   0.00000
 178        8PY         0.31682  -0.00013  -0.16847   0.00004  -0.02234
 179        8PZ         0.00143  -0.00005   0.00284   0.00003   0.01619
 180        9PX         0.00004   0.10064  -0.00001  -0.05707   0.00000
 181        9PY         0.09945  -0.00004  -0.05913   0.00001  -0.01090
 182        9PZ         0.00044  -0.00002   0.00084   0.00001   0.00505
 183       10D 0        0.00001   0.00000   0.00001   0.00000   0.00004
 184       10D+1        0.00000   0.00060   0.00000   0.00009   0.00000
 185       10D-1        0.00061   0.00000   0.00008   0.00000   0.00012
 186       10D+2        0.00002   0.00000   0.00004   0.00000   0.00001
 187       10D-2        0.00000   0.00002   0.00000   0.00004   0.00000
 188       11D 0        0.00004   0.00000   0.00005   0.00000   0.00010
 189       11D+1        0.00000   0.00243   0.00000   0.00122   0.00000
 190       11D-1        0.00245   0.00000   0.00116   0.00000   0.00058
 191       11D+2        0.00006   0.00000   0.00025   0.00000   0.00017
 192       11D-2        0.00000   0.00005   0.00000   0.00025   0.00000
 193       12D 0        0.00007   0.00000   0.00013   0.00000   0.00046
 194       12D+1        0.00000   0.00593   0.00000  -0.00356   0.00000
 195       12D-1        0.00586   0.00000  -0.00368   0.00000   0.00032
 196       12D+2        0.00003   0.00000  -0.00028   0.00000  -0.00037
 197       12D-2        0.00000   0.00003   0.00000  -0.00028   0.00000
 198       13F 0        0.00000   0.00000   0.00000   0.00000   0.00001
 199       13F+1        0.00000   0.00022   0.00000   0.00025   0.00000
 200       13F-1        0.00022   0.00000   0.00025   0.00000   0.00006
 201       13F+2        0.00006   0.00000   0.00011   0.00000   0.00006
 202       13F-2        0.00000   0.00005   0.00000   0.00011   0.00000
 203       13F+3        0.00000   0.00000   0.00000   0.00000   0.00000
 204       13F-3        0.00000   0.00000   0.00000   0.00000   0.00000
 205       14F 0        0.00002   0.00000   0.00003   0.00000   0.00009
 206       14F+1        0.00000   0.00146   0.00000  -0.00087   0.00000
 207       14F-1        0.00144   0.00000  -0.00090   0.00000   0.00001
 208       14F+2       -0.00013   0.00000  -0.00023   0.00000  -0.00016
 209       14F-2        0.00000  -0.00013   0.00000  -0.00024   0.00000
 210       14F+3        0.00000   0.00000   0.00000   0.00000   0.00000
 211       14F-3        0.00000   0.00000   0.00000   0.00000   0.00000
                          16        17        18        19        20
     Eigenvalues --     1.94911   1.94883   1.93538   0.06015   0.02493
   1 1   C  1S          0.00000   0.05313  -0.01575  -0.02407   0.00000
   2        2S          0.00000  -0.15124   0.05082   0.06695   0.00001
   3        3S          0.00000  -0.03573   0.01675   0.02429   0.00000
   4        4S         -0.00001  -0.29173   0.08714  -0.22328  -0.00001
   5        5S          0.00000  -0.05761   0.03920  -0.02952   0.00000
   6        6PX         0.06792  -0.00001  -0.00002   0.00005   0.15441
   7        6PY        -0.00002  -0.00409   0.00022   0.00010   0.00006
   8        6PZ        -0.00001  -0.04563  -0.12868   0.27922  -0.00003
   9        7PX         0.09436  -0.00002  -0.00003   0.00008   0.28643
  10        7PY        -0.00002  -0.00580   0.00051  -0.00016   0.00011
  11        7PZ        -0.00002  -0.06472  -0.18048   0.44312  -0.00005
  12        8PX         0.07275  -0.00001  -0.00001   0.00004   0.13158
  13        8PY        -0.00002  -0.00452   0.00067   0.00016   0.00005
  14        8PZ        -0.00001  -0.06426  -0.07674   0.20218  -0.00002
  15        9PX         0.01228   0.00000   0.00000   0.00000   0.02945
  16        9PY         0.00000  -0.00067   0.00008   0.00006   0.00001
  17        9PZ         0.00000  -0.00123  -0.00168  -0.00004  -0.00001
  18       10D 0        0.00000   0.00933  -0.01105  -0.00887  -0.00001
  19       10D+1       -0.00373   0.00000   0.00000   0.00000   0.02553
  20       10D-1        0.00000   0.00020   0.00000  -0.00011   0.00001
  21       10D+2        0.00000  -0.00029   0.00002  -0.00004   0.00001
  22       10D-2        0.00501   0.00000   0.00000   0.00000   0.00380
  23       11D 0        0.00001   0.04970  -0.04570   0.06675  -0.00002
  24       11D+1       -0.01547   0.00002  -0.00001   0.00002   0.05985
  25       11D-1        0.00000   0.00085  -0.00007   0.00007   0.00001
  26       11D+2        0.00000  -0.00116   0.00017  -0.00018   0.00006
  27       11D-2        0.01706   0.00000   0.00000   0.00000   0.07022
  28       12D 0        0.00000   0.02813  -0.00374  -0.01715  -0.00001
  29       12D+1        0.00118   0.00001   0.00000  -0.00001   0.01899
  30       12D-1        0.00000  -0.00005   0.00010  -0.00011   0.00000
  31       12D+2        0.00000  -0.00083   0.00016  -0.00007   0.00001
  32       12D-2        0.01015   0.00000   0.00000   0.00000   0.01450
  33       13F 0        0.00000  -0.00207  -0.00329  -0.00584   0.00000
  34       13F+1       -0.00223   0.00000   0.00000   0.00000  -0.00958
  35       13F-1        0.00000   0.00012  -0.00001   0.00000   0.00000
  36       13F+2        0.00000   0.00004  -0.00002   0.00003   0.00000
  37       13F-2       -0.00033   0.00000   0.00000   0.00000   0.00313
  38       13F+3        0.00001   0.00000   0.00000   0.00000   0.00001
  39       13F-3        0.00000  -0.00304   0.00113  -0.00049   0.00000
  40       14F 0        0.00000  -0.00549  -0.00087   0.01159   0.00000
  41       14F+1       -0.00727   0.00000   0.00000   0.00001  -0.00253
  42       14F-1        0.00000   0.00032  -0.00002   0.00012   0.00000
  43       14F+2        0.00000   0.00022  -0.00004   0.00003   0.00000
  44       14F-2       -0.00326   0.00000   0.00000   0.00001  -0.00223
  45       14F+3       -0.00001  -0.00001   0.00000  -0.00001   0.00005
  46       14F-3        0.00000  -0.01497   0.00919  -0.03784   0.00000
  47 2   H  1S          0.00000  -0.03091   0.02867  -0.00683   0.00002
  48        2S          0.00001   0.00001   0.02224   0.08028   0.00013
  49        3S          0.00000   0.02206   0.02031   0.07003   0.00008
  50        4S          0.00000   0.00013   0.00189   0.00723   0.00004
  51        5PX         0.00109   0.00000   0.00000   0.00000   0.00291
  52        5PY         0.00000  -0.00197   0.00251  -0.00213  -0.00001
  53        5PZ         0.00000  -0.00271  -0.00329   0.01463  -0.00001
  54        6PX         0.00379   0.00000   0.00000   0.00001   0.00776
  55        6PY         0.00000   0.00486  -0.00133   0.00892   0.00003
  56        6PZ         0.00000  -0.00083  -0.01040   0.02803   0.00000
  57        7PX         0.00285   0.00000   0.00000   0.00000  -0.00177
  58        7PY         0.00000   0.01042  -0.00143   0.01291   0.00003
  59        7PZ         0.00000   0.00802   0.00337  -0.01466   0.00000
  60        8D 0        0.00000   0.00013  -0.00085   0.00066   0.00000
  61        8D+1       -0.00003   0.00000   0.00000   0.00000   0.00184
  62        8D-1        0.00000  -0.00018  -0.00173   0.00678   0.00000
  63        8D+2        0.00000   0.00053  -0.00061   0.00198   0.00000
  64        8D-2        0.00061   0.00000   0.00000   0.00000   0.00217
  65        9D 0        0.00000   0.00080  -0.00287   0.00615   0.00000
  66        9D+1       -0.00120   0.00000   0.00000   0.00000   0.00438
  67        9D-1        0.00000   0.00206  -0.00051  -0.00622   0.00001
  68        9D+2        0.00000   0.00120   0.00032  -0.00108   0.00000
  69        9D-2        0.00111   0.00000   0.00000   0.00000   0.00117
  70 3   H  1S         -0.04048  -0.03509   0.02892  -0.00685   0.03511
  71        2S         -0.03985  -0.00445   0.02275   0.08043   0.22342
  72        3S          0.00475   0.02228   0.02000   0.06877   0.14208
  73        4S          0.00096   0.00016   0.00191   0.00721   0.06229
  74        5PX        -0.00243  -0.00197   0.00216  -0.00174  -0.00587
  75        5PY         0.00202   0.00107  -0.00124   0.00101   0.00499
  76        5PZ         0.00015  -0.00267  -0.00321   0.01429  -0.01057
  77        6PX         0.00513   0.00480  -0.00136   0.00856   0.04609
  78        6PY        -0.00079  -0.00309   0.00084  -0.00499  -0.02228
  79        6PZ        -0.00102  -0.00108  -0.01027   0.02822  -0.00495
  80        7PX         0.00801   0.00969  -0.00146   0.01098   0.03741
  81        7PY        -0.00298  -0.00592   0.00097  -0.00638  -0.02266
  82        7PZ         0.00256   0.00814   0.00316  -0.01403   0.00468
  83        8D 0        0.00035   0.00015  -0.00085   0.00060   0.00222
  84        8D+1       -0.00023  -0.00019  -0.00148   0.00583  -0.00254
  85        8D-1        0.00011   0.00011   0.00085  -0.00336   0.00251
  86        8D+2        0.00003  -0.00030   0.00031  -0.00094  -0.00021
  87        8D-2        0.00054   0.00045  -0.00052   0.00161   0.00247
  88        9D 0       -0.00013   0.00081  -0.00282   0.00599  -0.00285
  89        9D+1       -0.00064   0.00176  -0.00048  -0.00509   0.01269
  90        9D-1       -0.00031  -0.00095   0.00027   0.00291  -0.00478
  91        9D+2        0.00095  -0.00060  -0.00016   0.00056   0.00461
  92        9D-2       -0.00052   0.00087   0.00033  -0.00100  -0.00677
  93 4   H  1S          0.04048  -0.03509   0.02892  -0.00685  -0.03514
  94        2S          0.03985  -0.00445   0.02275   0.08043  -0.22355
  95        3S         -0.00475   0.02228   0.02000   0.06877  -0.14216
  96        4S         -0.00096   0.00016   0.00191   0.00721  -0.06232
  97        5PX        -0.00243   0.00197  -0.00216   0.00175  -0.00587
  98        5PY        -0.00202   0.00107  -0.00124   0.00101  -0.00499
  99        5PZ        -0.00015  -0.00267  -0.00321   0.01429   0.01058
 100        6PX         0.00513  -0.00480   0.00135  -0.00856   0.04612
 101        6PY         0.00079  -0.00309   0.00084  -0.00499   0.02229
 102        6PZ         0.00101  -0.00108  -0.01028   0.02822   0.00493
 103        7PX         0.00801  -0.00969   0.00146  -0.01099   0.03744
 104        7PY         0.00298  -0.00591   0.00096  -0.00638   0.02266
 105        7PZ        -0.00256   0.00814   0.00316  -0.01403  -0.00469
 106        8D 0       -0.00035   0.00015  -0.00085   0.00060  -0.00222
 107        8D+1       -0.00023   0.00019   0.00148  -0.00583  -0.00255
 108        8D-1       -0.00011   0.00011   0.00085  -0.00336  -0.00251
 109        8D+2       -0.00003  -0.00030   0.00031  -0.00094   0.00022
 110        8D-2        0.00054  -0.00045   0.00052  -0.00161   0.00247
 111        9D 0        0.00013   0.00081  -0.00283   0.00599   0.00285
 112        9D+1       -0.00064  -0.00176   0.00047   0.00510   0.01270
 113        9D-1        0.00031  -0.00095   0.00027   0.00291   0.00479
 114        9D+2       -0.00096  -0.00060  -0.00016   0.00056  -0.00461
 115        9D-2       -0.00052  -0.00087  -0.00033   0.00100  -0.00677
 116 5   Cl 1S          0.00000   0.01018   0.00051  -0.01679   0.00000
 117        2S          0.00000  -0.03887  -0.00172   0.05629   0.00000
 118        3S          0.00000   0.08033   0.01137  -0.15673   0.00000
 119        4S          0.00000   0.01239   0.00454  -0.03986   0.00000
 120        5S          0.00000   0.06887   0.01230  -0.04584   0.00000
 121        6S          0.00000   0.02040  -0.01255   0.01608   0.00000
 122        7PX         0.22360   0.00000  -0.00004  -0.00003   0.02105
 123        7PY        -0.00005  -0.01028   0.00002  -0.00010   0.00001
 124        7PZ        -0.00004   0.02659  -0.21014  -0.16343   0.00000
 125        8PX        -0.51154   0.00001   0.00008   0.00006  -0.03279
 126        8PY         0.00012   0.02350  -0.00005   0.00020  -0.00001
 127        8PZ         0.00009  -0.06210   0.46469   0.36066   0.00001
 128        9PX        -0.24710   0.00000   0.00004   0.00004  -0.03498
 129        9PY         0.00006   0.01136  -0.00004   0.00012  -0.00001
 130        9PZ         0.00004  -0.03096   0.21832   0.20652   0.00001
 131       10PX        -0.36768   0.00000   0.00006   0.00001   0.01674
 132       10PY         0.00009   0.01699  -0.00011   0.00001   0.00001
 133       10PZ         0.00006  -0.07209   0.31777   0.02910   0.00000
 134       11PX        -0.06213   0.00000   0.00001   0.00000   0.00590
 135       11PY         0.00002   0.00291  -0.00006   0.00000   0.00000
 136       11PZ         0.00001  -0.02395   0.04617   0.00720   0.00000
 137       12D 0        0.00000  -0.00471  -0.01241   0.06752   0.00002
 138       12D+1        0.00022   0.00000   0.00000   0.00002  -0.05796
 139       12D-1        0.00000   0.00002  -0.00004   0.00006  -0.00002
 140       12D+2        0.00000  -0.00002   0.00000   0.00000  -0.00001
 141       12D-2        0.00025   0.00000   0.00000   0.00000   0.00095
 142       13D 0        0.00000  -0.00751  -0.01944   0.09798   0.00003
 143       13D+1        0.00069   0.00000  -0.00001   0.00003  -0.08653
 144       13D-1        0.00000   0.00002  -0.00007   0.00014  -0.00003
 145       13D+2        0.00000  -0.00003   0.00000   0.00001  -0.00001
 146       13D-2        0.00056   0.00000   0.00000   0.00000   0.00149
 147       14D 0        0.00000   0.00154  -0.01323   0.03016   0.00000
 148       14D+1        0.00336   0.00000   0.00000   0.00001  -0.00940
 149       14D-1        0.00000  -0.00016  -0.00002   0.00004   0.00000
 150       14D+2        0.00000   0.00000   0.00001   0.00001   0.00000
 151       14D-2        0.00007   0.00000   0.00000   0.00000   0.00033
 152       15F 0        0.00000   0.00098   0.00459  -0.00358   0.00000
 153       15F+1       -0.00141   0.00000   0.00000   0.00000   0.00497
 154       15F-1        0.00000   0.00005   0.00001   0.00000   0.00000
 155       15F+2        0.00000   0.00001   0.00000   0.00001   0.00000
[...]
  79        6PZ        -0.33687  -0.02725   0.00860  -0.16402   0.14421
  80        7PX         1.13665  -9.98793  -0.37522  -1.73694   4.68143
  81        7PY        -0.30607  -0.25888 -10.42269   1.01221  -4.71767
  82        7PZ        -1.58123  -2.86656   1.64095   0.01849   0.70365
  83        8D 0       -0.03567   0.00859  -0.00650   0.02486  -0.01631
  84        8D+1        0.00999  -0.02959  -0.00657   0.00846  -0.00992
  85        8D-1       -0.00538  -0.00773  -0.03839  -0.00460   0.00914
  86        8D+2        0.06098   0.04955   0.09479   0.02434   0.03035
  87        8D-2       -0.10829   0.03391   0.04543  -0.04265  -0.02301
  88        9D 0       -0.49916   0.43638  -0.25413  -0.14957  -0.22869
  89        9D+1       -0.22871  -0.05225   0.24752  -0.04013   0.18076
  90        9D-1        0.12432   0.25565   0.24282   0.01842  -0.15798
  91        9D+2       -0.08617  -1.38780  -1.05170  -0.35565  -0.12909
  92        9D-2        0.23027   0.57578  -1.40286   0.62177  -0.34751
  93 4   H  1S         -0.03336  -0.00756  -0.00731  -0.00904   0.02317
  94        2S          0.10024   2.97837   1.84977  -0.52833  -1.91382
  95        3S          6.82978  24.55869  14.40871  -3.21617 -22.34996
  96        4S          1.52886  -1.68168  -0.94892  -1.93147  -9.68359
  97        5PX        -0.02560   0.10958   0.00128  -0.08135  -0.07462
  98        5PY        -0.01853   0.00383   0.10946  -0.04688  -0.07266
  99        5PZ         0.05988   0.00888   0.00697   0.03099   0.00916
 100        6PX        -0.54927  -2.18635  -0.44952   0.60589   0.85704
 101        6PY        -0.27431  -0.41894  -1.76028   0.35049   0.79075
 102        6PZ        -0.33669   0.02790   0.00876  -0.16422  -0.14451
 103        7PX        -1.13379  -9.98734   0.36962   1.73697   4.68215
 104        7PY        -0.30607   0.26489 -10.42261   1.01175   4.71651
 105        7PZ        -1.58193   2.86892   1.64180   0.01796  -0.70529
 106        8D 0       -0.03566  -0.00858  -0.00651   0.02487   0.01632
 107        8D+1       -0.01003  -0.02958   0.00651  -0.00845  -0.00990
 108        8D-1       -0.00542   0.00774  -0.03837  -0.00461  -0.00913
 109        8D+2        0.06106  -0.04955   0.09475   0.02436  -0.03036
 110        8D-2        0.10825   0.03400  -0.04547   0.04264  -0.02300
 111        9D 0       -0.49917  -0.43644  -0.25413  -0.14959   0.22857
 112        9D+1        0.22849  -0.05290  -0.24725   0.04016   0.18089
 113        9D-1        0.12444  -0.25588   0.24230   0.01862   0.15806
 114        9D+2       -0.08671   1.38841  -1.05056  -0.35593   0.12900
 115        9D-2       -0.23037   0.57442   1.40368  -0.62157  -0.34753
 116 5   Cl 1S          0.02026   0.00000   0.00038   0.01184   0.00000
 117        2S          0.28005   0.00005   0.00512   0.16477   0.00000
 118        3S          0.78132   0.00015   0.01468   0.46286   0.00000
 119        4S         -0.04141  -0.00001  -0.00006  -0.01496   0.00000
 120        5S         -4.34592  -0.00081  -0.08096  -3.03058  -0.00001
 121        6S         -9.84643  -0.00169  -0.25263 -13.30015  -0.00002
 122        7PX         0.00000   0.00081   0.00000   0.00000  -0.00293
 123        7PY        -0.00008   0.00000   0.00096  -0.00009   0.00000
 124        7PZ        -0.00467   0.00000  -0.00044  -0.02283   0.00000
 125        8PX        -0.00001   0.01897   0.00001  -0.00005  -0.05862
 126        8PY        -0.00108  -0.00001   0.01985  -0.00146   0.00001
 127        8PZ        -0.06635  -0.00001  -0.00560  -0.31962   0.00001
 128        9PX         0.00000  -0.00392   0.00000   0.00001   0.00983
 129        9PY         0.00040   0.00000  -0.00471   0.00033   0.00000
 130        9PZ         0.00219   0.00000   0.00135   0.07988   0.00000
 131       10PX         0.00106  -0.08302   0.00001   0.00091   0.41894
 132       10PY        -0.01190   0.00002  -0.06433   0.00930  -0.00006
 133       10PZ         5.92627   0.00107   0.14077   5.10621  -0.00006
 134       11PX         0.00036  -1.16205  -0.00034   0.00059  -0.25372
 135       11PY         0.01966   0.00036  -1.14870   0.01046   0.00004
 136       11PZ         0.80312   0.00032   0.02661   3.37603   0.00005
 137       12D 0        0.06816   0.00000   0.00132   0.00175   0.00000
 138       12D+1        0.00001   0.03082   0.00001   0.00000  -0.00343
 139       12D-1       -0.00118  -0.00001   0.03109  -0.00037   0.00000
 140       12D+2        0.00127   0.00001  -0.00732   0.00002   0.00000
 141       12D-2        0.00000  -0.00648   0.00001   0.00000   0.01228
 142       13D 0       -0.38843  -0.00004  -0.00760  -0.07067  -0.00001
 143       13D+1       -0.00010  -0.11267  -0.00004  -0.00002   0.02464
 144       13D-1        0.00499   0.00003  -0.11513   0.00130   0.00000
 145       13D+2       -0.00372  -0.00002   0.01639  -0.00021  -0.00001
 146       13D-2        0.00000   0.01401  -0.00002   0.00000  -0.04421
 147       14D 0       -1.40072  -0.00034  -0.03719  -1.25253   0.00010
 148       14D+1       -0.00049   0.31510   0.00009  -0.00038  -0.32130
 149       14D-1       -0.00332  -0.00009   0.30091  -0.00887   0.00001
 150       14D+2        0.00133   0.00005  -0.05936   0.00414  -0.00001
 151       14D-2        0.00001  -0.06724   0.00006   0.00000   0.20068
 152       15F 0       -0.04317  -0.00001  -0.00152   0.00115   0.00001
 153       15F+1       -0.00002   0.00406   0.00000   0.00000  -0.01853
 154       15F-1       -0.00003   0.00000   0.00394  -0.00019   0.00000
 155       15F+2       -0.00023   0.00000  -0.00947   0.00077   0.00000
 156       15F-2        0.00000  -0.01069   0.00000  -0.00001   0.01005
 157       15F+3        0.00000   0.00000   0.00000   0.00001   0.00004
 158       15F-3       -0.00934   0.00000   0.00018   0.02301   0.00000
 159       16F 0        0.23399   0.00005   0.00640   0.09014  -0.00003
 160       16F+1        0.00011  -0.01521  -0.00001   0.00004   0.06286
 161       16F-1       -0.00042  -0.00001  -0.01186   0.00120   0.00000
 162       16F+2        0.00048   0.00000   0.04444  -0.00236   0.00001
 163       16F-2       -0.00001   0.04892  -0.00001   0.00001  -0.04155
 164       16F+3        0.00001   0.00000   0.00001  -0.00002  -0.00006
 165       16F-3        0.01927   0.00001  -0.00029  -0.04305  -0.00001
 166 6   F  1S          0.04001   0.00001   0.00030  -0.02245   0.00000
 167        2S          0.14063   0.00003   0.00073  -0.08520   0.00000
 168        3S         -0.07186  -0.00001  -0.00078   0.03640   0.00000
 169        4S         -0.38038  -0.00008  -0.00216  -0.02298   0.00000
 170        5S         -0.03035   0.00002  -0.01166  -5.92962  -0.00001
 171        6PX         0.00000  -0.00717   0.00000   0.00000   0.00171
 172        6PY         0.00017   0.00000  -0.00724   0.00002   0.00000
 173        6PZ         0.00547   0.00000   0.00027   0.00223   0.00000
 174        7PX        -0.00002   0.03728   0.00001   0.00000  -0.00618
 175        7PY        -0.00057  -0.00001   0.03705  -0.00004   0.00000
 176        7PZ        -0.06440  -0.00002  -0.00199   0.00253   0.00000
 177        8PX         0.00016  -0.26347  -0.00007  -0.00004   0.00155
 178        8PY         0.00124   0.00008  -0.25708   0.00014   0.00000
 179        8PZ         0.63400   0.00017   0.01448  -0.24607   0.00000
 180        9PX         0.00000  -0.85545  -0.00026  -0.00043  -0.23169
 181        9PY        -0.00262   0.00026  -0.83890   0.00164   0.00004
 182        9PZ        -0.84864   0.00001  -0.02489  -2.48974   0.00003
 183       10D 0        0.01147   0.00001   0.00021  -0.00795   0.00000
 184       10D+1        0.00001  -0.01491  -0.00001   0.00000   0.00218
 185       10D-1        0.00001   0.00000  -0.01468   0.00003   0.00000
 186       10D+2       -0.00033   0.00000   0.00497  -0.00001   0.00000
 187       10D-2        0.00000   0.00466   0.00000   0.00000   0.00276
 188       11D 0       -0.04239  -0.00002  -0.00093   0.01567   0.00000
 189       11D+1       -0.00002   0.04792   0.00002   0.00000  -0.00378
 190       11D-1        0.00009  -0.00001   0.04717  -0.00009   0.00000
 191       11D+2        0.00132   0.00001  -0.01682   0.00000   0.00000
 192       11D-2        0.00000  -0.01554   0.00001   0.00000  -0.00980
 193       12D 0        0.41942   0.00012   0.00920  -0.01067   0.00001
 194       12D+1        0.00015  -0.13918  -0.00005   0.00000  -0.03139
 195       12D-1       -0.00225   0.00003  -0.13238  -0.00003   0.00000
 196       12D+2       -0.00523  -0.00002   0.06373  -0.00010   0.00000
 197       12D-2       -0.00001   0.05800  -0.00003   0.00000   0.01834
 198       13F 0       -0.02744   0.00000  -0.00073  -0.00762   0.00000
 199       13F+1       -0.00001  -0.01922   0.00000   0.00000   0.00802
 200       13F-1        0.00008   0.00001  -0.01900   0.00021   0.00000
 201       13F+2        0.00030  -0.00001  -0.00913  -0.00004   0.00000
 202       13F-2        0.00000  -0.00875   0.00000   0.00000   0.00270
 203       13F+3        0.00000   0.00008   0.00000   0.00000   0.00000
 204       13F-3        0.01244   0.00000   0.00006  -0.00149   0.00000
 205       14F 0        0.06868   0.00000   0.00178   0.01194   0.00001
 206       14F+1        0.00002   0.04116   0.00001   0.00000  -0.01772
 207       14F-1       -0.00066  -0.00002   0.04164  -0.00040   0.00000
 208       14F+2       -0.00083   0.00001   0.02553   0.00000  -0.00001
 209       14F-2        0.00000   0.02468   0.00001   0.00000  -0.00646
 210       14F+3       -0.00001  -0.00013   0.00000   0.00000   0.00003
 211       14F-3       -0.01667   0.00000   0.00001   0.00282   0.00000
                         211
     Eigenvalues --     0.00000
   1 1   C  1S         -0.00539
   2        2S         -0.03220
   3        3S         -0.00405
   4        4S         -0.28181
   5        5S         -0.05984
   6        6PX         0.00000
   7        6PY        -0.00810
   8        6PZ         0.00005
   9        7PX         0.00026
  10        7PY         1.61977
  11        7PZ         0.00556
  12        8PX         0.00274
  13        8PY        17.56085
  14        8PZ         0.02012
  15        9PX         0.00122
  16        9PY         7.89860
  17        9PZ        -0.00225
  18       10D 0        0.00098
  19       10D+1        0.00000
  20       10D-1       -0.00206
  21       10D+2        0.02330
  22       10D-2       -0.00001
  23       11D 0        0.00721
  24       11D+1       -0.00012
  25       11D-1       -0.21947
  26       11D+2        0.47350
  27       11D-2       -0.00014
  28       12D 0       -0.00765
  29       12D+1       -0.00012
  30       12D-1       -1.28435
  31       12D+2       -0.49149
  32       12D-2       -0.00014
  33       13F 0       -0.00044
  34       13F+1        0.00000
  35       13F-1        0.03699
  36       13F+2        0.00923
  37       13F-2        0.00001
  38       13F+3        0.00000
  39       13F-3       -0.00119
  40       14F 0       -0.00188
  41       14F+1       -0.00004
  42       14F-1       -0.40707
  43       14F+2       -0.08496
  44       14F-2       -0.00010
  45       14F+3       -0.00002
  46       14F-3        0.00286
  47 2   H  1S         -0.03035
  48        2S          2.41808
  49        3S         26.67567
  50        4S         11.28000
  51        5PX        -0.00002
  52        5PY        -0.11471
  53        5PZ        -0.01078
  54        6PX         0.00020
  55        6PY         1.38440
  56        6PZ         0.17366
  57        7PX         0.00101
  58        7PY         7.57734
  59        7PZ         0.82878
  60        8D 0       -0.02112
  61        8D+1        0.00000
  62        8D-1       -0.01341
  63        8D+2       -0.04669
  64        8D-2        0.00001
  65        9D 0       -0.27054
  66        9D+1        0.00000
  67        9D-1        0.27194
  68        9D+2       -0.27623
  69        9D-2        0.00011
  70 3   H  1S          0.01337
  71        2S         -1.14953
  72        3S        -13.22351
  73        4S         -5.63172
  74        5PX         0.07328
  75        5PY         0.00813
  76        5PZ         0.00546
  77        6PX        -0.80673
  78        6PY        -0.03476
  79        6PZ        -0.08691
  80        7PX        -4.76824
  81        7PY        -0.66638
  82        7PZ        -0.42426
  83        8D 0        0.00933
  84        8D+1        0.00882
  85        8D-1        0.00061
  86        8D+2        0.01070
  87        8D-2        0.03021
  88        9D 0        0.13546
  89        9D+1       -0.16005
  90        9D-1        0.00029
  91        9D+2       -0.48853
  92        9D-2       -0.11373
  93 4   H  1S          0.01337
  94        2S         -1.14966
  95        3S        -13.22478
  96        4S         -5.63224
  97        5PX        -0.07328
  98        5PY         0.00815
  99        5PZ         0.00549
 100        6PX         0.80675
 101        6PY        -0.03492
 102        6PZ        -0.08721
 103        7PX         4.76819
 104        7PY        -0.66733
 105        7PZ        -0.42599
 106        8D 0        0.00933
 107        8D+1       -0.00882
 108        8D-1        0.00063
 109        8D+2        0.01068
 110        8D-2       -0.03022
 111        9D 0        0.13538
 112        9D+1        0.16032
 113        9D-1        0.00021
 114        9D+2       -0.48841
 115        9D-2        0.11396
 116 5   Cl 1S          0.00001
 117        2S          0.00015
 118        3S          0.00021
 119        4S         -0.00037
 120        5S         -0.00560
 121        6S          0.02213
 122        7PX         0.00000
 123        7PY        -0.00302
 124        7PZ         0.00013
 125        8PX        -0.00001
 126        8PY        -0.05943
 127        8PZ         0.00168
 128        9PX         0.00000
 129        9PY         0.01022
 130        9PZ        -0.00043
 131       10PX         0.00006
 132       10PY         0.42106
 133       10PZ        -0.00854
 134       11PX        -0.00004
 135       11PY        -0.24590
 136       11PZ        -0.00957
 137       12D 0       -0.00001
 138       12D+1        0.00000
 139       12D-1       -0.00387
 140       12D+2        0.01213
 141       12D-2        0.00000
 142       13D 0        0.00033
 143       13D+1        0.00001
 144       13D-1        0.02656
 145       13D+2       -0.04375
 146       13D-2        0.00002
 147       14D 0        0.00422
 148       14D+1       -0.00008
 149       14D-1       -0.32258
 150       14D+2        0.19949
 151       14D-2       -0.00010
 152       15F 0        0.00012
 153       15F+1       -0.00001
 154       15F-1       -0.01810
 155       15F+2        0.01019
 156       15F-2       -0.00001
 157       15F+3        0.00000
 158       15F-3       -0.00016
 159       16F 0       -0.00079
 160       16F+1        0.00002
 161       16F-1        0.06115
 162       16F+2       -0.04162
 163       16F-2        0.00003
 164       16F+3       -0.00001
 165       16F-3        0.00037
 166 6   F  1S         -0.00007
 167        2S         -0.00033
 168        3S          0.00004
 169        4S          0.00105
 170        5S         -0.00129
 171        6PX         0.00000
 172        6PY         0.00177
 173        6PZ        -0.00007
 174        7PX         0.00000
 175        7PY        -0.00639
 176        7PZ         0.00024
 177        8PX         0.00000
 178        8PY         0.00156
 179        8PZ         0.00101
 180        9PX        -0.00004
 181        9PY        -0.22818
 182        9PZ         0.00107
 183       10D 0       -0.00004
 184       10D+1        0.00000
 185       10D-1        0.00220
 186       10D+2        0.00286
 187       10D-2        0.00000
 188       11D 0        0.00012
 189       11D+1        0.00000
 190       11D-1       -0.00385
 191       11D+2       -0.01010
 192       11D-2        0.00000
 193       12D 0        0.00059
 194       12D+1       -0.00001
 195       12D-1       -0.03259
 196       12D+2        0.01889
 197       12D-2       -0.00001
 198       13F 0       -0.00002
 199       13F+1        0.00000
 200       13F-1        0.00810
 201       13F+2        0.00256
 202       13F-2        0.00000
 203       13F+3        0.00000
 204       13F-3        0.00009
 205       14F 0        0.00006
 206       14F+1        0.00000
 207       14F-1       -0.01818
 208       14F+2       -0.00631
 209       14F-2        0.00000
 210       14F+3        0.00000
 211       14F-3       -0.00018
          Condensed to atoms (all electrons):
              1          2          3          4          5          6
     1  C    7.025290  -0.016824  -0.009654  -0.009654  -0.050786  -0.099883
     2  H   -0.016824   0.547748   0.020790   0.020790  -0.018650   0.004713
     3  H   -0.009654   0.020790   0.547546   0.018974  -0.018496   0.004366
     4  H   -0.009654   0.020790   0.018974   0.547545  -0.018496   0.004365
     5  Cl  -0.050786  -0.018650  -0.018496  -0.018496  17.708684   0.026367
     6  F   -0.099883   0.004713   0.004366   0.004365   0.026367   9.907343
 Mulliken atomic charges:
              1
     1  C   -0.838489
     2  H    0.441433
     3  H    0.436473
     4  H    0.436476
     5  Cl  -0.628622
     6  F   -0.847271
 Sum of Mulliken atomic charges =  -1.00000
 Mulliken charges with hydrogens summed into heavy atoms:
              1
     1  C    0.475892
     5  Cl  -0.628622
     6  F   -0.847271
 Sum of Mulliken charges with hydrogens summed into heavy atoms =  -1.00000
 Electronic spatial extent (au):  <R**2>=            490.2236
 Charge=             -1.0000 electrons
 Dipole moment (field-independent basis, Debye):
    X=             -0.0006    Y=              0.0020    Z=              4.0683  Tot=              4.0683
 Quadrupole moment (field-independent basis, Debye-Ang):
   XX=            -28.1714   YY=            -28.1854   ZZ=            -62.8064
   XY=              0.0000   XZ=             -0.0050   YZ=             -0.0142
 Traceless Quadrupole moment (field-independent basis, Debye-Ang):
   XX=             11.5496   YY=             11.5357   ZZ=            -23.0853
   XY=              0.0000   XZ=             -0.0050   YZ=             -0.0142
 Octapole moment (field-independent basis, Debye-Ang**2):
  XXX=             -0.0244  YYY=             -0.9884  ZZZ=             49.6817  XYY=             -0.0086
  XXY=              0.9224  XXZ=             -4.2407  XZZ=             -0.0066  YZZ=              0.0060
  YYZ=             -4.2290  XYZ=             -0.0002
 Hexadecapole moment (field-independent basis, Debye-Ang**3):
 XXXX=            -41.2533 YYYY=            -41.1724 ZZZZ=           -761.5399 XXXY=              0.0004
 XXXZ=             -0.0507 YYYX=             -0.0002 YYYZ=              0.5264 ZZZX=             -0.0657
 ZZZY=             -0.1592 XXYY=            -13.7261 XXZZ=           -103.3704 YYZZ=           -103.3557
 XXYZ=             -0.6645 YYXZ=             -0.0166 ZZXY=              0.0002
 N-N= 8.502603960223D+01 E-N=-1.604272293580D+03  KE= 5.992104794649D+02
 1\1\GINC-TRAPISTA\SP\RQCISD-FC\Aug-CC-pVTZ\C1H3Cl1F1(1-)\BRUNS\10-Aug-
 2021\0\\# QCISD aug-cc-pvtz nosymm density=current output=wfn\\title l
 ine\\-1,1\C,0,0.000175,0.000029,-0.497709\H,0,0.000019,-1.04257,-0.620
 726\H,0,-0.911312,0.526365,-0.621245\H,0,0.91175,0.526132,-0.62157\Cl,
 0,0.000555,0.000962,1.644718\F,0,-0.000186,-0.000921,-2.59346\\Version
 =EM64L-G09RevB.01\HF=-598.6170472\MP2=-599.2910412\MP3=-599.3097545\MP
 4D=-599.3246253\MP4DQ=-599.3102003\MP4SDQ=-599.3195548\QCISD=-599.3189
 354\RMSD=9.465e-09\Dipole=0.0002718,0.0017535,1.5881202\Quadrupole=8.5
 868811,8.5765094,-17.1633905,-0.0000016,-0.003691,-0.0105285\PG=C01 [X
 (C1H3Cl1F1)]\\@

 Writing a WFN file to GAUSSIAN+YH_2.wfn.


 A MAN THINKING OR WORKING IS ALWAYS ALONE, 
 LET HIM BE WHERE HE WILL.

                                    -- THOREAU
 Job cpu time:  0 days  6 hours 55 minutes 39.7 seconds.
 File lengths (MBytes):  RWF=  29002 Int=      0 D2E=      0 Chk=      4 Scr=      1
 Normal termination of Gaussian 09 at Tue Aug 10 18:23:57 2021.
