 title line
GAUSSIAN            211 MOL ORBITALS    339 PRIMITIVES        6 NUCLEI
  C    1    (CENTRE  1)   0.00033070  0.00005480 -0.94053370  CHARGE =  6.0
  H    2    (CENTRE  2)   0.00003590 -1.98906904 -1.17300214  CHARGE =  1.0
  H    3    (CENTRE  3)  -1.74102736  0.99468570 -1.17398291  CHARGE =  1.0
  H    4    (CENTRE  4)   1.72295780  0.99424539 -1.17459707  CHARGE =  1.0
  Cl   5    (CENTRE  5)   0.00104880  0.00181792  3.10806659  CHARGE = 17.0
  F    6    (CENTRE  6)  -0.00035149 -0.00174044 -4.90092914  CHARGE =  9.0
CENTRE ASSIGNMENTS    1  1  1  1  1  1  1  1  1  1  1  1  1  1  1  1  1  1  1  1
CENTRE ASSIGNMENTS    1  1  1  1  1  1  1  1  1  1  1  1  1  1  1  1  1  1  1  1
CENTRE ASSIGNMENTS    1  1  1  1  1  1  1  1  1  1  1  1  1  1  1  1  1  1  1  1
CENTRE ASSIGNMENTS    1  1  1  1  1  1  1  1  1  1  1  1  2  2  2  2  2  2  2  2
CENTRE ASSIGNMENTS    2  2  2  2  2  2  2  2  2  2  2  2  2  2  2  2  2  2  2  3
CENTRE ASSIGNMENTS    3  3  3  3  3  3  3  3  3  3  3  3  3  3  3  3  3  3  3  3
CENTRE ASSIGNMENTS    3  3  3  3  3  3  4  4  4  4  4  4  4  4  4  4  4  4  4  4
CENTRE ASSIGNMENTS    4  4  4  4  4  4  4  4  4  4  4  4  4  5  5  5  5  5  5  5
CENTRE ASSIGNMENTS    5  5  5  5  5  5  5  5  5  5  5  5  5  5  5  5  5  5  5  5
CENTRE ASSIGNMENTS    5  5  5  5  5  5  5  5  5  5  5  5  5  5  5  5  5  5  5  5
CENTRE ASSIGNMENTS    5  5  5  5  5  5  5  5  5  5  5  5  5  5  5  5  5  5  5  5
CENTRE ASSIGNMENTS    5  5  5  5  5  5  5  5  5  5  5  5  5  5  5  5  5  5  5  5
CENTRE ASSIGNMENTS    5  5  5  5  5  5  5  5  5  5  5  5  5  5  5  5  5  5  5  5
CENTRE ASSIGNMENTS    5  5  5  5  5  5  5  6  6  6  6  6  6  6  6  6  6  6  6  6
CENTRE ASSIGNMENTS    6  6  6  6  6  6  6  6  6  6  6  6  6  6  6  6  6  6  6  6
CENTRE ASSIGNMENTS    6  6  6  6  6  6  6  6  6  6  6  6  6  6  6  6  6  6  6  6
CENTRE ASSIGNMENTS    6  6  6  6  6  6  6  6  6  6  6  6  6  6  6  6  6  6  6
TYPE ASSIGNMENTS      1  1  1  1  1  1  1  1  1  1  1  1  1  1  1  1  2  2  2  3
TYPE ASSIGNMENTS      3  3  4  4  4  2  3  4  2  3  4  2  3  4  5  6  7  8  9 10
TYPE ASSIGNMENTS      5  6  7  8  9 10  5  6  7  8  9 10 11 12 13 17 14 15 18 19
TYPE ASSIGNMENTS     16 20 11 12 13 17 14 15 18 19 16 20  1  1  1  1  1  1  2  3
TYPE ASSIGNMENTS      4  2  3  4  2  3  4  5  6  7  8  9 10  5  6  7  8  9 10  1
TYPE ASSIGNMENTS      1  1  1  1  1  2  3  4  2  3  4  2  3  4  5  6  7  8  9 10
TYPE ASSIGNMENTS      5  6  7  8  9 10  1  1  1  1  1  1  2  3  4  2  3  4  2  3
TYPE ASSIGNMENTS      4  5  6  7  8  9 10  5  6  7  8  9 10  1  1  1  1  1  1  1
TYPE ASSIGNMENTS      1  1  1  1  1  1  1  1  1  1  1  1  1  1  1  1  1  1  1  1
TYPE ASSIGNMENTS      1  1  1  1  2  2  2  2  2  2  3  3  3  3  3  3  4  4  4  4
TYPE ASSIGNMENTS      4  4  2  2  2  2  2  2  3  3  3  3  3  3  4  4  4  4  4  4
TYPE ASSIGNMENTS      2  3  4  2  3  4  2  3  4  5  6  7  8  9 10  5  6  7  8  9
TYPE ASSIGNMENTS     10  5  6  7  8  9 10 11 12 13 17 14 15 18 19 16 20 11 12 13
TYPE ASSIGNMENTS     17 14 15 18 19 16 20  1  1  1  1  1  1  1  1  1  1  1  1  1
TYPE ASSIGNMENTS      1  1  1  2  2  2  3  3  3  4  4  4  2  3  4  2  3  4  2  3
TYPE ASSIGNMENTS      4  5  6  7  8  9 10  5  6  7  8  9 10  5  6  7  8  9 10 11
TYPE ASSIGNMENTS     12 13 17 14 15 18 19 16 20 11 12 13 17 14 15 18 19 16 20
EXPONENTS  0.8236000D+04 0.1235000D+04 0.2808000D+03 0.7927000D+02 0.2559000D+02
EXPONENTS  0.8997000D+01 0.3319000D+01 0.2808000D+03 0.7927000D+02 0.2559000D+02
EXPONENTS  0.8997000D+01 0.3319000D+01 0.3643000D+00 0.9059000D+00 0.1285000D+00
EXPONENTS  0.4402000D-01 0.1871000D+02 0.4133000D+01 0.1200000D+01 0.1871000D+02
EXPONENTS  0.4133000D+01 0.1200000D+01 0.1871000D+02 0.4133000D+01 0.1200000D+01
EXPONENTS  0.3827000D+00 0.3827000D+00 0.3827000D+00 0.1209000D+00 0.1209000D+00
EXPONENTS  0.1209000D+00 0.3569000D-01 0.3569000D-01 0.3569000D-01 0.1097000D+01
EXPONENTS  0.1097000D+01 0.1097000D+01 0.1097000D+01 0.1097000D+01 0.1097000D+01
EXPONENTS  0.3180000D+00 0.3180000D+00 0.3180000D+00 0.3180000D+00 0.3180000D+00
EXPONENTS  0.3180000D+00 0.1000000D+00 0.1000000D+00 0.1000000D+00 0.1000000D+00
EXPONENTS  0.1000000D+00 0.1000000D+00 0.7610000D+00 0.7610000D+00 0.7610000D+00
EXPONENTS  0.7610000D+00 0.7610000D+00 0.7610000D+00 0.7610000D+00 0.7610000D+00
EXPONENTS  0.7610000D+00 0.7610000D+00 0.2680000D+00 0.2680000D+00 0.2680000D+00
EXPONENTS  0.2680000D+00 0.2680000D+00 0.2680000D+00 0.2680000D+00 0.2680000D+00
EXPONENTS  0.2680000D+00 0.2680000D+00 0.3387000D+02 0.5095000D+01 0.1159000D+01
EXPONENTS  0.3258000D+00 0.1027000D+00 0.2526000D-01 0.1407000D+01 0.1407000D+01
EXPONENTS  0.1407000D+01 0.3880000D+00 0.3880000D+00 0.3880000D+00 0.1020000D+00
EXPONENTS  0.1020000D+00 0.1020000D+00 0.1057000D+01 0.1057000D+01 0.1057000D+01
EXPONENTS  0.1057000D+01 0.1057000D+01 0.1057000D+01 0.2470000D+00 0.2470000D+00
EXPONENTS  0.2470000D+00 0.2470000D+00 0.2470000D+00 0.2470000D+00 0.3387000D+02
EXPONENTS  0.5095000D+01 0.1159000D+01 0.3258000D+00 0.1027000D+00 0.2526000D-01
EXPONENTS  0.1407000D+01 0.1407000D+01 0.1407000D+01 0.3880000D+00 0.3880000D+00
EXPONENTS  0.3880000D+00 0.1020000D+00 0.1020000D+00 0.1020000D+00 0.1057000D+01
EXPONENTS  0.1057000D+01 0.1057000D+01 0.1057000D+01 0.1057000D+01 0.1057000D+01
EXPONENTS  0.2470000D+00 0.2470000D+00 0.2470000D+00 0.2470000D+00 0.2470000D+00
EXPONENTS  0.2470000D+00 0.3387000D+02 0.5095000D+01 0.1159000D+01 0.3258000D+00
EXPONENTS  0.1027000D+00 0.2526000D-01 0.1407000D+01 0.1407000D+01 0.1407000D+01
EXPONENTS  0.3880000D+00 0.3880000D+00 0.3880000D+00 0.1020000D+00 0.1020000D+00
EXPONENTS  0.1020000D+00 0.1057000D+01 0.1057000D+01 0.1057000D+01 0.1057000D+01
EXPONENTS  0.1057000D+01 0.1057000D+01 0.2470000D+00 0.2470000D+00 0.2470000D+00
EXPONENTS  0.2470000D+00 0.2470000D+00 0.2470000D+00 0.4561000D+06 0.6833000D+05
EXPONENTS  0.1555000D+05 0.4405000D+04 0.1439000D+04 0.5204000D+03 0.2031000D+03
EXPONENTS  0.8396000D+02 0.3620000D+02 0.1583000D+02 0.6334000D+01 0.4405000D+04
EXPONENTS  0.1439000D+04 0.5204000D+03 0.2031000D+03 0.8396000D+02 0.3620000D+02
EXPONENTS  0.1583000D+02 0.6334000D+01 0.2694000D+01 0.1439000D+04 0.2031000D+03
EXPONENTS  0.8396000D+02 0.3620000D+02 0.1583000D+02 0.6334000D+01 0.2694000D+01
EXPONENTS  0.4313000D+00 0.9768000D+00 0.1625000D+00 0.5910000D-01 0.6633000D+03
EXPONENTS  0.1568000D+03 0.4998000D+02 0.1842000D+02 0.7240000D+01 0.2922000D+01
EXPONENTS  0.6633000D+03 0.1568000D+03 0.4998000D+02 0.1842000D+02 0.7240000D+01
EXPONENTS  0.2922000D+01 0.6633000D+03 0.1568000D+03 0.4998000D+02 0.1842000D+02
EXPONENTS  0.7240000D+01 0.2922000D+01 0.1568000D+03 0.4998000D+02 0.1842000D+02
EXPONENTS  0.7240000D+01 0.2922000D+01 0.3818000D+00 0.1568000D+03 0.4998000D+02
EXPONENTS  0.1842000D+02 0.7240000D+01 0.2922000D+01 0.3818000D+00 0.1568000D+03
EXPONENTS  0.4998000D+02 0.1842000D+02 0.7240000D+01 0.2922000D+01 0.3818000D+00
EXPONENTS  0.1022000D+01 0.1022000D+01 0.1022000D+01 0.1301000D+00 0.1301000D+00
EXPONENTS  0.1301000D+00 0.4190000D-01 0.4190000D-01 0.4190000D-01 0.1046000D+01
EXPONENTS  0.1046000D+01 0.1046000D+01 0.1046000D+01 0.1046000D+01 0.1046000D+01
EXPONENTS  0.3440000D+00 0.3440000D+00 0.3440000D+00 0.3440000D+00 0.3440000D+00
EXPONENTS  0.3440000D+00 0.1350000D+00 0.1350000D+00 0.1350000D+00 0.1350000D+00
EXPONENTS  0.1350000D+00 0.1350000D+00 0.7060000D+00 0.7060000D+00 0.7060000D+00
EXPONENTS  0.7060000D+00 0.7060000D+00 0.7060000D+00 0.7060000D+00 0.7060000D+00
EXPONENTS  0.7060000D+00 0.7060000D+00 0.3120000D+00 0.3120000D+00 0.3120000D+00
EXPONENTS  0.3120000D+00 0.3120000D+00 0.3120000D+00 0.3120000D+00 0.3120000D+00
EXPONENTS  0.3120000D+00 0.3120000D+00 0.1950000D+05 0.2923000D+04 0.6645000D+03
EXPONENTS  0.1875000D+03 0.6062000D+02 0.2142000D+02 0.7950000D+01 0.6645000D+03
EXPONENTS  0.1875000D+03 0.6062000D+02 0.2142000D+02 0.7950000D+01 0.8815000D+00
EXPONENTS  0.2257000D+01 0.3041000D+00 0.9158000D-01 0.4388000D+02 0.9926000D+01
EXPONENTS  0.2930000D+01 0.4388000D+02 0.9926000D+01 0.2930000D+01 0.4388000D+02
EXPONENTS  0.9926000D+01 0.2930000D+01 0.9132000D+00 0.9132000D+00 0.9132000D+00
EXPONENTS  0.2672000D+00 0.2672000D+00 0.2672000D+00 0.7361000D-01 0.7361000D-01
EXPONENTS  0.7361000D-01 0.3107000D+01 0.3107000D+01 0.3107000D+01 0.3107000D+01
EXPONENTS  0.3107000D+01 0.3107000D+01 0.8550000D+00 0.8550000D+00 0.8550000D+00
EXPONENTS  0.8550000D+00 0.8550000D+00 0.8550000D+00 0.2920000D+00 0.2920000D+00
EXPONENTS  0.2920000D+00 0.2920000D+00 0.2920000D+00 0.2920000D+00 0.1917000D+01
EXPONENTS  0.1917000D+01 0.1917000D+01 0.1917000D+01 0.1917000D+01 0.1917000D+01
EXPONENTS  0.1917000D+01 0.1917000D+01 0.1917000D+01 0.1917000D+01 0.7240000D+00
EXPONENTS  0.7240000D+00 0.7240000D+00 0.7240000D+00 0.7240000D+00 0.7240000D+00
EXPONENTS  0.7240000D+00 0.7240000D+00 0.7240000D+00 0.7240000D+00
MO    1     MO 0.0        OCC NO =    2.0000300  ORB. ENERGY =    0.000000
 -0.14912362D-04 -0.27799647D-04 -0.46985192D-04 -0.70627506D-04 -0.86753242D-04
 -0.73216675D-04 -0.27531382D-04 -0.14286426D-07 -0.10678218D-06 -0.39906941D-06
 -0.11133415D-05 -0.14915707D-05  0.17612668D-05 -0.14112841D-06  0.23678189D-04
  0.55811052D-06  0.75650509D-04  0.70927161D-04  0.50504364D-04 -0.78336586D-04
 -0.73445528D-04 -0.52297592D-04  0.97149851D-07  0.91084160D-07  0.64857348D-07
  0.24380408D-03 -0.25292919D-03  0.35470133D-05  0.31881114D-03 -0.32881907D-03
 -0.15383456D-05  0.65085320D-05 -0.67984110D-05 -0.15441559D-07 -0.45434340D-04
  0.45653727D-04 -0.21938633D-06  0.86252847D-04 -0.35701129D-03  0.36685745D-03
 -0.13736855D-03  0.13854248D-03 -0.11739256D-05  0.26606450D-03  0.65782077D-04
 -0.69427381D-04 -0.29438071D-04  0.29359162D-04  0.78909468D-07  0.56964133D-04
 -0.46018081D-04  0.47121318D-04  0.64986857D-04 -0.66137557D-04 -0.79460858D-06
  0.62678992D-04 -0.66110720D-04 -0.16972733D-04 -0.25763956D-03  0.26452339D-03
  0.19356559D-04  0.30474764D-04 -0.18316758D-04  0.18598390D-04 -0.18886279D-06
 -0.19630657D-04  0.20656544D-04 -0.35674100D-04  0.74580930D-04 -0.76451714D-04
  0.36240689D-04  0.69529627D-04  0.28725921D-04  0.51808381D-04  0.76391427D-04
 -0.26437120D-03 -0.80140154D-03  0.85246420D-05  0.32083487D-05 -0.51216974D-04
 -0.17534471D-04  0.59235446D-04 -0.20417881D-03 -0.19412727D-03  0.52371576D-04
 -0.12262057D-03 -0.15932684D-04  0.78617394D-04 -0.29290945D-04 -0.49326450D-04
  0.22514163D-04 -0.32832540D-04 -0.21356799D-03  0.31101369D-04  0.89813034D-05
 -0.40082672D-04  0.20053176D-04  0.42521123D-04 -0.22229013D-04 -0.39208418D-04
 -0.70713996D-04 -0.10426775D-03  0.33413255D-03  0.10584186D-02 -0.11616254D-04
  0.55972512D-04 -0.33967398D-04  0.21002634D-04  0.22566120D-03 -0.15467816D-03
  0.25420168D-03  0.13215362D-03 -0.98317591D-04  0.21365729D-04  0.24351733D-05
 -0.65788021D-04  0.63352848D-04 -0.13226879D-03  0.25187851D-03 -0.12869080D-03
 -0.21918718D-04 -0.30538770D-04  0.52457488D-04 -0.29835106D-04  0.17730765D-04
 -0.28684782D-04  0.97394320D-05  0.17565467D-04  0.25900270D-04 -0.93566739D-04
 -0.27240934D-03  0.29795355D-05  0.17972507D-04  0.49064416D-05 -0.60773494D-05
  0.99448643D-04 -0.33223913D-04 -0.65450199D-04  0.72371351D-04 -0.41972917D-04
 -0.51842494D-05 -0.12904307D-04  0.29969721D-04 -0.17065414D-04 -0.17713780D-04
  0.39423260D-04  0.75386063D-04 -0.68400354D-05  0.20801633D-04 -0.13961598D-04
  0.73512958D-05  0.35958362D-04 -0.47370827D-04  0.52839564D-04  0.98857186D-04
  0.17080329D-03  0.27689220D-03  0.42048738D-03  0.58443790D-03  0.69485188D-03
  0.61899820D-03  0.30740759D-03  0.49490022D-04  0.52214897D-06  0.24799792D-06
  0.82727953D-05  0.28829036D-04  0.10381802D-03  0.22885392D-03  0.32215245D-03
 -0.15367722D-04 -0.42159243D-03 -0.24928496D-03  0.50938233D-08  0.61698640D-07
  0.12866601D-06  0.36899171D-06  0.19161226D-07 -0.15912712D-05 -0.41115392D-05
  0.33498886D-05 -0.15512332D-04  0.13911731D-05 -0.15971553D-06  0.80868466D+01
  0.10652269D+02  0.11751120D+02  0.97602251D+01  0.51829504D+01  0.13372283D+01
 -0.83313986D+01 -0.10974401D+02 -0.12106482D+02 -0.10055381D+02 -0.53396865D+01
 -0.13776670D+01  0.60999318D-02  0.80350372D-02  0.88639038D-02  0.73621661D-02
  0.39095145D-02  0.10086752D-02 -0.32005461D-03  0.30940821D-02  0.43629787D-02
  0.62402137D-02 -0.31599564D-04 -0.57228645D-02  0.32970092D-03 -0.31873363D-02
 -0.44944770D-02 -0.64282910D-02  0.32551961D-04  0.58953491D-02 -0.26255339D-06
  0.25381973D-05  0.35791231D-05  0.51190928D-05 -0.25922366D-07 -0.46946909D-05
  0.53388246D-01 -0.55001929D-01  0.40928596D-04 -0.44827615D-03  0.46215270D-03
 -0.44957011D-06 -0.40388704D-04  0.41637038D-04 -0.15960214D-07 -0.88215829D-05
  0.96897296D-05 -0.86814665D-06  0.16551675D-04 -0.68314416D-03  0.70316889D-03
  0.30422148D-05 -0.34310379D-05  0.38882307D-06 -0.59173329D-05  0.24792893D-03
 -0.25499696D-03 -0.93979640D-06  0.96767914D-06 -0.27882739D-07  0.17725302D-05
 -0.42585281D-04  0.43680418D-04  0.16340377D-05 -0.16384275D-05 -0.47725439D-07
  0.17221352D-05 -0.14850825D-05 -0.25300903D-04 -0.66242482D-05  0.64003649D-05
  0.25444079D-04  0.48798588D-04  0.10181125D-04 -0.10497186D-04 -0.54939117D-07
  0.10179706D-04 -0.10546084D-04  0.52805117D-05 -0.40723081D-04  0.42037641D-04
 -0.51156944D-05 -0.10062260D-04 -0.17650388D-05 -0.32900354D-05 -0.55773430D-05
 -0.84448516D-05 -0.10557925D-04 -0.90817084D-05 -0.34830306D-05 -0.22814218D-08
 -0.30201752D-07 -0.10969826D-06 -0.32541782D-06 -0.37497831D-06  0.45546701D-06
 -0.24972210D-06 -0.83802003D-06 -0.73993713D-07 -0.20575486D-03 -0.20122376D-03
 -0.13295704D-03  0.21042089D-03  0.20578704D-03  0.13597220D-03  0.32515260D-05
  0.31799214D-05  0.21011086D-05 -0.61597005D-05  0.60416062D-05  0.96384150D-06
 -0.47061603D-04  0.48143268D-04 -0.59616570D-06 -0.13656779D-04  0.14082539D-04
  0.38331665D-07 -0.51073214D-04  0.51096438D-04 -0.23224079D-07  0.98251246D-04
 -0.91794401D-04  0.95818910D-04  0.25584119D-04 -0.25638670D-04  0.54550660D-07
 -0.49214292D-04  0.70918170D-04 -0.73538505D-04 -0.12844581D-04  0.13061767D-04
 -0.21718619D-06  0.24807899D-04 -0.51891435D-04  0.53338466D-04 -0.50369736D-04
  0.51297814D-04  0.28836274D-06 -0.49722432D-04  0.51241741D-04  0.13538116D-03
  0.20083164D-03 -0.20513518D-03 -0.13624625D-03 -0.25932088D-03  0.17885584D-04
 -0.18216692D-04 -0.11274928D-06  0.17691965D-04 -0.18182626D-04 -0.42931840D-04
 -0.71348718D-04  0.72832702D-04  0.43270088D-04  0.82243667D-04
MO    2     MO 0.0        OCC NO =    2.0000300  ORB. ENERGY =    0.000000
  0.45276058D-05  0.84403693D-05  0.14265374D-04  0.21443518D-04  0.26339521D-04
  0.22229626D-04  0.83589201D-05 -0.96826206D-08 -0.72371590D-07 -0.27046916D-06
 -0.75456683D-06 -0.10109115D-05  0.11936980D-05  0.23118520D-05 -0.75183435D-05
 -0.25605134D-06  0.79534984D-04  0.74569103D-04  0.53097644D-04  0.77545165D-04
  0.72703521D-04  0.51769238D-04 -0.28366584D-06 -0.26595476D-06 -0.18937563D-06
  0.25971835D-03  0.25390748D-03  0.92179667D-06  0.33256200D-03  0.32317186D-03
 -0.60546832D-08  0.66251051D-05  0.65210165D-05 -0.11229078D-08  0.45093276D-04
 -0.44396167D-04 -0.69710990D-06  0.91490241D-04 -0.36681014D-03 -0.35515788D-03
  0.13277583D-03 -0.13442883D-03  0.16529990D-05  0.27815363D-03  0.69292001D-04
  0.68861752D-04  0.28499319D-04 -0.28039492D-04 -0.45982643D-06  0.59171609D-04
 -0.47571185D-04 -0.45900476D-04  0.67348216D-04  0.64438770D-04 -0.10886030D-06
  0.64597630D-04  0.64626803D-04  0.18909232D-04 -0.26664228D-03 -0.25794311D-03
 -0.18582651D-04  0.34281096D-04 -0.18954735D-04 -0.17921988D-04 -0.11528656D-06
 -0.20280421D-04 -0.20750137D-04  0.34533371D-04  0.77144626D-04  0.74516102D-04
 -0.34187511D-04  0.71750446D-04 -0.27829270D-04 -0.50191235D-04 -0.74006947D-04
  0.25981337D-03  0.78117698D-03 -0.84024663D-05  0.29178545D-05  0.49965657D-04
  0.17407004D-04  0.62263049D-04  0.20100271D-03  0.18778827D-03  0.54694742D-04
  0.12033608D-03  0.15381293D-04 -0.76564904D-04  0.29478597D-04  0.47086307D-04
  0.23814860D-04 -0.33398773D-04  0.20743267D-03 -0.30620762D-04 -0.84023779D-05
  0.39023140D-04  0.21022839D-04  0.43996877D-04  0.21587158D-04 -0.11196581D-04
 -0.20193495D-04 -0.29775296D-04  0.10431201D-03  0.30613703D-03 -0.34377988D-05
  0.19618266D-04 -0.51741055D-05  0.63922831D-05  0.10760589D-03  0.26529863D-04
  0.72618831D-04  0.76977628D-04  0.38217218D-04  0.58133767D-05  0.14293261D-04
 -0.32505278D-04  0.18212017D-04 -0.22806252D-04  0.48082759D-04 -0.78786476D-04
  0.62171177D-05 -0.21959158D-04  0.15742040D-04  0.60858809D-05  0.35862408D-04
  0.45719018D-04  0.38977818D-04  0.70298100D-04  0.10365451D-03 -0.34942865D-03
 -0.10879034D-02  0.11865437D-04  0.59566149D-04  0.35687628D-04 -0.23961587D-04
  0.23024001D-03  0.15707157D-03 -0.26080196D-03  0.13524832D-03  0.98834751D-04
 -0.21759327D-04 -0.79187183D-06  0.66488543D-04 -0.65696671D-04 -0.13173359D-03
  0.25538888D-03  0.13407619D-03  0.22163364D-04  0.31199034D-04 -0.53362398D-04
 -0.29726243D-04  0.18731003D-04  0.27580729D-04  0.12819645D-05  0.23984188D-05
  0.41439357D-05  0.67178067D-05  0.10201634D-04  0.14179312D-04  0.16858115D-04
  0.15017795D-04  0.74581543D-05  0.12006998D-05  0.12668092D-07  0.66963984D-08
  0.22338064D-06  0.77843681D-06  0.28032770D-05  0.61794753D-05  0.86987067D-05
 -0.41495666D-06 -0.11383768D-04 -0.67311510D-05 -0.10896355D-08 -0.13198147D-07
 -0.27523343D-07 -0.78932157D-07 -0.40988370D-08  0.34039374D-06  0.87951206D-06
 -0.71658503D-06 -0.23968303D-06  0.24246834D-05  0.44171856D-06  0.83313902D+01
  0.10974390D+02  0.12106470D+02  0.10055371D+02  0.53396811D+01  0.13776656D+01
  0.80868389D+01  0.10652259D+02  0.11751109D+02  0.97602158D+01  0.51829454D+01
  0.13372270D+01 -0.44374806D-02 -0.58452000D-02 -0.64481706D-02 -0.53557106D-02
 -0.28440309D-02 -0.73377484D-03 -0.32972857D-03  0.31876036D-02  0.44948539D-02
  0.64288301D-02 -0.32554691D-04 -0.58958435D-02 -0.32001881D-03  0.30937359D-02
  0.43624906D-02  0.62395156D-02 -0.31596029D-04 -0.57222243D-02  0.14314266D-06
 -0.13838111D-05 -0.19513181D-05 -0.27909011D-05  0.14132730D-07  0.25595195D-05
  0.55004623D-01  0.53389282D-01 -0.28777281D-04 -0.46151425D-03 -0.44827411D-03
 -0.35065753D-06 -0.41583605D-04 -0.40389092D-04 -0.55282872D-08  0.86784768D-05
 -0.92308335D-05  0.55235666D-06  0.17306993D-04 -0.70373765D-03 -0.68246307D-03
 -0.29702195D-05  0.31546283D-05 -0.18440881D-06 -0.60433878D-05  0.25579788D-03
  0.24787372D-03  0.87197808D-06 -0.90606168D-06  0.34083600D-07  0.17816105D-05
 -0.43942458D-04 -0.42467415D-04  0.17583309D-05  0.15106963D-05 -0.30987601D-07
  0.18580006D-05  0.19852854D-05  0.24314196D-04 -0.71329933D-05 -0.65173745D-05
 -0.24221234D-04  0.50398026D-04  0.10501599D-04  0.10246851D-04  0.96224710D-07
  0.10481260D-04  0.10092660D-04 -0.51324164D-05 -0.41986056D-04 -0.40833214D-04
  0.48437423D-05 -0.10424063D-04 -0.96105489D-06 -0.17914080D-05 -0.30368356D-05
 -0.45981798D-05 -0.57487375D-05 -0.49449451D-05 -0.18964929D-05  0.29179336D-08
  0.38627978D-07  0.14030384D-06  0.41620871D-06  0.47959647D-06 -0.58254135D-06
 -0.31403451D-08  0.14593546D-05  0.85980247D-06 -0.20990889D-03 -0.20528631D-03
 -0.13564134D-03 -0.20223630D-03 -0.19778268D-03 -0.13068338D-03  0.17714879D-05
  0.17324765D-05  0.11447205D-05 -0.62899185D-05 -0.58158840D-05  0.72043939D-06
 -0.48146438D-04 -0.46397783D-04  0.40552773D-06 -0.14000405D-04 -0.13601172D-04
  0.99483050D-07  0.49228684D-04 -0.48954676D-04 -0.27400830D-06  0.10196320D-03
 -0.94201784D-04 -0.92644754D-04 -0.24741951D-04  0.24520610D-04  0.22134127D-06
 -0.51111610D-04  0.72811477D-04  0.71132550D-04  0.12571384D-04 -0.12383260D-04
 -0.18812382D-06  0.25802763D-04 -0.53293303D-04 -0.51607930D-04 -0.51467236D-04
 -0.49936906D-04  0.73647864D-06 -0.52264286D-04 -0.49061393D-04 -0.13205097D-03
  0.20666599D-03  0.19887211D-03  0.12984154D-03 -0.26995988D-03  0.18294934D-04
  0.17716542D-04 -0.26499588D-06  0.18541587D-04  0.17465126D-04  0.41962787D-04
 -0.73426387D-04 -0.70614751D-04 -0.41167799D-04  0.85635460D-04
MO    3     MO 0.0        OCC NO =    2.0000210  ORB. ENERGY =    0.000000
 -0.14468343D-01 -0.26971907D-01 -0.45586197D-01 -0.68524556D-01 -0.84170144D-01
 -0.71036632D-01 -0.26711629D-01 -0.38216035D-05 -0.28564119D-04 -0.10675063D-03
 -0.29781765D-03 -0.39899354D-03  0.47113697D-03 -0.87125483D-03 -0.19265754D-02
 -0.81452891D-04  0.36482918D-05  0.34205054D-05  0.24356036D-05 -0.13053139D-05
 -0.12238147D-05 -0.87142899D-06  0.11656725D-02  0.10928920D-02  0.77820424D-03
 -0.99660853D-05  0.70629854D-05  0.60459741D-03 -0.27783920D-05  0.36544135D-05
 -0.37827975D-03 -0.33345736D-07 -0.20221777D-07  0.46747343D-05 -0.10385489D-03
 -0.10575991D-03  0.20961480D-03 -0.36887194D-05  0.66182115D-06  0.26824863D-06
 -0.23368698D-04 -0.25841521D-04  0.49210220D-04 -0.48176653D-05  0.20225963D-05
 -0.17420171D-05  0.11721805D-04  0.11247835D-04 -0.22969640D-04 -0.15872747D-06
 -0.11338361D-06  0.32883158D-06  0.11912170D-07  0.36395484D-04  0.75454777D-05
 -0.60987080D-06 -0.10858966D-03 -0.11413743D-04  0.57413429D-06 -0.59678866D-06
 -0.11222690D-04  0.11112583D-05  0.30525521D-06  0.51987713D-04 -0.85486989D-04
 -0.60474871D-06 -0.15601175D-03  0.12807152D-03 -0.31101693D-06  0.48613772D-07
  0.12838945D-03  0.82718907D-06 -0.47701437D-05 -0.86031505D-05 -0.12685340D-04
  0.75913999D-03  0.24298395D-03  0.50625995D-05  0.32757014D-06  0.96391944D-04
  0.28734829D-04 -0.23560812D-08  0.20311658D-03 -0.44549021D-05 -0.16975409D-06
  0.45319323D-04  0.39170825D-04 -0.74375335D-04  0.55279133D-04  0.19096202D-04
  0.42759470D-06  0.12454963D-06  0.76023050D-04 -0.99732299D-05 -0.11772701D-04
  0.21745931D-04 -0.34916507D-06  0.22587448D-06 -0.34685666D-04 -0.57266535D-05
 -0.10328255D-04 -0.15229007D-04  0.73884824D-03  0.22187459D-03  0.48319798D-05
  0.80007120D-04 -0.46410425D-04  0.25826333D-04  0.17296877D-03 -0.96199335D-04
 -0.18989301D-05  0.36693276D-04 -0.20322070D-04  0.37848976D-04  0.23611651D-04
 -0.42200727D-04  0.18589076D-04 -0.10999084D-03  0.65658964D-04 -0.36470205D-04
 -0.11549656D-04 -0.10297018D-04  0.21846674D-04  0.27057973D-05 -0.29465096D-04
  0.16856910D-04 -0.46652444D-05 -0.84139605D-05 -0.12406380D-04  0.75715106D-03
  0.23615445D-03  0.51614670D-05 -0.82727277D-04 -0.48821303D-04  0.28948271D-04
 -0.17660579D-03 -0.99210792D-04 -0.41534375D-05 -0.38743003D-04 -0.21513932D-04
  0.38548648D-04  0.22937548D-04 -0.42171235D-04  0.19233686D-04  0.11181167D-03
 -0.66405248D-04 -0.37409314D-04 -0.10983413D-04 -0.10632095D-04  0.21615508D-04
 -0.18794871D-05  0.30064808D-04  0.17114429D-04 -0.15464852D+00 -0.28933088D+00
 -0.49989959D+00 -0.81039597D+00 -0.12306640D+01 -0.17105072D+01 -0.20336620D+01
 -0.18116568D+01 -0.89970708D+00 -0.14484523D+00 -0.15282027D-02 -0.72305631D-03
 -0.24119948D-01 -0.84053190D-01 -0.30268915D+00 -0.66724056D+00 -0.93925935D+00
  0.44805732D-01  0.12291840D+01  0.72680879D+00 -0.15534269D-04 -0.18815793D-03
 -0.39238353D-03 -0.11252877D-02 -0.58434622D-04  0.48527862D-02  0.12538667D-01
 -0.10215916D-01  0.46614977D-01 -0.38502154D-03 -0.13206472D-03  0.15250257D-02
  0.20088156D-02  0.22160380D-02  0.18405931D-02  0.97740600D-03  0.25217586D-03
  0.17998641D-02  0.23708421D-02  0.26154100D-02  0.21723028D-02  0.11535531D-02
  0.29762272D-03  0.59363953D+01  0.78196213D+01  0.86262663D+01  0.71647896D+01
  0.38047021D+01  0.98163303D+00 -0.67269587D-07  0.65031908D-06  0.91701779D-06
  0.13115780D-05 -0.66416465D-08 -0.12028407D-05 -0.63678035D-07  0.61559827D-06
  0.86805782D-06  0.12415523D-05 -0.62870462D-08 -0.11386206D-05 -0.21055934D-03
  0.20355522D-02  0.28703411D-02  0.41053471D-02 -0.20788900D-04 -0.37649905D-02
  0.10567794D-04  0.13082579D-04  0.41618556D-01 -0.77224211D-07 -0.33644359D-06
 -0.48336759D-03  0.36684729D-09  0.19775131D-07 -0.98321857D-05 -0.76752980D-05
 -0.75265951D-05  0.15201893D-04  0.40404182D-06 -0.60083410D-06 -0.32170780D-07
 -0.11105103D-03 -0.11108054D-03  0.22213156D-03 -0.10582970D-06  0.28329891D-06
  0.48102077D-06 -0.14293529D-04 -0.14287083D-04  0.28580612D-04 -0.43580759D-07
 -0.59255206D-07  0.10837452D-06 -0.30562031D-08 -0.72629152D-05  0.54630267D-05
  0.12078111D-06  0.21681097D-04 -0.82476845D-05 -0.11161250D-06  0.10764816D-06
 -0.81413956D-05 -0.52490517D-06  0.12176855D-07  0.20989493D-05 -0.33605603D-04
 -0.22638553D-07 -0.61266287D-05  0.50408288D-04 -0.13892011D-07 -0.17021926D-06
  0.50408520D-04  0.27374737D-06 -0.87877083D-03 -0.16380303D-02 -0.27768263D-02
 -0.42044906D-02 -0.52565393D-02 -0.45215664D-02 -0.17341180D-02 -0.68139683D-06
 -0.90204181D-05 -0.32763800D-04 -0.97193195D-04 -0.11199553D-03  0.13603525D-03
 -0.95827726D-04 -0.15847086D-03  0.12655921D-04 -0.34182134D-06 -0.33429381D-06
 -0.22088205D-06  0.21342042D-05  0.20872051D-05  0.13791047D-05  0.38994586D-02
  0.38135853D-02  0.25197971D-02 -0.24661102D-06  0.25815419D-06  0.87864852D-03
 -0.18115782D-08  0.11556427D-06  0.21715785D-04 -0.33217949D-07  0.49991781D-07
  0.93481485D-05 -0.35861235D-04 -0.35415103D-04  0.71276338D-04  0.38561118D-06
  0.43958452D-06  0.48916486D-06  0.21149235D-04  0.20945044D-04 -0.42094279D-04
 -0.16696437D-06 -0.17879131D-06 -0.25055411D-06  0.18073784D-04  0.18162314D-04
 -0.36236098D-04  0.52803141D-07  0.10781289D-06 -0.78879514D-07  0.19936187D-07
 -0.33743651D-05  0.46777824D-04  0.72134714D-07  0.92454023D-05 -0.69859408D-04
 -0.13194327D-06  0.87769287D-06 -0.70474065D-04  0.55389236D-06 -0.17756339D-07
  0.10817221D-05 -0.25508442D-04 -0.34046847D-07 -0.28720432D-05  0.38165341D-04
  0.87315863D-07 -0.37312326D-06  0.38359986D-04 -0.13978094D-06
MO    4     MO 0.0        OCC NO =    2.0000123  ORB. ENERGY =    0.000000
  0.26500869D-01  0.49402959D-01  0.83497732D-01  0.12551266D+00  0.15416983D+00
  0.13011390D+00  0.48926223D-01 -0.15156313D-05 -0.11328405D-04 -0.42336836D-04
 -0.11811318D-03 -0.15823910D-03  0.18685087D-03  0.26204201D-02 -0.35921911D-02
 -0.40756590D-04 -0.42332718D-05 -0.39689614D-05 -0.28261370D-05  0.46998603D-05
  0.44064178D-05  0.31376320D-05  0.36687481D-02  0.34396845D-02  0.24492603D-02
 -0.16528955D-04  0.10208637D-04  0.13017922D-02 -0.72135354D-05  0.65013955D-05
 -0.41530805D-03 -0.57562343D-07 -0.62392845D-08  0.37457234D-05 -0.31860441D-03
 -0.32036897D-03  0.63897338D-03 -0.26619508D-05  0.41219615D-06  0.13939745D-05
  0.10596695D-04  0.78499969D-05 -0.18446692D-04 -0.95264375D-05  0.42391185D-05
 -0.33083990D-05 -0.17681799D-04 -0.18022943D-04  0.35704742D-04 -0.10192838D-05
 -0.25950838D-06  0.55242004D-06 -0.21264747D-06 -0.41521916D-04  0.22126031D-04
  0.54155625D-06  0.12466548D-03 -0.33589146D-04  0.96386147D-07 -0.99728942D-07
 -0.32788948D-04  0.15419055D-05  0.51150689D-06  0.81897291D-04 -0.16348781D-03
 -0.91949929D-06 -0.24585905D-03  0.24519787D-03 -0.61502138D-06  0.16717830D-06
  0.24526557D-03  0.19626543D-05 -0.90067448D-04 -0.16244035D-03 -0.23951820D-03
  0.10285278D-02  0.69485677D-03  0.42788030D-05  0.18066378D-06 -0.56342991D-04
  0.34341282D-04 -0.89916561D-06  0.30927715D-03 -0.44088647D-04 -0.10456289D-05
  0.11312111D-03  0.76495469D-04 -0.14362639D-03  0.26378795D-04  0.11724760D-03
 -0.43522610D-06 -0.11988572D-06  0.14272059D-03 -0.15139557D-04 -0.20634060D-04
  0.35773617D-04 -0.88994470D-06  0.54710407D-06 -0.63147511D-04 -0.89486070D-04
 -0.16139181D-03 -0.23797213D-03  0.99745936D-03  0.65422342D-03  0.39407603D-05
 -0.55460312D-04  0.30491078D-04  0.28627130D-04  0.26296897D-03 -0.14746728D-03
 -0.38471392D-04  0.93249423D-04 -0.53141191D-04  0.74210668D-04 -0.18751408D-04
 -0.99597816D-04  0.11834922D-03 -0.13796196D-03  0.12177469D-03 -0.67850089D-04
 -0.19449300D-04 -0.16156466D-04  0.35605766D-04  0.58807935D-05 -0.53215904D-04
  0.30684810D-04 -0.90098208D-04 -0.16249583D-03 -0.23960000D-03  0.10290307D-02
  0.69124551D-03  0.43583022D-05  0.49652564D-04  0.27223083D-04  0.34700501D-04
 -0.27017609D-03 -0.15201306D-03 -0.44168370D-04 -0.97806929D-04 -0.55106067D-04
  0.75930090D-04 -0.16258788D-04 -0.10111701D-03  0.11737579D-03  0.14680320D-03
 -0.12448567D-03 -0.69977013D-04 -0.18667645D-04 -0.16892842D-04  0.35560488D-04
 -0.51131060D-05  0.54757700D-04  0.31257933D-04  0.91249898D-01  0.17071882D+00
  0.29496426D+00  0.47817172D+00  0.72614964D+00  0.10092797D+01  0.11999562D+01
  0.10689627D+01  0.53086947D+00  0.85465494D-01  0.90171144D-03  0.42723083D-03
  0.14251705D-01  0.49664339D-01  0.17884933D+00  0.39425108D+00  0.55497828D+00
 -0.26474273D-01 -0.72628546D+00 -0.42944804D+00  0.62737035D-05  0.75989870D-04
  0.15846886D-03  0.45446111D-03  0.23599533D-04 -0.19598567D-02 -0.50638934D-02
  0.41258220D-02 -0.28525217D-01  0.14160857D-02 -0.18280285D-03 -0.21243109D-02
 -0.27982144D-02 -0.30868685D-02 -0.25638860D-02 -0.13614946D-02 -0.35127273D-03
  0.75466295D-02  0.99406764D-02  0.10966122D-01  0.91082231D-02  0.48367192D-02
  0.12478988D-02  0.99181658D+01  0.13064545D+02  0.14412238D+02  0.11970492D+02
  0.63566634D+01  0.16400524D+01  0.51344987D-07 -0.49637030D-06 -0.69993394D-06
 -0.10010907D-05  0.50693823D-08  0.91809458D-06 -0.25588157D-06  0.24736984D-05
  0.34881730D-05  0.49890101D-05 -0.25263645D-07 -0.45753928D-05 -0.33685011D-03
  0.32564501D-02  0.45919346D-02  0.65676812D-02 -0.33257813D-04 -0.60231831D-02
 -0.14827783D-04  0.55122246D-04  0.72581951D-01  0.17537762D-06 -0.43591130D-06
 -0.30498288D-03  0.21256765D-07  0.12428992D-07 -0.39170179D-05  0.45369051D-03
  0.45391901D-03 -0.90760952D-03  0.31354374D-06 -0.10727752D-06 -0.22996971D-05
 -0.30920467D-03 -0.30924899D-03  0.61845366D-03 -0.12262584D-06  0.15410190D-06
  0.14645785D-05  0.44581481D-05  0.44329089D-05 -0.88910569D-05 -0.75498562D-07
 -0.12055403D-06  0.64168380D-07  0.18138377D-07 -0.14567526D-04 -0.46994919D-04
  0.26620476D-06  0.43672636D-04  0.70548056D-04 -0.32061990D-06  0.29940560D-07
  0.70436699D-04 -0.11622115D-05  0.99442716D-08  0.42640806D-05 -0.62360470D-04
 -0.60535479D-07 -0.12454777D-04  0.93493127D-04  0.30702664D-07 -0.33746438D-06
  0.93588284D-04  0.58616147D-06 -0.63456818D-02 -0.11828362D-01 -0.20051708D-01