 title line
GAUSSIAN            211 MOL ORBITALS    339 PRIMITIVES        6 NUCLEI
  C    1    (CENTRE  1)   0.00033070  0.00005480 -0.94053370  CHARGE =  6.0
  H    2    (CENTRE  2)   0.00003590 -1.98906904 -1.17300214  CHARGE =  1.0
  H    3    (CENTRE  3)  -1.72213010  0.99468570 -1.17398291  CHARGE =  1.0
  H    4    (CENTRE  4)   1.72295780  0.99424539 -1.17459707  CHARGE =  1.0
  Cl   5    (CENTRE  5)   0.00104880  0.00181792  3.08916932  CHARGE = 17.0
  F    6    (CENTRE  6)  -0.00035149 -0.00174044 -4.90092914  CHARGE =  9.0
CENTRE ASSIGNMENTS    1  1  1  1  1  1  1  1  1  1  1  1  1  1  1  1  1  1  1  1
CENTRE ASSIGNMENTS    1  1  1  1  1  1  1  1  1  1  1  1  1  1  1  1  1  1  1  1
CENTRE ASSIGNMENTS    1  1  1  1  1  1  1  1  1  1  1  1  1  1  1  1  1  1  1  1
CENTRE ASSIGNMENTS    1  1  1  1  1  1  1  1  1  1  1  1  2  2  2  2  2  2  2  2
CENTRE ASSIGNMENTS    2  2  2  2  2  2  2  2  2  2  2  2  2  2  2  2  2  2  2  3
CENTRE ASSIGNMENTS    3  3  3  3  3  3  3  3  3  3  3  3  3  3  3  3  3  3  3  3
CENTRE ASSIGNMENTS    3  3  3  3  3  3  4  4  4  4  4  4  4  4  4  4  4  4  4  4
CENTRE ASSIGNMENTS    4  4  4  4  4  4  4  4  4  4  4  4  4  5  5  5  5  5  5  5
CENTRE ASSIGNMENTS    5  5  5  5  5  5  5  5  5  5  5  5  5  5  5  5  5  5  5  5
CENTRE ASSIGNMENTS    5  5  5  5  5  5  5  5  5  5  5  5  5  5  5  5  5  5  5  5
CENTRE ASSIGNMENTS    5  5  5  5  5  5  5  5  5  5  5  5  5  5  5  5  5  5  5  5
CENTRE ASSIGNMENTS    5  5  5  5  5  5  5  5  5  5  5  5  5  5  5  5  5  5  5  5
CENTRE ASSIGNMENTS    5  5  5  5  5  5  5  5  5  5  5  5  5  5  5  5  5  5  5  5
CENTRE ASSIGNMENTS    5  5  5  5  5  5  5  6  6  6  6  6  6  6  6  6  6  6  6  6
CENTRE ASSIGNMENTS    6  6  6  6  6  6  6  6  6  6  6  6  6  6  6  6  6  6  6  6
CENTRE ASSIGNMENTS    6  6  6  6  6  6  6  6  6  6  6  6  6  6  6  6  6  6  6  6
CENTRE ASSIGNMENTS    6  6  6  6  6  6  6  6  6  6  6  6  6  6  6  6  6  6  6
TYPE ASSIGNMENTS      1  1  1  1  1  1  1  1  1  1  1  1  1  1  1  1  2  2  2  3
TYPE ASSIGNMENTS      3  3  4  4  4  2  3  4  2  3  4  2  3  4  5  6  7  8  9 10
TYPE ASSIGNMENTS      5  6  7  8  9 10  5  6  7  8  9 10 11 12 13 17 14 15 18 19
TYPE ASSIGNMENTS     16 20 11 12 13 17 14 15 18 19 16 20  1  1  1  1  1  1  2  3
TYPE ASSIGNMENTS      4  2  3  4  2  3  4  5  6  7  8  9 10  5  6  7  8  9 10  1
TYPE ASSIGNMENTS      1  1  1  1  1  2  3  4  2  3  4  2  3  4  5  6  7  8  9 10
TYPE ASSIGNMENTS      5  6  7  8  9 10  1  1  1  1  1  1  2  3  4  2  3  4  2  3
TYPE ASSIGNMENTS      4  5  6  7  8  9 10  5  6  7  8  9 10  1  1  1  1  1  1  1
TYPE ASSIGNMENTS      1  1  1  1  1  1  1  1  1  1  1  1  1  1  1  1  1  1  1  1
TYPE ASSIGNMENTS      1  1  1  1  2  2  2  2  2  2  3  3  3  3  3  3  4  4  4  4
TYPE ASSIGNMENTS      4  4  2  2  2  2  2  2  3  3  3  3  3  3  4  4  4  4  4  4
TYPE ASSIGNMENTS      2  3  4  2  3  4  2  3  4  5  6  7  8  9 10  5  6  7  8  9
TYPE ASSIGNMENTS     10  5  6  7  8  9 10 11 12 13 17 14 15 18 19 16 20 11 12 13
TYPE ASSIGNMENTS     17 14 15 18 19 16 20  1  1  1  1  1  1  1  1  1  1  1  1  1
TYPE ASSIGNMENTS      1  1  1  2  2  2  3  3  3  4  4  4  2  3  4  2  3  4  2  3
TYPE ASSIGNMENTS      4  5  6  7  8  9 10  5  6  7  8  9 10  5  6  7  8  9 10 11
TYPE ASSIGNMENTS     12 13 17 14 15 18 19 16 20 11 12 13 17 14 15 18 19 16 20
EXPONENTS  0.8236000D+04 0.1235000D+04 0.2808000D+03 0.7927000D+02 0.2559000D+02
EXPONENTS  0.8997000D+01 0.3319000D+01 0.2808000D+03 0.7927000D+02 0.2559000D+02
EXPONENTS  0.8997000D+01 0.3319000D+01 0.3643000D+00 0.9059000D+00 0.1285000D+00
EXPONENTS  0.4402000D-01 0.1871000D+02 0.4133000D+01 0.1200000D+01 0.1871000D+02
EXPONENTS  0.4133000D+01 0.1200000D+01 0.1871000D+02 0.4133000D+01 0.1200000D+01
EXPONENTS  0.3827000D+00 0.3827000D+00 0.3827000D+00 0.1209000D+00 0.1209000D+00
EXPONENTS  0.1209000D+00 0.3569000D-01 0.3569000D-01 0.3569000D-01 0.1097000D+01
EXPONENTS  0.1097000D+01 0.1097000D+01 0.1097000D+01 0.1097000D+01 0.1097000D+01
EXPONENTS  0.3180000D+00 0.3180000D+00 0.3180000D+00 0.3180000D+00 0.3180000D+00
EXPONENTS  0.3180000D+00 0.1000000D+00 0.1000000D+00 0.1000000D+00 0.1000000D+00
EXPONENTS  0.1000000D+00 0.1000000D+00 0.7610000D+00 0.7610000D+00 0.7610000D+00
EXPONENTS  0.7610000D+00 0.7610000D+00 0.7610000D+00 0.7610000D+00 0.7610000D+00
EXPONENTS  0.7610000D+00 0.7610000D+00 0.2680000D+00 0.2680000D+00 0.2680000D+00
EXPONENTS  0.2680000D+00 0.2680000D+00 0.2680000D+00 0.2680000D+00 0.2680000D+00
EXPONENTS  0.2680000D+00 0.2680000D+00 0.3387000D+02 0.5095000D+01 0.1159000D+01
EXPONENTS  0.3258000D+00 0.1027000D+00 0.2526000D-01 0.1407000D+01 0.1407000D+01
EXPONENTS  0.1407000D+01 0.3880000D+00 0.3880000D+00 0.3880000D+00 0.1020000D+00
EXPONENTS  0.1020000D+00 0.1020000D+00 0.1057000D+01 0.1057000D+01 0.1057000D+01
EXPONENTS  0.1057000D+01 0.1057000D+01 0.1057000D+01 0.2470000D+00 0.2470000D+00
EXPONENTS  0.2470000D+00 0.2470000D+00 0.2470000D+00 0.2470000D+00 0.3387000D+02
EXPONENTS  0.5095000D+01 0.1159000D+01 0.3258000D+00 0.1027000D+00 0.2526000D-01
EXPONENTS  0.1407000D+01 0.1407000D+01 0.1407000D+01 0.3880000D+00 0.3880000D+00
EXPONENTS  0.3880000D+00 0.1020000D+00 0.1020000D+00 0.1020000D+00 0.1057000D+01
EXPONENTS  0.1057000D+01 0.1057000D+01 0.1057000D+01 0.1057000D+01 0.1057000D+01
EXPONENTS  0.2470000D+00 0.2470000D+00 0.2470000D+00 0.2470000D+00 0.2470000D+00
EXPONENTS  0.2470000D+00 0.3387000D+02 0.5095000D+01 0.1159000D+01 0.3258000D+00
EXPONENTS  0.1027000D+00 0.2526000D-01 0.1407000D+01 0.1407000D+01 0.1407000D+01
EXPONENTS  0.3880000D+00 0.3880000D+00 0.3880000D+00 0.1020000D+00 0.1020000D+00
EXPONENTS  0.1020000D+00 0.1057000D+01 0.1057000D+01 0.1057000D+01 0.1057000D+01
EXPONENTS  0.1057000D+01 0.1057000D+01 0.2470000D+00 0.2470000D+00 0.2470000D+00
EXPONENTS  0.2470000D+00 0.2470000D+00 0.2470000D+00 0.4561000D+06 0.6833000D+05
EXPONENTS  0.1555000D+05 0.4405000D+04 0.1439000D+04 0.5204000D+03 0.2031000D+03
EXPONENTS  0.8396000D+02 0.3620000D+02 0.1583000D+02 0.6334000D+01 0.4405000D+04
EXPONENTS  0.1439000D+04 0.5204000D+03 0.2031000D+03 0.8396000D+02 0.3620000D+02
EXPONENTS  0.1583000D+02 0.6334000D+01 0.2694000D+01 0.1439000D+04 0.2031000D+03
EXPONENTS  0.8396000D+02 0.3620000D+02 0.1583000D+02 0.6334000D+01 0.2694000D+01
EXPONENTS  0.4313000D+00 0.9768000D+00 0.1625000D+00 0.5910000D-01 0.6633000D+03
EXPONENTS  0.1568000D+03 0.4998000D+02 0.1842000D+02 0.7240000D+01 0.2922000D+01
EXPONENTS  0.6633000D+03 0.1568000D+03 0.4998000D+02 0.1842000D+02 0.7240000D+01
EXPONENTS  0.2922000D+01 0.6633000D+03 0.1568000D+03 0.4998000D+02 0.1842000D+02
EXPONENTS  0.7240000D+01 0.2922000D+01 0.1568000D+03 0.4998000D+02 0.1842000D+02
EXPONENTS  0.7240000D+01 0.2922000D+01 0.3818000D+00 0.1568000D+03 0.4998000D+02
EXPONENTS  0.1842000D+02 0.7240000D+01 0.2922000D+01 0.3818000D+00 0.1568000D+03
EXPONENTS  0.4998000D+02 0.1842000D+02 0.7240000D+01 0.2922000D+01 0.3818000D+00
EXPONENTS  0.1022000D+01 0.1022000D+01 0.1022000D+01 0.1301000D+00 0.1301000D+00
EXPONENTS  0.1301000D+00 0.4190000D-01 0.4190000D-01 0.4190000D-01 0.1046000D+01
EXPONENTS  0.1046000D+01 0.1046000D+01 0.1046000D+01 0.1046000D+01 0.1046000D+01
EXPONENTS  0.3440000D+00 0.3440000D+00 0.3440000D+00 0.3440000D+00 0.3440000D+00
EXPONENTS  0.3440000D+00 0.1350000D+00 0.1350000D+00 0.1350000D+00 0.1350000D+00
EXPONENTS  0.1350000D+00 0.1350000D+00 0.7060000D+00 0.7060000D+00 0.7060000D+00
EXPONENTS  0.7060000D+00 0.7060000D+00 0.7060000D+00 0.7060000D+00 0.7060000D+00
EXPONENTS  0.7060000D+00 0.7060000D+00 0.3120000D+00 0.3120000D+00 0.3120000D+00
EXPONENTS  0.3120000D+00 0.3120000D+00 0.3120000D+00 0.3120000D+00 0.3120000D+00
EXPONENTS  0.3120000D+00 0.3120000D+00 0.1950000D+05 0.2923000D+04 0.6645000D+03
EXPONENTS  0.1875000D+03 0.6062000D+02 0.2142000D+02 0.7950000D+01 0.6645000D+03
EXPONENTS  0.1875000D+03 0.6062000D+02 0.2142000D+02 0.7950000D+01 0.8815000D+00
EXPONENTS  0.2257000D+01 0.3041000D+00 0.9158000D-01 0.4388000D+02 0.9926000D+01
EXPONENTS  0.2930000D+01 0.4388000D+02 0.9926000D+01 0.2930000D+01 0.4388000D+02
EXPONENTS  0.9926000D+01 0.2930000D+01 0.9132000D+00 0.9132000D+00 0.9132000D+00
EXPONENTS  0.2672000D+00 0.2672000D+00 0.2672000D+00 0.7361000D-01 0.7361000D-01
EXPONENTS  0.7361000D-01 0.3107000D+01 0.3107000D+01 0.3107000D+01 0.3107000D+01
EXPONENTS  0.3107000D+01 0.3107000D+01 0.8550000D+00 0.8550000D+00 0.8550000D+00
EXPONENTS  0.8550000D+00 0.8550000D+00 0.8550000D+00 0.2920000D+00 0.2920000D+00
EXPONENTS  0.2920000D+00 0.2920000D+00 0.2920000D+00 0.2920000D+00 0.1917000D+01
EXPONENTS  0.1917000D+01 0.1917000D+01 0.1917000D+01 0.1917000D+01 0.1917000D+01
EXPONENTS  0.1917000D+01 0.1917000D+01 0.1917000D+01 0.1917000D+01 0.7240000D+00
EXPONENTS  0.7240000D+00 0.7240000D+00 0.7240000D+00 0.7240000D+00 0.7240000D+00
EXPONENTS  0.7240000D+00 0.7240000D+00 0.7240000D+00 0.7240000D+00
MO    1     MO 0.0        OCC NO =    2.0000301  ORB. ENERGY =    0.000000
 -0.61103836D-08 -0.11390986D-07 -0.19252318D-07 -0.28939825D-07 -0.35547392D-07
 -0.30000744D-07 -0.11281063D-07  0.34206093D-11  0.25566936D-10  0.95549476D-10
  0.26656816D-09  0.35712784D-09 -0.42170139D-09 -0.11667138D-08  0.99032209D-08
  0.26355370D-08  0.11107508D-03  0.10413995D-03  0.74153849D-04  0.13192179D-05
  0.12368507D-05  0.88071136D-06 -0.23792247D-07 -0.22306743D-07 -0.15883730D-07
  0.35551182D-03  0.42219616D-05 -0.62499832D-07  0.46952754D-03  0.55752278D-05
 -0.88848169D-07  0.96101904D-05  0.11404110D-06 -0.17945641D-08  0.68152153D-06
 -0.77571374D-06  0.94192208D-07  0.12607325D-03 -0.52071806D-03 -0.62049493D-05
  0.23933908D-05 -0.23734600D-05 -0.19930778D-07  0.38751781D-03  0.10357910D-03
  0.11664398D-05  0.49624949D-06 -0.50892078D-06  0.12671287D-07  0.82911723D-04
 -0.66400340D-04 -0.80195348D-06  0.92915145D-04  0.11026647D-05  0.68702233D-07
  0.92938646D-04  0.11132080D-05  0.14097694D-06 -0.37168408D-03 -0.44212020D-05
 -0.34708364D-06  0.52376277D-04 -0.27589273D-04 -0.32803263D-06 -0.20783129D-07
 -0.27543010D-04 -0.30791600D-06  0.68190944D-06  0.11031083D-03  0.12920139D-05
 -0.61956005D-06  0.10241210D-03 -0.49015912D-06 -0.88402217D-06 -0.13034902D-05
  0.43336131D-05  0.13627186D-04 -0.14000815D-06  0.51249366D-05  0.86067444D-06
  0.33348425D-06  0.83541913D-04  0.34054926D-05  0.32686068D-05  0.75835504D-04
  0.20773639D-05  0.25747524D-06 -0.13412226D-05  0.46621362D-06  0.87500900D-06
  0.31097186D-04 -0.48690015D-04  0.36128087D-05 -0.50699836D-06 -0.15203829D-06
  0.65903665D-06  0.29168659D-04  0.61572733D-04  0.35766378D-06 -0.35138308D-04
 -0.63373385D-04 -0.93444019D-04  0.31092734D-03  0.97647311D-03 -0.10010916D-04
  0.54811426D-04 -0.28622091D-04  0.24008658D-04  0.23336448D-03 -0.85403306D-04
  0.23536070D-03  0.14883565D-03 -0.41248258D-04  0.19450024D-04  0.81590688D-05
 -0.70413661D-04  0.62254593D-04 -0.10414650D-03  0.21165792D-03 -0.15075854D-03
 -0.10898162D-04 -0.37138292D-04  0.48036455D-04 -0.15694659D-04  0.38728029D-04
  0.14025029D-04  0.35628654D-04  0.64257746D-04  0.94748008D-04 -0.31527633D-03
 -0.99010365D-03  0.10150580D-04  0.55504572D-04  0.29131748D-04 -0.24363132D-04
  0.23539364D-03  0.88555185D-04 -0.23873465D-03  0.14985824D-03  0.43618995D-04
 -0.19776692D-04 -0.78463507D-05  0.71046657D-04 -0.63200306D-04 -0.10593928D-03
  0.21529262D-03  0.15166910D-03  0.11412541D-04  0.37309438D-04 -0.48721979D-04
 -0.16311999D-04  0.38364055D-04 -0.12735766D-04 -0.42911811D-07 -0.80283420D-07
 -0.13871194D-06 -0.22486836D-06 -0.34148418D-06 -0.47463088D-06 -0.56429974D-06
 -0.50269782D-06 -0.24965037D-06 -0.40191597D-07 -0.42404509D-09 -0.20152707D-09
 -0.67226056D-08 -0.23426934D-07 -0.84364184D-07 -0.18597035D-06 -0.26178622D-06
  0.12488056D-07  0.34259274D-06  0.20257294D-06 -0.37254130D-11 -0.45123849D-10
 -0.94101030D-10 -0.26986537D-09 -0.14013733D-10  0.11637904D-08  0.30070108D-08
 -0.24499708D-08  0.12134074D-07 -0.10279468D-08 -0.41074374D-09  0.11610033D+02
  0.15293130D+02  0.16870716D+02  0.14012451D+02  0.74410002D+01  0.19198170D+01
  0.13787266D+00  0.18161055D+00  0.20034486D+00  0.16640209D+00  0.88364129D-01
  0.22798407D-01 -0.21357731D-02 -0.28133128D-02 -0.31035244D-02 -0.25777200D-02
 -0.13688408D-02 -0.35316809D-03 -0.46040869D-03  0.44509350D-02  0.62762829D-02
  0.89767449D-02 -0.45456972D-04 -0.82325217D-02 -0.54674617D-05  0.52855902D-04
  0.74532339D-04  0.10660096D-03 -0.53981226D-06 -0.97763136D-04  0.84644570D-07
 -0.81828924D-06 -0.11538732D-05 -0.16503440D-05  0.83571096D-08  0.15135211D-05
  0.76637452D-01  0.91009223D-03 -0.14097801D-04 -0.64453329D-03 -0.76542259D-05
  0.11839127D-06 -0.57786615D-04 -0.68623612D-06  0.10673829D-07 -0.21102868D-07
 -0.16291236D-06  0.18401522D-06  0.25263504D-04 -0.99932694D-03 -0.11870717D-04
  0.96411190D-08  0.57097169D-07 -0.66738288D-07 -0.88618250D-05  0.36472910D-03
  0.43321684D-05  0.52100791D-08 -0.16577184D-07  0.11367105D-07  0.26124847D-05
 -0.61486752D-04 -0.73051303D-06  0.23660600D-05  0.27900020D-07  0.16237198D-08
  0.23967963D-05  0.41048572D-07  0.43618479D-06 -0.94949763D-05 -0.12474863D-06
 -0.44105595D-06  0.71867940D-04  0.15294228D-04  0.18162184D-06  0.11191581D-07
  0.15288086D-04  0.17895057D-06 -0.11949527D-06 -0.61170770D-04 -0.72381608D-06
  0.85920526D-07 -0.14657840D-04  0.63038368D-08  0.11750363D-07  0.19919483D-07
  0.30160790D-07  0.37707631D-07  0.32435325D-07  0.12439645D-07 -0.12760881D-10
 -0.16893017D-09 -0.61358512D-09 -0.18201887D-08 -0.20973998D-08  0.25476045D-08
  0.19691824D-09 -0.42683319D-08 -0.46200524D-08 -0.29562034D-03 -0.28911023D-03
 -0.19102735D-03 -0.35104050D-05 -0.34330994D-05 -0.22683939D-05  0.46814016D-07
  0.45783085D-07  0.30250820D-07 -0.74435543D-05 -0.89971515D-07  0.27976368D-08
 -0.68414512D-04 -0.81113630D-06  0.72539714D-08 -0.19649359D-04 -0.23330258D-06
  0.29591809D-08  0.84567936D-06 -0.87155524D-06  0.25875888D-07  0.14187083D-03
 -0.13429987D-03 -0.16177375D-05 -0.41801334D-06  0.43720544D-06 -0.19192094D-07
 -0.71130078D-04  0.10363671D-03  0.12418984D-05  0.20892740D-06 -0.22160854D-06
  0.12681149D-07  0.36103671D-04 -0.75793391D-04 -0.90483046D-06 -0.73599788D-04
 -0.87146407D-06 -0.51712208D-07 -0.73779354D-04 -0.94031227D-06 -0.21862210D-05
  0.29457872D-03  0.35547045D-05  0.23413576D-05 -0.37878743D-03  0.26125707D-04
  0.30936298D-06  0.18122420D-07  0.26182579D-04  0.33126333D-06  0.68966089D-06
 -0.10455970D-03 -0.12593523D-05 -0.74402816D-06  0.12030659D-03
MO    2     MO 0.0        OCC NO =    2.0000301  ORB. ENERGY =    0.000000
 -0.42087079D-07 -0.78458794D-07 -0.13260605D-06 -0.19933163D-06 -0.24484320D-06
 -0.20663902D-06 -0.77701669D-07 -0.12912950D-11 -0.96516300D-11 -0.36070345D-10
 -0.10063065D-09 -0.13481732D-09  0.15919412D-09 -0.46723483D-08  0.14330513D-07
 -0.60155208D-08 -0.13188491D-05 -0.12365049D-05 -0.88046514D-06  0.11107171D-03
  0.10413679D-03  0.74151597D-04 -0.44604788D-07 -0.41819824D-07 -0.29778206D-07
 -0.42216361D-05  0.35550725D-03 -0.16141715D-06 -0.55762999D-05  0.46952167D-03
 -0.19141040D-06 -0.11420265D-06  0.96097841D-05 -0.40713007D-08  0.63148692D-04
 -0.63378322D-04  0.22963044D-06 -0.16389177D-05  0.61611758D-05 -0.52060940D-03
  0.19373424D-03 -0.19368942D-03 -0.44817854D-07 -0.47317008D-05 -0.12976634D-05
  0.10391852D-03  0.41471417D-04 -0.41498976D-04  0.27559175D-07 -0.10280665D-05
  0.77421755D-06 -0.66326146D-04 -0.10989912D-05  0.92902012D-04  0.15863307D-06
 -0.11089181D-05  0.92923239D-04  0.26360477D-04  0.44058917D-05 -0.37162928D-03
 -0.26836376D-04 -0.80595448D-06  0.33680936D-06 -0.27610281D-04 -0.46037747D-07
  0.31851707D-06 -0.27564669D-04  0.51151869D-04 -0.13289452D-05  0.11039551D-03
 -0.51013756D-04 -0.12060689D-05 -0.40857909D-04 -0.73688922D-04 -0.10865427D-03
  0.36152972D-03  0.11353952D-02 -0.11640770D-04 -0.47395644D-07  0.71844435D-04
  0.27876359D-04 -0.91813570D-06  0.28477139D-03  0.27355254D-03 -0.88382095D-06
  0.17386019D-03  0.22552399D-04 -0.11145160D-03  0.39230092D-04  0.72221506D-04
 -0.28116103D-06  0.68788238D-06  0.30083345D-03 -0.43472241D-04 -0.12384339D-04
  0.55856580D-04 -0.33665680D-06 -0.69997259D-06  0.30917944D-04  0.20852841D-04
  0.37608958D-04  0.55454387D-04 -0.18452577D-03 -0.57950477D-03  0.59416064D-05
 -0.29548012D-04  0.22144673D-04 -0.14251179D-04 -0.89902379D-04  0.13481704D-03
 -0.13972235D-03 -0.44224223D-04  0.10085018D-03 -0.11584645D-04  0.10826771D-04
  0.26092382D-04 -0.36919152D-04  0.79869940D-04 -0.15394175D-03  0.40452892D-04
  0.21150460D-04  0.73904815D-05 -0.28540942D-04  0.26278450D-04  0.12821116D-04
  0.53703269D-04  0.20003156D-04  0.36076515D-04  0.53194801D-04 -0.17700869D-03
 -0.55590170D-03  0.56999118D-05  0.28224030D-04  0.21443951D-04 -0.13680414D-04
  0.84260456D-04  0.13270553D-03 -0.13406563D-03  0.40660792D-04  0.99821044D-04
 -0.11129765D-04  0.11052973D-04  0.24414216D-04 -0.35467189D-04 -0.77324800D-04
  0.14879518D-03  0.36814259D-04  0.20871286D-04  0.65034618D-05 -0.27374747D-04
 -0.25882454D-04 -0.13767523D-04  0.54037203D-04  0.14937105D-06  0.27945730D-06
  0.48284022D-06  0.78274073D-06  0.11886669D-05  0.16521352D-05  0.19642621D-05
  0.17498330D-05  0.86900405D-06  0.13990230D-06  0.14760519D-08  0.69836232D-09
  0.23296198D-07  0.81182586D-07  0.29235164D-06  0.64445280D-06  0.90718155D-06
 -0.43275517D-07 -0.11872046D-05 -0.70198665D-06  0.16574962D-10  0.20076327D-09
  0.41867063D-09  0.12006745D-08  0.62349353D-10 -0.51778906D-08 -0.13378675D-07
  0.10900315D-07 -0.41526832D-07 -0.21137627D-08  0.12137586D-08 -0.13787358D+00
 -0.18161175D+00 -0.20034619D+00 -0.16640320D+00 -0.88364717D-01 -0.22798559D-01
  0.11610033D+02  0.15293129D+02  0.16870715D+02  0.14012450D+02  0.74409997D+01
  0.19198168D+01 -0.50586745D-02 -0.66634578D-02 -0.73508370D-02 -0.61054457D-02
 -0.32421611D-02 -0.83649450D-03  0.54675568D-05 -0.52856821D-04 -0.74533635D-04
 -0.10660281D-03  0.53982165D-06  0.97764836D-04 -0.46040841D-03  0.44509322D-02
  0.62762791D-02  0.89767393D-02 -0.45456944D-04 -0.82325166D-02  0.20095663D-06
 -0.19427194D-05 -0.27394372D-05 -0.39181199D-05  0.19840807D-07  0.35932855D-05
 -0.91009963D-03  0.76637442D-01 -0.33398449D-04  0.76538929D-05 -0.64453423D-03
  0.28306895D-06  0.68623558D-06 -0.57786620D-04  0.24984358D-07  0.12853201D-04
 -0.13289201D-04  0.43600017D-06 -0.48827723D-06  0.11863640D-04 -0.99929812D-03
 -0.45105555D-05  0.46714692D-05 -0.16091368D-06  0.17370841D-06 -0.43302552D-05
  0.36471698D-03  0.13202872D-05 -0.13466363D-05  0.26349156D-07 -0.42922893D-07
  0.72980366D-06 -0.61483777D-04 -0.21697995D-07  0.23498828D-05  0.43377781D-08
 -0.34902463D-07  0.23807123D-05  0.35938043D-04  0.99996448D-07 -0.94303606D-05
 -0.35951057D-04 -0.88480594D-06 -0.18295978D-06  0.15297214D-04  0.26957064D-07
 -0.18029390D-06  0.15291002D-04 -0.73024030D-05  0.72917325D-06 -0.61182643D-04
  0.72215318D-05  0.15226943D-06 -0.15496765D-07 -0.28885996D-07 -0.48968198D-07
 -0.74144475D-07 -0.92696924D-07 -0.79735977D-07 -0.30580463D-07  0.37481418D-10
  0.49618379D-09  0.18022298D-08  0.53462807D-08  0.61605087D-08 -0.74828554D-08
 -0.48990427D-09  0.12535129D-07  0.11799042D-07  0.35108066D-05  0.34334922D-05
  0.22686535D-05 -0.29562213D-03 -0.28911198D-03 -0.19102851D-03  0.13606112D-06
  0.13306480D-06  0.87921543D-07  0.86923357D-07 -0.74525699D-05 -0.27519524D-08
  0.81367923D-06 -0.68407699D-04  0.43900191D-07  0.23338072D-06 -0.19649106D-04
  0.10126599D-07  0.70970672D-04 -0.71024978D-04  0.54306111D-07 -0.17621499D-05
  0.15704225D-05 -0.13416949D-03 -0.35590965D-04  0.35635123D-04 -0.44157878D-07
  0.88965684D-06 -0.12187499D-05  0.10356998D-03  0.18068905D-04 -0.18105344D-04
  0.36439243D-07 -0.45538111D-06  0.89485897D-06 -0.75754844D-04  0.84310611D-06
 -0.73511449D-04 -0.13511484D-06  0.90806291D-06 -0.73677169D-04 -0.18953403D-03
 -0.34373812D-05  0.29421152D-03  0.18993937D-03  0.47664953D-05 -0.30048266D-06
  0.26097284D-04  0.48698374D-07 -0.32116425D-06  0.26149837D-04  0.60201979D-04
  0.12226122D-05 -0.10444169D-03 -0.60348074D-04 -0.15185121D-05
MO    3     MO 0.0        OCC NO =    2.0000211  ORB. ENERGY =    0.000000
 -0.14828862D-01 -0.27643986D-01 -0.46722102D-01 -0.70232034D-01 -0.86267474D-01
 -0.72806705D-01 -0.27377222D-01 -0.39105264D-05 -0.29228762D-04 -0.10923456D-03
 -0.30474741D-03 -0.40827751D-03  0.48209961D-03 -0.89259804D-03 -0.19800145D-02
 -0.86218709D-04  0.21140749D-06  0.19820796D-06  0.14113588D-06  0.51348206D-06
  0.48142207D-06  0.34280119D-06  0.11806051D-02  0.11068923D-02  0.78817326D-03
  0.10527398D-06  0.26628020D-06  0.60674956D-03 -0.68592864D-07 -0.17488734D-06
 -0.38647679D-03  0.78937685D-09  0.19510206D-08  0.44930529D-05 -0.10484850D-03
 -0.10485016D-03  0.20969866D-03 -0.94702384D-09  0.11283432D-06  0.27216648D-06
 -0.23512020D-04 -0.23510252D-04  0.47022272D-04 -0.64610701D-09  0.24177449D-07
  0.62934447D-07  0.11714405D-04  0.11715380D-04 -0.23429785D-04  0.69334395D-10
 -0.12538201D-07 -0.31364770D-07 -0.15988314D-07  0.37776587D-04  0.61004924D-05
  0.41699044D-07 -0.11334646D-03 -0.91014971D-05  0.62658991D-08  0.16705198D-07
 -0.91999800D-05  0.40057401D-07  0.27837068D-08  0.52743319D-04 -0.86197065D-04
  0.83230372D-07 -0.15800252D-03  0.12936488D-03 -0.91581492D-07 -0.22744036D-06
  0.12922632D-03  0.55931739D-07 -0.43092620D-05 -0.77719315D-05 -0.11459708D-04
  0.76753670D-03  0.24069729D-03  0.51863933D-05  0.18284269D-07  0.99496083D-04
  0.31098062D-04  0.25172261D-07  0.20225119D-03 -0.42261475D-05  0.12723488D-07
  0.44678734D-04  0.38921981D-04 -0.75525523D-04  0.54705986D-04  0.20819537D-04
  0.46957297D-07  0.44446971D-07  0.76951248D-04 -0.94160003D-05 -0.12234742D-04
  0.21650743D-04 -0.69721282D-08  0.65001776D-08 -0.35300916D-04 -0.43090899D-05
 -0.77716210D-05 -0.11459251D-04  0.76753834D-03  0.24071651D-03  0.51866903D-05
  0.86155337D-04 -0.49739651D-04  0.31149409D-04  0.17514212D-03 -0.10115196D-03
 -0.41326018D-05  0.38684289D-04 -0.22321062D-04  0.38944943D-04  0.22119134D-04
 -0.42980078D-04  0.20860945D-04 -0.11275090D-03  0.66707010D-04 -0.38422121D-04
 -0.11523807D-04 -0.10109080D-04  0.21632888D-04  0.24177131D-05 -0.30585034D-04
  0.17697424D-04 -0.43088992D-05 -0.77712771D-05 -0.11458744D-04  0.76754215D-03
  0.24071653D-03  0.51867177D-05 -0.86157283D-04 -0.49718036D-04  0.31181000D-04
 -0.17516960D-03 -0.10110774D-03 -0.40690751D-05 -0.38676013D-04 -0.22311290D-04
  0.38958995D-04  0.22123964D-04 -0.43008651D-04  0.20884687D-04  0.11270387D-03
 -0.66718728D-04 -0.38446281D-04 -0.11513493D-04 -0.10108455D-04  0.21621948D-04
 -0.24105937D-05  0.30612866D-04  0.17690414D-04 -0.15439759D+00 -0.28886141D+00
 -0.49908845D+00 -0.80908102D+00 -0.12286672D+01 -0.17077318D+01 -0.20303622D+01
 -0.18087172D+01 -0.89824721D+00 -0.14461020D+00 -0.15257230D-02 -0.72189599D-03
 -0.24081242D-01 -0.83918306D-01 -0.30220341D+00 -0.66616980D+00 -0.93775208D+00
  0.44733830D-01  0.12272114D+01  0.72564244D+00 -0.15536331D-04 -0.18818290D-03
 -0.39243560D-03 -0.11254370D-02 -0.58442376D-04  0.48534301D-02  0.12540331D-01
 -0.10217272D-01  0.46534645D-01 -0.36400728D-03 -0.12789032D-03  0.10633063D-02
  0.14006231D-02  0.15451065D-02  0.12833320D-02  0.68148488D-03  0.17582666D-03
  0.26185226D-02  0.34492068D-02  0.38050150D-02  0.31603629D-02  0.16782404D-02
  0.43299479D-03  0.59620431D+01  0.78534055D+01  0.86635356D+01  0.71957446D+01
  0.38211401D+01  0.98587411D+00 -0.37835607D-07  0.36577030D-06  0.51577431D-06
  0.73769370D-06 -0.37355771D-08 -0.67653470D-06 -0.93155616D-07  0.90056856D-06
  0.12698957D-05  0.18162867D-05 -0.91974204D-08 -0.16657063D-05 -0.21219080D-03
  0.20513241D-02  0.28925812D-02  0.41371563D-02 -0.20949977D-04 -0.37941625D-02
  0.74568732D-05  0.18359455D-04  0.41808943D-01 -0.87834060D-07 -0.21532018D-06
 -0.49187686D-03 -0.17673959D-08 -0.44365988D-08 -0.99440528D-05 -0.77022870D-05
 -0.77020325D-05  0.15404320D-04 -0.66755842D-10  0.82454569D-08  0.21647419D-07
 -0.11335403D-03 -0.11335413D-03  0.22670816D-03  0.77884167D-10  0.12151460D-06
  0.29661733D-06 -0.14712271D-04 -0.14712136D-04  0.29424406D-04  0.35275190D-11
  0.15854831D-07  0.38433252D-07  0.13632293D-08 -0.73492775D-05  0.50717805D-05
 -0.98531495D-08  0.22034821D-04 -0.76178577D-05  0.57634616D-08  0.13011422D-07
 -0.75974838D-05 -0.77235103D-08  0.83734549D-08  0.20945244D-05 -0.34034545D-04
  0.11537553D-07 -0.61947232D-05  0.51054767D-04 -0.36657918D-07 -0.88849968D-07
  0.51048868D-04  0.21144083D-08 -0.91665648D-03 -0.17086493D-02 -0.28965412D-02
 -0.43857550D-02 -0.54831598D-02 -0.47165007D-02 -0.18088795D-02 -0.68989932D-06
 -0.91329751D-05 -0.33172627D-04 -0.98405974D-04 -0.11339301D-03  0.13773270D-03
 -0.98174877D-04 -0.15817249D-03  0.13957448D-04  0.66252033D-06  0.64793041D-06
  0.42811502D-06  0.17685547D-05  0.17296078D-05  0.11428250D-05  0.38731035D-02
  0.37878106D-02  0.25027666D-02  0.14803579D-06  0.39995118D-06  0.87104828D-03
  0.42550734D-08  0.84243854D-08  0.21534215D-04  0.15567927D-08  0.44344099D-08
  0.95309141D-05 -0.35719994D-04 -0.35718274D-04  0.71438268D-04  0.10761011D-08
  0.36712250D-07  0.98082010D-07  0.21295054D-04  0.21294391D-04 -0.42589445D-04
 -0.47704874D-09 -0.22165458D-07 -0.57789095D-07  0.17918126D-04  0.17918064D-04
 -0.35836190D-04  0.93049411D-10 -0.17713151D-07 -0.50645296D-07 -0.96881132D-08
 -0.27119743D-05  0.46228706D-04 -0.13774231D-07  0.79983493D-05 -0.69350868D-04
  0.42838570D-07  0.13757351D-06 -0.69335250D-04 -0.98079618D-09  0.57607714D-08
  0.86996631D-06 -0.25344531D-04  0.70603496D-08 -0.25364484D-05  0.38019291D-04
 -0.24342664D-07 -0.73450493D-07  0.38014301D-04  0.29286583D-09
MO    4     MO 0.0        OCC NO =    2.0000123  ORB. ENERGY =    0.000000
  0.26311280D-01  0.49049527D-01  0.82900384D-01  0.12461474D+00  0.15306689D+00
  0.12918305D+00  0.48576201D-01 -0.16615284D-05 -0.12418895D-04 -0.46412246D-04
 -0.12948294D-03 -0.17347144D-03  0.20483743D-03  0.26308149D-02 -0.37105392D-02
 -0.52118767D-04  0.65780345D-06  0.61673255D-06  0.43915032D-06  0.16271073D-05
  0.15255165D-05  0.10862586D-05  0.37207366D-02  0.34884271D-02  0.24839679D-02
  0.22882843D-06  0.56696170D-06  0.12981534D-02 -0.76695501D-07 -0.19413604D-06
 -0.42625971D-03  0.62927088D-09  0.13410337D-08  0.34442193D-05 -0.31742878D-03
 -0.31743325D-03  0.63486203D-03 -0.58227220D-09  0.33903659D-06  0.83409963D-06
  0.10687547D-04  0.10691077D-04 -0.21378624D-04 -0.40741729D-09 -0.11816279D-07
 -0.32202021D-07 -0.17138021D-04 -0.17137014D-04  0.34275034D-04 -0.13274460D-09
  0.17704222D-07  0.45494955D-07  0.10757524D-07 -0.39201274D-04  0.16722163D-04
 -0.49080720D-07  0.11755865D-03 -0.25136552D-04  0.16808147D-07  0.45172532D-07
 -0.25029938D-04 -0.41508191D-07  0.11485241D-07  0.84574235D-04 -0.16398576D-03
  0.14045707D-06 -0.25329182D-03  0.24608877D-03 -0.17491280D-06 -0.43088609D-06
  0.24586851D-03  0.89752497D-07 -0.89564617D-04 -0.16153348D-03 -0.23818102D-03
  0.10563363D-02  0.69577140D-03  0.46347138D-05  0.85269978D-09 -0.49735742D-04
  0.40256637D-04  0.32158987D-07  0.30921807D-03 -0.41451348D-04  0.27666690D-07
  0.11258843D-03  0.75791361D-04 -0.14634945D-03  0.22789722D-04  0.12355973D-03
  0.68906203D-07  0.11441715D-06  0.14523753D-03 -0.14605361D-04 -0.21784433D-04
  0.36389793D-04 -0.13327754D-07  0.10048665D-07 -0.64429995D-04 -0.89564275D-04
 -0.16153286D-03 -0.23818010D-03  0.10563434D-02  0.69578812D-03  0.46359385D-05
 -0.43073939D-04  0.24897497D-04  0.40239383D-04  0.26777805D-03 -0.15467164D-03
 -0.41298753D-04  0.97483607D-04 -0.56258968D-04  0.75848895D-04 -0.19544832D-04
 -0.10409887D-03  0.12364370D-03 -0.14640487D-03  0.12581199D-03 -0.72368336D-04
 -0.19977907D-04 -0.16378927D-04  0.36356834D-04  0.61756522D-05 -0.55819002D-04
  0.32291460D-04 -0.89564567D-04 -0.16153339D-03 -0.23818088D-03  0.10563452D-02
  0.69579509D-03  0.46357685D-05  0.43094195D-04  0.24886278D-04  0.40225000D-04
 -0.26783128D-03 -0.15460321D-03 -0.41203258D-04 -0.97471744D-04 -0.56234453D-04
  0.75883997D-04 -0.19551514D-04 -0.10413571D-03  0.12368722D-03  0.14633676D-03
 -0.12572988D-03 -0.72389076D-04 -0.19959730D-04 -0.16377583D-04  0.36337313D-04
 -0.61622299D-05  0.55867979D-04  0.32279713D-04  0.91639470D-01  0.17144767D+00
  0.29622355D+00  0.48021317D+00  0.72924978D+00  0.10135886D+01  0.12050792D+01
  0.10735264D+01  0.53313591D+00  0.85830371D-01  0.90556111D-03  0.42908658D-03
  0.14313610D-01  0.49880065D-01  0.17962619D+00  0.39596358D+00  0.55738893D+00
 -0.26589269D-01 -0.72944021D+00 -0.43131343D+00  0.62858408D-05  0.76136882D-04
  0.15877544D-03  0.45534032D-03  0.23645189D-04 -0.19636483D-02 -0.50736901D-02
  0.41338039D-02 -0.28657030D-01  0.14526899D-02 -0.17407309D-03  0.17718174D-02
  0.23338979D-02  0.25746548D-02  0.21384524D-02  0.11355776D-02  0.29298494D-03
  0.43313855D-02  0.57054480D-02  0.62940022D-02  0.52276617D-02  0.27760334D-02
  0.71623113D-03  0.99034408D+01  0.13045148D+02  0.14390841D+02  0.11952720D+02
  0.63472259D+01  0.16376175D+01 -0.60410488D-07  0.58400973D-06  0.82351468D-06
  0.11778438D-05 -0.59644354D-08 -0.10801939D-05 -0.14759434D-06  0.14268472D-05
  0.20120034D-05  0.28776971D-05 -0.14572253D-07 -0.26391197D-05 -0.33776769D-03
  0.32653207D-02  0.46044430D-02  0.65855715D-02 -0.33348407D-04 -0.60395902D-02
  0.12974051D-04  0.31714989D-04  0.72520829D-01 -0.56675101D-07 -0.14099221D-06
 -0.31925787D-03 -0.71710745D-09 -0.19430147D-08 -0.41180168D-05  0.45793091D-03
  0.45793135D-03 -0.91586227D-03 -0.30988267D-09 -0.49131889D-06 -0.11978038D-05
 -0.31419894D-03 -0.31419930D-03  0.62839825D-03  0.17231531D-09  0.33682289D-06
  0.82225539D-06  0.34791502D-05  0.34793439D-05 -0.69584941D-05 -0.30431755D-10
 -0.38757308D-08 -0.83727752D-08  0.18368756D-07 -0.14811994D-04 -0.47694601D-04
 -0.42950321D-08  0.44560189D-04  0.71522010D-04 -0.50811236D-07 -0.12420667D-06
  0.71561794D-04 -0.16198814D-07  0.15456433D-07  0.42653991D-05 -0.63649793D-04
  0.21905574D-07 -0.12629325D-04  0.95480319D-04 -0.68274873D-07 -0.16687254D-06
  0.95469059D-04  0.45439448D-08 -0.65036164D-02 -0.12122752D-01 -0.20550766D-01