 title line
GAUSSIAN            211 MOL ORBITALS    339 PRIMITIVES        6 NUCLEI
  C    1    (CENTRE  1)   0.00033070  0.00005480 -0.94053370  CHARGE =  6.0
  H    2    (CENTRE  2)   0.00003590 -1.98906904 -1.17300214  CHARGE =  1.0
  H    3    (CENTRE  3)  -1.72213010  0.99468570 -1.17398291  CHARGE =  1.0
  H    4    (CENTRE  4)   1.70406054  0.99424539 -1.17459707  CHARGE =  1.0
  Cl   5    (CENTRE  5)   0.00104880  0.00181792  3.10806659  CHARGE = 17.0
  F    6    (CENTRE  6)  -0.00035149 -0.00174044 -4.90092914  CHARGE =  9.0
CENTRE ASSIGNMENTS    1  1  1  1  1  1  1  1  1  1  1  1  1  1  1  1  1  1  1  1
CENTRE ASSIGNMENTS    1  1  1  1  1  1  1  1  1  1  1  1  1  1  1  1  1  1  1  1
CENTRE ASSIGNMENTS    1  1  1  1  1  1  1  1  1  1  1  1  1  1  1  1  1  1  1  1
CENTRE ASSIGNMENTS    1  1  1  1  1  1  1  1  1  1  1  1  2  2  2  2  2  2  2  2
CENTRE ASSIGNMENTS    2  2  2  2  2  2  2  2  2  2  2  2  2  2  2  2  2  2  2  3
CENTRE ASSIGNMENTS    3  3  3  3  3  3  3  3  3  3  3  3  3  3  3  3  3  3  3  3
CENTRE ASSIGNMENTS    3  3  3  3  3  3  4  4  4  4  4  4  4  4  4  4  4  4  4  4
CENTRE ASSIGNMENTS    4  4  4  4  4  4  4  4  4  4  4  4  4  5  5  5  5  5  5  5
CENTRE ASSIGNMENTS    5  5  5  5  5  5  5  5  5  5  5  5  5  5  5  5  5  5  5  5
CENTRE ASSIGNMENTS    5  5  5  5  5  5  5  5  5  5  5  5  5  5  5  5  5  5  5  5
CENTRE ASSIGNMENTS    5  5  5  5  5  5  5  5  5  5  5  5  5  5  5  5  5  5  5  5
CENTRE ASSIGNMENTS    5  5  5  5  5  5  5  5  5  5  5  5  5  5  5  5  5  5  5  5
CENTRE ASSIGNMENTS    5  5  5  5  5  5  5  5  5  5  5  5  5  5  5  5  5  5  5  5
CENTRE ASSIGNMENTS    5  5  5  5  5  5  5  6  6  6  6  6  6  6  6  6  6  6  6  6
CENTRE ASSIGNMENTS    6  6  6  6  6  6  6  6  6  6  6  6  6  6  6  6  6  6  6  6
CENTRE ASSIGNMENTS    6  6  6  6  6  6  6  6  6  6  6  6  6  6  6  6  6  6  6  6
CENTRE ASSIGNMENTS    6  6  6  6  6  6  6  6  6  6  6  6  6  6  6  6  6  6  6
TYPE ASSIGNMENTS      1  1  1  1  1  1  1  1  1  1  1  1  1  1  1  1  2  2  2  3
TYPE ASSIGNMENTS      3  3  4  4  4  2  3  4  2  3  4  2  3  4  5  6  7  8  9 10
TYPE ASSIGNMENTS      5  6  7  8  9 10  5  6  7  8  9 10 11 12 13 17 14 15 18 19
TYPE ASSIGNMENTS     16 20 11 12 13 17 14 15 18 19 16 20  1  1  1  1  1  1  2  3
TYPE ASSIGNMENTS      4  2  3  4  2  3  4  5  6  7  8  9 10  5  6  7  8  9 10  1
TYPE ASSIGNMENTS      1  1  1  1  1  2  3  4  2  3  4  2  3  4  5  6  7  8  9 10
TYPE ASSIGNMENTS      5  6  7  8  9 10  1  1  1  1  1  1  2  3  4  2  3  4  2  3
TYPE ASSIGNMENTS      4  5  6  7  8  9 10  5  6  7  8  9 10  1  1  1  1  1  1  1
TYPE ASSIGNMENTS      1  1  1  1  1  1  1  1  1  1  1  1  1  1  1  1  1  1  1  1
TYPE ASSIGNMENTS      1  1  1  1  2  2  2  2  2  2  3  3  3  3  3  3  4  4  4  4
TYPE ASSIGNMENTS      4  4  2  2  2  2  2  2  3  3  3  3  3  3  4  4  4  4  4  4
TYPE ASSIGNMENTS      2  3  4  2  3  4  2  3  4  5  6  7  8  9 10  5  6  7  8  9
TYPE ASSIGNMENTS     10  5  6  7  8  9 10 11 12 13 17 14 15 18 19 16 20 11 12 13
TYPE ASSIGNMENTS     17 14 15 18 19 16 20  1  1  1  1  1  1  1  1  1  1  1  1  1
TYPE ASSIGNMENTS      1  1  1  2  2  2  3  3  3  4  4  4  2  3  4  2  3  4  2  3
TYPE ASSIGNMENTS      4  5  6  7  8  9 10  5  6  7  8  9 10  5  6  7  8  9 10 11
TYPE ASSIGNMENTS     12 13 17 14 15 18 19 16 20 11 12 13 17 14 15 18 19 16 20
EXPONENTS  0.8236000D+04 0.1235000D+04 0.2808000D+03 0.7927000D+02 0.2559000D+02
EXPONENTS  0.8997000D+01 0.3319000D+01 0.2808000D+03 0.7927000D+02 0.2559000D+02
EXPONENTS  0.8997000D+01 0.3319000D+01 0.3643000D+00 0.9059000D+00 0.1285000D+00
EXPONENTS  0.4402000D-01 0.1871000D+02 0.4133000D+01 0.1200000D+01 0.1871000D+02
EXPONENTS  0.4133000D+01 0.1200000D+01 0.1871000D+02 0.4133000D+01 0.1200000D+01
EXPONENTS  0.3827000D+00 0.3827000D+00 0.3827000D+00 0.1209000D+00 0.1209000D+00
EXPONENTS  0.1209000D+00 0.3569000D-01 0.3569000D-01 0.3569000D-01 0.1097000D+01
EXPONENTS  0.1097000D+01 0.1097000D+01 0.1097000D+01 0.1097000D+01 0.1097000D+01
EXPONENTS  0.3180000D+00 0.3180000D+00 0.3180000D+00 0.3180000D+00 0.3180000D+00
EXPONENTS  0.3180000D+00 0.1000000D+00 0.1000000D+00 0.1000000D+00 0.1000000D+00
EXPONENTS  0.1000000D+00 0.1000000D+00 0.7610000D+00 0.7610000D+00 0.7610000D+00
EXPONENTS  0.7610000D+00 0.7610000D+00 0.7610000D+00 0.7610000D+00 0.7610000D+00
EXPONENTS  0.7610000D+00 0.7610000D+00 0.2680000D+00 0.2680000D+00 0.2680000D+00
EXPONENTS  0.2680000D+00 0.2680000D+00 0.2680000D+00 0.2680000D+00 0.2680000D+00
EXPONENTS  0.2680000D+00 0.2680000D+00 0.3387000D+02 0.5095000D+01 0.1159000D+01
EXPONENTS  0.3258000D+00 0.1027000D+00 0.2526000D-01 0.1407000D+01 0.1407000D+01
EXPONENTS  0.1407000D+01 0.3880000D+00 0.3880000D+00 0.3880000D+00 0.1020000D+00
EXPONENTS  0.1020000D+00 0.1020000D+00 0.1057000D+01 0.1057000D+01 0.1057000D+01
EXPONENTS  0.1057000D+01 0.1057000D+01 0.1057000D+01 0.2470000D+00 0.2470000D+00
EXPONENTS  0.2470000D+00 0.2470000D+00 0.2470000D+00 0.2470000D+00 0.3387000D+02
EXPONENTS  0.5095000D+01 0.1159000D+01 0.3258000D+00 0.1027000D+00 0.2526000D-01
EXPONENTS  0.1407000D+01 0.1407000D+01 0.1407000D+01 0.3880000D+00 0.3880000D+00
EXPONENTS  0.3880000D+00 0.1020000D+00 0.1020000D+00 0.1020000D+00 0.1057000D+01
EXPONENTS  0.1057000D+01 0.1057000D+01 0.1057000D+01 0.1057000D+01 0.1057000D+01
EXPONENTS  0.2470000D+00 0.2470000D+00 0.2470000D+00 0.2470000D+00 0.2470000D+00
EXPONENTS  0.2470000D+00 0.3387000D+02 0.5095000D+01 0.1159000D+01 0.3258000D+00
EXPONENTS  0.1027000D+00 0.2526000D-01 0.1407000D+01 0.1407000D+01 0.1407000D+01
EXPONENTS  0.3880000D+00 0.3880000D+00 0.3880000D+00 0.1020000D+00 0.1020000D+00
EXPONENTS  0.1020000D+00 0.1057000D+01 0.1057000D+01 0.1057000D+01 0.1057000D+01
EXPONENTS  0.1057000D+01 0.1057000D+01 0.2470000D+00 0.2470000D+00 0.2470000D+00
EXPONENTS  0.2470000D+00 0.2470000D+00 0.2470000D+00 0.4561000D+06 0.6833000D+05
EXPONENTS  0.1555000D+05 0.4405000D+04 0.1439000D+04 0.5204000D+03 0.2031000D+03
EXPONENTS  0.8396000D+02 0.3620000D+02 0.1583000D+02 0.6334000D+01 0.4405000D+04
EXPONENTS  0.1439000D+04 0.5204000D+03 0.2031000D+03 0.8396000D+02 0.3620000D+02
EXPONENTS  0.1583000D+02 0.6334000D+01 0.2694000D+01 0.1439000D+04 0.2031000D+03
EXPONENTS  0.8396000D+02 0.3620000D+02 0.1583000D+02 0.6334000D+01 0.2694000D+01
EXPONENTS  0.4313000D+00 0.9768000D+00 0.1625000D+00 0.5910000D-01 0.6633000D+03
EXPONENTS  0.1568000D+03 0.4998000D+02 0.1842000D+02 0.7240000D+01 0.2922000D+01
EXPONENTS  0.6633000D+03 0.1568000D+03 0.4998000D+02 0.1842000D+02 0.7240000D+01
EXPONENTS  0.2922000D+01 0.6633000D+03 0.1568000D+03 0.4998000D+02 0.1842000D+02
EXPONENTS  0.7240000D+01 0.2922000D+01 0.1568000D+03 0.4998000D+02 0.1842000D+02
EXPONENTS  0.7240000D+01 0.2922000D+01 0.3818000D+00 0.1568000D+03 0.4998000D+02
EXPONENTS  0.1842000D+02 0.7240000D+01 0.2922000D+01 0.3818000D+00 0.1568000D+03
EXPONENTS  0.4998000D+02 0.1842000D+02 0.7240000D+01 0.2922000D+01 0.3818000D+00
EXPONENTS  0.1022000D+01 0.1022000D+01 0.1022000D+01 0.1301000D+00 0.1301000D+00
EXPONENTS  0.1301000D+00 0.4190000D-01 0.4190000D-01 0.4190000D-01 0.1046000D+01
EXPONENTS  0.1046000D+01 0.1046000D+01 0.1046000D+01 0.1046000D+01 0.1046000D+01
EXPONENTS  0.3440000D+00 0.3440000D+00 0.3440000D+00 0.3440000D+00 0.3440000D+00
EXPONENTS  0.3440000D+00 0.1350000D+00 0.1350000D+00 0.1350000D+00 0.1350000D+00
EXPONENTS  0.1350000D+00 0.1350000D+00 0.7060000D+00 0.7060000D+00 0.7060000D+00
EXPONENTS  0.7060000D+00 0.7060000D+00 0.7060000D+00 0.7060000D+00 0.7060000D+00
EXPONENTS  0.7060000D+00 0.7060000D+00 0.3120000D+00 0.3120000D+00 0.3120000D+00
EXPONENTS  0.3120000D+00 0.3120000D+00 0.3120000D+00 0.3120000D+00 0.3120000D+00
EXPONENTS  0.3120000D+00 0.3120000D+00 0.1950000D+05 0.2923000D+04 0.6645000D+03
EXPONENTS  0.1875000D+03 0.6062000D+02 0.2142000D+02 0.7950000D+01 0.6645000D+03
EXPONENTS  0.1875000D+03 0.6062000D+02 0.2142000D+02 0.7950000D+01 0.8815000D+00
EXPONENTS  0.2257000D+01 0.3041000D+00 0.9158000D-01 0.4388000D+02 0.9926000D+01
EXPONENTS  0.2930000D+01 0.4388000D+02 0.9926000D+01 0.2930000D+01 0.4388000D+02
EXPONENTS  0.9926000D+01 0.2930000D+01 0.9132000D+00 0.9132000D+00 0.9132000D+00
EXPONENTS  0.2672000D+00 0.2672000D+00 0.2672000D+00 0.7361000D-01 0.7361000D-01
EXPONENTS  0.7361000D-01 0.3107000D+01 0.3107000D+01 0.3107000D+01 0.3107000D+01
EXPONENTS  0.3107000D+01 0.3107000D+01 0.8550000D+00 0.8550000D+00 0.8550000D+00
EXPONENTS  0.8550000D+00 0.8550000D+00 0.8550000D+00 0.2920000D+00 0.2920000D+00
EXPONENTS  0.2920000D+00 0.2920000D+00 0.2920000D+00 0.2920000D+00 0.1917000D+01
EXPONENTS  0.1917000D+01 0.1917000D+01 0.1917000D+01 0.1917000D+01 0.1917000D+01
EXPONENTS  0.1917000D+01 0.1917000D+01 0.1917000D+01 0.1917000D+01 0.7240000D+00
EXPONENTS  0.7240000D+00 0.7240000D+00 0.7240000D+00 0.7240000D+00 0.7240000D+00
EXPONENTS  0.7240000D+00 0.7240000D+00 0.7240000D+00 0.7240000D+00
MO    1     MO 0.0        OCC NO =    2.0000300  ORB. ENERGY =    0.000000
 -0.46678495D-05 -0.87018119D-05 -0.14707248D-04 -0.22107736D-04 -0.27155394D-04
 -0.22918195D-04 -0.86178398D-05  0.98910094D-08  0.73929167D-07  0.27629018D-06
  0.77080657D-06  0.10326683D-05 -0.12193887D-05 -0.24177297D-05  0.82015480D-05
  0.28696211D-06 -0.80546617D-04 -0.75517573D-04 -0.53773011D-04  0.76469258D-04
  0.71694790D-04  0.51050962D-04  0.23283888D-06  0.21830125D-06  0.15544349D-06
 -0.26324072D-03  0.24968193D-03 -0.12106802D-05 -0.33545836D-03  0.31986931D-03
 -0.29856035D-06 -0.68315817D-05  0.64288886D-05 -0.44425199D-08  0.44212691D-04
 -0.45235551D-04  0.10228600D-05 -0.93667308D-04  0.36771763D-03 -0.35177373D-03
  0.13656186D-03 -0.13477748D-03 -0.17843828D-05 -0.28117466D-03 -0.71516375D-04
  0.67042317D-04  0.28501826D-04 -0.29007276D-04  0.50545058D-06 -0.59224835D-04
  0.47813979D-04 -0.45813005D-04 -0.66273633D-04  0.64161746D-04  0.34175859D-06
 -0.69121237D-04  0.64069313D-04  0.15561148D-04  0.26794214D-03 -0.25655455D-03
 -0.16586424D-04 -0.37064555D-04  0.19663221D-04 -0.19324846D-04  0.54703744D-07
  0.18305434D-04 -0.16300272D-04  0.35400835D-04 -0.77295097D-04  0.74274811D-04
 -0.35564946D-04 -0.73710959D-04 -0.27783196D-04 -0.50108139D-04 -0.73884422D-04
  0.24962877D-03  0.77930559D-03 -0.84028698D-05 -0.36054585D-05  0.49562914D-04
  0.16017673D-04 -0.57980962D-04  0.19921373D-03  0.18779474D-03 -0.54093294D-04
  0.11893528D-03  0.15423130D-04 -0.76467512D-04  0.29703665D-04  0.46763847D-04
 -0.20099283D-04  0.34138559D-04  0.20546656D-03 -0.29710091D-04 -0.82329298D-05
  0.37943021D-04 -0.20760820D-04 -0.44289259D-04  0.21721236D-04  0.38860025D-04
  0.70085656D-04  0.10334126D-03 -0.36418029D-03 -0.10965332D-02  0.11654088D-04
 -0.60042067D-04  0.35826718D-04 -0.22928332D-04 -0.23456876D-03  0.15750888D-03
 -0.26535975D-03 -0.13665483D-03  0.10003633D-03 -0.21587294D-04 -0.12015123D-05
  0.67275080D-04 -0.66073568D-04  0.13240798D-03 -0.25648283D-03  0.13518025D-03
  0.22495408D-04  0.31970281D-04 -0.54465689D-04  0.30170792D-04 -0.18962121D-04
  0.28036704D-04 -0.11035589D-04 -0.19903140D-04 -0.29347168D-04  0.98954598D-04
  0.31747784D-03 -0.32808303D-05 -0.19117088D-04 -0.71282812D-05  0.70148987D-05
 -0.11106557D-03  0.32615703D-04  0.77647114D-04 -0.78346420D-04  0.39653021D-04
  0.65230064D-05  0.13510211D-04 -0.32981179D-04  0.19470968D-04  0.21122606D-04
 -0.49852241D-04 -0.81670392D-04  0.68718457D-05 -0.21849517D-04  0.14977671D-04
 -0.66774619D-05 -0.38005789D-04  0.47707035D-04 -0.10873785D-05 -0.20343692D-05
 -0.35149388D-05 -0.56981287D-05 -0.86531553D-05 -0.12027072D-04 -0.14299267D-04
 -0.12738284D-04 -0.63261010D-05 -0.10184487D-05 -0.10745236D-07 -0.57935467D-08
 -0.19326302D-06 -0.67348292D-06 -0.24253211D-05 -0.53463185D-05 -0.75258909D-05
  0.35900952D-06  0.98489352D-05  0.58236137D-05  0.11247634D-08  0.13623631D-07
  0.28410647D-07  0.81476789D-07  0.42309762D-08 -0.35136743D-06 -0.90786595D-06
  0.73968644D-06  0.18418967D-06 -0.24668239D-05 -0.45599514D-06 -0.83996119D+01
 -0.11064254D+02 -0.12205604D+02 -0.10137710D+02 -0.53834052D+01 -0.13889467D+01
  0.80159867D+01  0.10558930D+02  0.11648152D+02  0.96747025D+01  0.51375355D+01
  0.13255110D+01 -0.25465313D-02 -0.33543774D-02 -0.37004033D-02 -0.30734747D-02
 -0.16321004D-02 -0.42109042D-03  0.33244361D-03 -0.32138509D-02 -0.45318653D-02
 -0.64817662D-02  0.32822752D-04  0.59443910D-02 -0.31729212D-03  0.30673761D-02
  0.43253204D-02  0.61863524D-02 -0.31326818D-04 -0.56734686D-02  0.13435776D-06
 -0.12988843D-05 -0.18315625D-05 -0.26196189D-05  0.13265381D-07  0.24024376D-05
 -0.55451608D-01  0.52919835D-01 -0.17345556D-04  0.46585040D-03 -0.44426190D-03
  0.75399470D-06  0.41935633D-04 -0.39993700D-04  0.41228871D-07  0.85235323D-05
 -0.85596524D-05  0.36120097D-07 -0.17839075D-04  0.70994715D-03 -0.67811584D-03
 -0.30636167D-05  0.30949406D-05 -0.31323845D-07  0.62750458D-05 -0.25767859D-03
  0.24632373D-03  0.87681660D-06 -0.87808447D-06  0.12678667D-08 -0.18117982D-05
  0.44062302D-04 -0.42234281D-04 -0.16299375D-05  0.17362895D-05  0.35300174D-07
 -0.15793603D-05  0.12944325D-05  0.24198960D-04  0.64691729D-05 -0.65033009D-05
 -0.24304860D-04 -0.50374851D-04 -0.10649729D-04  0.10113158D-04 -0.61857267D-07
 -0.10659359D-04  0.10261612D-04 -0.47736315D-05  0.42608547D-04 -0.40601087D-04
  0.49592033D-05  0.10231124D-04  0.94941028D-06  0.17697024D-05  0.30000398D-05
  0.45424660D-05  0.56790830D-05  0.48850298D-05  0.18735141D-05 -0.29491486D-08
 -0.39041206D-07 -0.14180476D-06 -0.42066116D-06 -0.48472702D-06  0.58877317D-06
  0.23404634D-08 -0.14854138D-05 -0.85657918D-06  0.20956799D-03  0.20495292D-03
  0.13542106D-03 -0.20149065D-03 -0.19705346D-03 -0.13020155D-03 -0.15686602D-05
 -0.15341154D-05 -0.10136549D-05  0.60710844D-05 -0.61056194D-05 -0.73202747D-06
  0.48086200D-04 -0.46212904D-04 -0.35999842D-06  0.14181719D-04 -0.13520889D-04
 -0.85737063D-07  0.49048832D-04 -0.49402347D-04  0.35351554D-06 -0.10214214D-03
  0.96452438D-04 -0.90624407D-04 -0.24554292D-04  0.24841044D-04 -0.28675181D-06
  0.51246800D-04 -0.73909528D-04  0.69966109D-04  0.12379150D-04 -0.12619211D-04
  0.24006131D-06 -0.25992830D-04  0.53471054D-04 -0.51095490D-04  0.51517435D-04
 -0.49062104D-04 -0.93862856D-06  0.50966027D-04 -0.50184511D-04 -0.12911422D-03
 -0.20551833D-03  0.19737082D-03  0.13193011D-03  0.27236328D-03 -0.18281610D-04
  0.17450017D-04  0.33781177D-06 -0.18112862D-04  0.17779413D-04  0.40937258D-04
  0.72957692D-04 -0.70129464D-04 -0.41950693D-04 -0.86502609D-04
MO    2     MO 0.0        OCC NO =    2.0000300  ORB. ENERGY =    0.000000
 -0.14316424D-04 -0.26688698D-04 -0.45107537D-04 -0.67805041D-04 -0.83286348D-04
 -0.70290739D-04 -0.26431154D-04 -0.14380002D-07 -0.10748161D-06 -0.40168331D-06
 -0.11206339D-05 -0.15013405D-05  0.17728032D-05  0.49643454D-07  0.23830238D-04
  0.55182701D-06  0.78329681D-04  0.73439054D-04  0.52292982D-04  0.81703774D-04
  0.76602481D-04  0.54545530D-04  0.90267044D-07  0.84631091D-07  0.60262379D-07
  0.25962892D-03  0.27032952D-03  0.34816808D-05  0.32411147D-03  0.33932471D-03
 -0.18626352D-05  0.64418340D-05  0.66551040D-05 -0.20791313D-07  0.47256725D-04
 -0.47391672D-04  0.13494699D-06  0.91913664D-04 -0.34989594D-03 -0.36749133D-03
  0.14227131D-03 -0.14108156D-03 -0.11897507D-05  0.27228907D-03  0.69805447D-04
  0.71888704D-04  0.29784480D-04 -0.29917952D-04  0.13347237D-06  0.56975547D-04
 -0.45793312D-04 -0.48171426D-04  0.63605524D-04  0.67524192D-04 -0.58835612D-06
  0.66035620D-04  0.67454112D-04  0.18888748D-04 -0.25685219D-03 -0.27002669D-03
 -0.17123679D-04  0.38227469D-04 -0.18871207D-04 -0.20061519D-04 -0.26028714D-06
 -0.17457402D-04 -0.17953007D-04  0.36998289D-04  0.74071022D-04  0.78137563D-04
 -0.36217428D-04  0.70499334D-04 -0.29049257D-04 -0.52391532D-04 -0.77251283D-04
  0.26518324D-03  0.82016359D-03 -0.89383083D-05  0.30851871D-05  0.52258650D-04
  0.17181283D-04  0.56412633D-04  0.21164145D-03  0.19613991D-03  0.52324143D-04
  0.12601041D-03  0.16075423D-04 -0.80386266D-04  0.32203698D-04  0.48182568D-04
  0.19718858D-04 -0.32177116D-04  0.21542807D-03 -0.31589963D-04 -0.83100401D-05
  0.39900004D-04  0.20156232D-04  0.42456893D-04  0.22769255D-04 -0.95262682D-05
 -0.17181017D-04 -0.25333399D-04  0.82961530D-04  0.26824459D-03 -0.28431335D-05
  0.16313889D-04 -0.47120627D-05  0.55266493D-05  0.10158385D-03  0.37852227D-04
  0.64758685D-04  0.72710599D-04  0.43535165D-04  0.54856075D-05  0.14843202D-04
 -0.30427527D-04  0.15584325D-04 -0.16235015D-04  0.39009979D-04 -0.74881178D-04
  0.79616893D-05 -0.20634094D-04  0.12672404D-04  0.77022910D-05  0.36495633D-04
  0.48237431D-04  0.37811140D-04  0.68193947D-04  0.10055194D-03 -0.37187994D-03
 -0.11039060D-02  0.11671943D-04  0.62098628D-04  0.37072110D-04 -0.25467755D-04
  0.23079679D-03  0.16224723D-03 -0.26673551D-03  0.13395434D-03  0.10373992D-03
 -0.21533693D-04  0.16042204D-05  0.65524056D-04 -0.67128276D-04 -0.13010524D-03
  0.25661321D-03  0.13466729D-03  0.23285959D-04  0.31006874D-04 -0.54292833D-04
 -0.30583500D-04  0.17154388D-04  0.30570237D-04  0.52364204D-04  0.97967837D-04
  0.16926669D-03  0.27440120D-03  0.41670455D-03  0.57918012D-03  0.68860078D-03
  0.61342950D-03  0.30464206D-03  0.49044795D-04  0.51745155D-06  0.24579956D-06
  0.81994619D-05  0.28573483D-04  0.10289774D-03  0.22682526D-03  0.31929676D-03
 -0.15231496D-04 -0.41785526D-03 -0.24707520D-03  0.49960024D-08  0.60513789D-07
  0.12619513D-06  0.36190566D-06  0.18793257D-07 -0.15607127D-05 -0.40325819D-05
  0.32855579D-05 -0.15367733D-04  0.13973145D-05 -0.16064911D-06  0.80159798D+01
  0.10558921D+02  0.11648142D+02  0.96746941D+01  0.51375310D+01  0.13255099D+01
  0.83996005D+01  0.11064239D+02  0.12205587D+02  0.10137696D+02  0.53833978D+01
  0.13889448D+01 -0.10153766D-02 -0.13374886D-02 -0.14754592D-02 -0.12254844D-02
 -0.65076624D-03 -0.16790109D-03 -0.31725551D-03  0.30670222D-02  0.43248214D-02
  0.61856387D-02 -0.31323204D-04 -0.56728141D-02 -0.33247157D-03  0.32141212D-02
  0.45322465D-02  0.64823114D-02 -0.32825512D-04 -0.59448909D-02  0.19160551D-07
 -0.18523188D-06 -0.26119628D-06 -0.37357978D-06  0.18917554D-08  0.34260789D-06
  0.52920860D-01  0.55454331D-01 -0.60286195D-05 -0.44425553D-03 -0.46519443D-03
 -0.71757838D-07 -0.39994714D-04 -0.41880902D-04  0.19605963D-07  0.90595895D-05
 -0.87808438D-05 -0.27874561D-06  0.17262702D-04 -0.67743683D-03 -0.71048160D-03
 -0.32291959D-05  0.30566854D-05  0.17251048D-06 -0.59320448D-05  0.24626135D-03
  0.25847975D-03  0.87471279D-06 -0.88862924D-06  0.13916457D-07  0.16878042D-05
 -0.42120735D-04 -0.44327785D-04  0.16305684D-05  0.17333857D-05 -0.35840219D-07
  0.15877209D-05  0.19297447D-05  0.25087410D-04 -0.64794262D-05 -0.71299017D-05
 -0.24979890D-04  0.48207005D-04  0.10174235D-04  0.10657259D-04 -0.20314315D-07
  0.10166031D-04  0.10600678D-04 -0.50098476D-05 -0.40688735D-04 -0.42572454D-04
  0.50707906D-05 -0.98271917D-05 -0.18610055D-05 -0.34689175D-05 -0.58805881D-05
 -0.89040056D-05 -0.11131968D-04 -0.95754888D-05 -0.36724060D-05 -0.22930180D-08
 -0.30355265D-07 -0.11025585D-06 -0.32707189D-06 -0.37688429D-06  0.45778211D-06
 -0.25975281D-06 -0.83923395D-06 -0.85534274D-07 -0.19798371D-03 -0.19362374D-03
 -0.12793539D-03 -0.20902009D-03 -0.20441709D-03 -0.13506701D-03  0.35943899D-05
  0.35152348D-05  0.23226642D-05 -0.57520205D-05 -0.63460564D-05  0.10043977D-05
 -0.45544585D-04 -0.48066970D-04 -0.54322306D-06 -0.13466110D-04 -0.14097420D-04
  0.50065489D-07  0.51027168D-04 -0.51092934D-04  0.65765918D-07  0.98213507D-04
 -0.91709479D-04 -0.94612427D-04 -0.25629941D-04  0.25645070D-04 -0.15129510D-07
 -0.49314984D-04  0.70293151D-04  0.73066555D-04  0.13078725D-04 -0.12911445D-04
 -0.16728059D-06  0.25054851D-04 -0.50853930D-04 -0.53361127D-04 -0.48728939D-04
 -0.51563052D-04  0.10757921D-06 -0.49648459D-04 -0.51831954D-04 -0.13598314D-03
  0.19583528D-03  0.20652111D-03  0.13566040D-03 -0.26277552D-03  0.17310659D-04
  0.18320102D-04 -0.48477738D-07  0.17590802D-04  0.18422184D-04  0.43209313D-04
 -0.69522779D-04 -0.73382491D-04 -0.43063880D-04  0.83477879D-04
MO    3     MO 0.0        OCC NO =    2.0000210  ORB. ENERGY =    0.000000
 -0.14441850D-01 -0.26922517D-01 -0.45502722D-01 -0.68399079D-01 -0.84016017D-01
 -0.70906554D-01 -0.26662716D-01 -0.38066226D-05 -0.28452146D-04 -0.10633216D-03
 -0.29665018D-03 -0.39742946D-03  0.46929009D-03 -0.87298062D-03 -0.19419507D-02
 -0.82689391D-04  0.36820912D-05  0.34521946D-05  0.24581682D-05  0.23315505D-05
  0.21859768D-05  0.15565457D-05  0.11688015D-02  0.10958257D-02  0.78029317D-03
 -0.10022933D-04 -0.65985892D-05  0.60984212D-03 -0.27047321D-05 -0.40337362D-05
 -0.38024912D-03 -0.31117466D-07  0.26330860D-07  0.46604758D-05 -0.10725239D-03
 -0.10537294D-03  0.21262533D-03 -0.37563255D-05  0.68973815D-06  0.28274652D-06
 -0.24686778D-04 -0.22266679D-04  0.46953456D-04 -0.47515022D-05  0.20322691D-05
  0.19196189D-05  0.11129942D-04  0.11611611D-04 -0.22741553D-04 -0.13499224D-06
 -0.11026284D-06 -0.40393404D-06  0.30339578D-07  0.36118606D-04  0.79136896D-05
 -0.61422869D-06 -0.10895429D-03 -0.11692395D-04  0.52320996D-06  0.59847654D-06
 -0.12048674D-04  0.11267585D-05  0.30237096D-06  0.51747407D-04 -0.85858793D-04
 -0.59732706D-06 -0.15473372D-03  0.12908670D-03 -0.30978582D-06 -0.50850362D-06
  0.12848968D-03  0.82837124D-06 -0.48865825D-05 -0.88131528D-05 -0.12994989D-04
  0.74601359D-03  0.22865746D-03  0.50688397D-05  0.33428289D-06  0.95302022D-04
  0.28111684D-04  0.21008830D-08  0.19543622D-03 -0.40643713D-05 -0.15135728D-06
  0.42710371D-04  0.38287382D-04 -0.73444429D-04  0.53172999D-04  0.20271430D-04
  0.43407079D-06  0.13456383D-06  0.75984437D-04 -0.93256976D-05 -0.12314799D-04
  0.21640497D-04 -0.33842374D-06  0.22386694D-06 -0.34429547D-04 -0.49927349D-05
 -0.90046029D-05 -0.13277282D-04  0.74803723D-03  0.23574050D-03  0.49669376D-05
  0.83271588D-04 -0.46983008D-04  0.28025105D-04  0.16854710D-03 -0.10005302D-03
 -0.41421123D-05  0.37484982D-04 -0.22473226D-04  0.38995941D-04  0.21380821D-04
 -0.41635441D-04  0.20254620D-04 -0.11000270D-03  0.65363391D-04 -0.38512754D-04
 -0.11886776D-04 -0.98453973D-05  0.21732173D-04  0.22090985D-05 -0.29852580D-04
  0.17542378D-04 -0.39067931D-05 -0.70460622D-05 -0.10389415D-04  0.76646490D-03
  0.25012128D-03  0.52933082D-05 -0.85864286D-04 -0.49367692D-04  0.31181524D-04
 -0.17212974D-03 -0.10322455D-03 -0.64594076D-05 -0.39526929D-04 -0.23716868D-04
  0.39716500D-04  0.20615480D-04 -0.41553410D-04  0.20937930D-04  0.11169012D-03
 -0.66019990D-04 -0.39448430D-04 -0.11305956D-04 -0.10174474D-04  0.21480430D-04
 -0.13560058D-05  0.30424902D-04  0.17792254D-04 -0.15455586D+00 -0.28915752D+00
 -0.49960006D+00 -0.80991040D+00 -0.12299267D+01 -0.17094823D+01 -0.20324435D+01
 -0.18105713D+01 -0.89916800D+00 -0.14475844D+00 -0.15272871D-02 -0.72262402D-03
 -0.24105528D-01 -0.84002938D-01 -0.30250818D+00 -0.66684164D+00 -0.93869781D+00
  0.44778945D-01  0.12284491D+01  0.72637426D+00 -0.15529114D-04 -0.18809549D-03
 -0.39225331D-03 -0.11249142D-02 -0.58415229D-04  0.48511756D-02  0.12534506D-01
 -0.10212526D-01  0.46584852D-01 -0.38354610D-03 -0.13182849D-03  0.14414048D-02
  0.18986673D-02  0.20945273D-02  0.17396689D-02  0.92381246D-03  0.23834844D-03
  0.33001996D-02  0.43471349D-02  0.47955702D-02  0.39830966D-02  0.21151348D-02
  0.54571583D-03  0.59464644D+01  0.78328847D+01  0.86408980D+01  0.71769423D+01
  0.38111555D+01  0.98329805D+00 -0.64648530D-07  0.62498039D-06  0.88128759D-06
  0.12604744D-05 -0.63828649D-08 -0.11559739D-05 -0.11760288D-06  0.11369089D-05
  0.16031603D-05  0.22929433D-05 -0.11611142D-07 -0.21028452D-05 -0.21103809D-03
  0.20401805D-02  0.28768675D-02  0.41146815D-02 -0.20836168D-04 -0.37735510D-02
  0.10002229D-04  0.22678883D-04  0.41689956D-01 -0.83674497D-07 -0.77280805D-07
 -0.48456049D-03  0.62365211D-09 -0.28599019D-07 -0.98527720D-05 -0.65862208D-05
 -0.67265360D-05  0.13312757D-04  0.40830298D-06 -0.62345295D-06  0.63138560D-07
 -0.11180177D-03 -0.11177432D-03  0.22357609D-03 -0.10758519D-06  0.29363139D-06
  0.97479541D-07 -0.14356907D-04 -0.14363393D-04  0.28720300D-04 -0.44414466D-07
 -0.55543388D-07 -0.35523446D-07 -0.45761661D-08 -0.71598477D-05  0.54200490D-05
  0.12304326D-06  0.21564350D-04 -0.80911279D-05 -0.10931476D-06 -0.84806528D-07
 -0.81690192D-05 -0.52141318D-06  0.13879794D-07  0.20461469D-05 -0.33879280D-04
 -0.22737874D-07 -0.61347125D-05  0.50822764D-04 -0.18901507D-07 -0.37282104D-08
  0.50815076D-04  0.27456689D-06 -0.88007393D-03 -0.16404593D-02 -0.27809440D-02
 -0.42107253D-02 -0.52643341D-02 -0.45282713D-02 -0.17366895D-02 -0.68713821D-06
 -0.90964233D-05 -0.33039865D-04 -0.98012136D-04 -0.11293919D-03  0.13718147D-03
 -0.96095916D-04 -0.16039131D-03  0.12215011D-04 -0.36043810D-06 -0.35250059D-06
 -0.23291204D-06  0.13992406D-05  0.13684268D-05  0.90417744D-06  0.39043245D-02
  0.38183441D-02  0.25229414D-02 -0.26648315D-06  0.54398805D-06  0.87971751D-03
  0.42793484D-08 -0.10166938D-06  0.21038981D-04 -0.32885290D-07 -0.41907786D-07
  0.93318549D-05 -0.35423019D-04 -0.35870534D-04  0.71293553D-04  0.40839220D-06
  0.46614313D-06 -0.28895078D-06  0.21041429D-04  0.21248119D-04 -0.42289547D-04
 -0.17945353D-06 -0.19195546D-06  0.13381639D-06  0.18163360D-04  0.18070813D-04
 -0.36234173D-04  0.60149339D-07  0.11461321D-06 -0.20505568D-07  0.18699349D-07
 -0.26186800D-05  0.46030980D-04  0.70234568D-07  0.84748884D-05 -0.69397324D-04
 -0.12633261D-06 -0.61884835D-06 -0.68695618D-04  0.49364265D-06 -0.17223440D-07
  0.82209938D-06 -0.25268200D-04 -0.33601038D-07 -0.26985227D-05  0.38013711D-04
  0.85271358D-07  0.23222452D-06  0.37790889D-04 -0.12005012D-06
MO    4     MO 0.0        OCC NO =    2.0000123  ORB. ENERGY =    0.000000
  0.27155537D-01  0.50623391D-01  0.85560428D-01  0.12861328D+00  0.15797838D+00
  0.13332818D+00  0.50134877D-01 -0.13962419D-05 -0.10436043D-04 -0.39001877D-04
 -0.10880916D-03 -0.14577428D-03  0.17213224D-03  0.26721963D-02 -0.36291917D-02
 -0.43787104D-04 -0.44213748D-05 -0.41453199D-05 -0.29517147D-05 -0.16295257D-05
 -0.15277839D-05 -0.10878731D-05  0.36707301D-02  0.34415428D-02  0.24505835D-02
 -0.16890734D-04 -0.93829411D-05  0.13088314D-02 -0.71428211D-05 -0.69764440D-05
 -0.41893457D-03 -0.55081586D-07  0.10286460D-07  0.36580266D-05 -0.31984974D-03
 -0.31798284D-03  0.63783257D-03 -0.29281510D-05  0.52111951D-06  0.31424676D-06
  0.88122156D-05  0.11388568D-04 -0.20200784D-04 -0.95020017D-05  0.42521572D-05
  0.33575841D-05 -0.18024568D-04 -0.17704921D-04  0.35729489D-04 -0.98506048D-06
 -0.25660605D-06 -0.47127707D-06 -0.19030313D-06 -0.42926912D-04  0.23030269D-04
  0.53073461D-06  0.12860252D-03 -0.34264471D-04  0.40174786D-07  0.17821796D-06
 -0.34826335D-04  0.16045270D-05  0.51027093D-06  0.82227362D-04 -0.16399015D-03
 -0.92046816D-06 -0.24563459D-03  0.24621865D-03 -0.61034463D-06 -0.10474977D-05
  0.24575179D-03  0.19583284D-05 -0.90573815D-04 -0.16335360D-03 -0.24086479D-03
  0.10169833D-02  0.67344895D-03  0.42564144D-05  0.17968474D-06 -0.59243535D-04
  0.32737630D-04 -0.86783508D-06  0.29983050D-03 -0.42405544D-04 -0.10159989D-05
  0.10892789D-03  0.75122564D-04 -0.14111406D-03  0.22078785D-04  0.11903528D-03
 -0.40951472D-06 -0.96099668D-07  0.14258930D-03 -0.14428519D-04 -0.21451241D-04
  0.35879760D-04 -0.87142389D-06  0.54252793D-06 -0.62450727D-04 -0.90543951D-04
 -0.16329974D-03 -0.24078538D-03  0.10164516D-02  0.67720174D-03  0.41783286D-05
 -0.50452574D-04  0.30609616D-04  0.32310852D-04  0.25735010D-03 -0.15252081D-03
 -0.41966603D-04  0.94461148D-04 -0.55819120D-04  0.75859994D-04 -0.18674687D-04
 -0.10045213D-03  0.11912682D-03 -0.14152499D-03  0.12255310D-03 -0.72220506D-04
 -0.20246146D-04 -0.15774907D-04  0.36021053D-04  0.56299408D-05 -0.54120245D-04
  0.31689481D-04 -0.91161721D-04 -0.16441392D-03 -0.24242823D-03  0.10485385D-02
  0.71472982D-03  0.45944945D-05  0.44379881D-04  0.27190166D-04  0.38475316D-04
 -0.26458912D-03 -0.15735694D-03 -0.47751227D-04 -0.99039969D-04 -0.57867096D-04
  0.77628282D-04 -0.16153758D-04 -0.10188060D-03  0.11803436D-03  0.15060183D-03
 -0.12520934D-03 -0.74376012D-04 -0.19435768D-04 -0.16516683D-04  0.35952451D-04
 -0.48198897D-05  0.55614025D-04  0.32247140D-04  0.91378257D-01  0.17095897D+00
  0.29537918D+00  0.47884435D+00  0.72717110D+00  0.10106994D+01  0.12016442D+01
  0.10704664D+01  0.53161624D+00  0.85585716D-01  0.90297986D-03  0.42783159D-03
  0.14271746D-01  0.49734176D-01  0.17910082D+00  0.39480547D+00  0.55575868D+00
 -0.26511501D-01 -0.72730675D+00 -0.43005193D+00  0.62822594D-05  0.76093502D-04
  0.15868498D-03  0.45508089D-03  0.23631717D-04 -0.19625295D-02 -0.50707993D-02
  0.41314486D-02 -0.28565195D-01  0.14204849D-02 -0.18063320D-03 -0.21669072D-02
 -0.28543237D-02 -0.31487658D-02 -0.26152965D-02 -0.13887950D-02 -0.35831638D-03
  0.95507225D-03  0.12580536D-02  0.13878300D-02  0.11527015D-02  0.61211649D-03
  0.15792925D-03  0.99110724D+01  0.13055201D+02  0.14401930D+02  0.11961931D+02
  0.63521171D+01  0.16388794D+01  0.51997737D-07 -0.50268067D-06 -0.70883221D-06
 -0.10138176D-05  0.51338295D-08  0.92976633D-06 -0.33240172D-07  0.32134459D-06
  0.45312942D-06  0.64809493D-06 -0.32818615D-08 -0.59436418D-06 -0.33688723D-03
  0.32568090D-02  0.45924407D-02  0.65684050D-02 -0.33261478D-04 -0.60238469D-02
 -0.15111524D-04  0.71080355D-05  0.72532522D-01  0.15853464D-06  0.16766266D-06
 -0.30788171D-03  0.21358742D-07 -0.16307595D-07 -0.39984679D-05  0.45520435D-03
  0.45498275D-03 -0.91018710D-03  0.31865119D-06 -0.14866585D-06 -0.56355454D-07
 -0.31014717D-03 -0.31010558D-03  0.62025275D-03 -0.12636716D-06  0.17965236D-06
  0.14055132D-06  0.42021585D-05  0.42280896D-05 -0.84302480D-05 -0.77930492D-07
 -0.11383729D-06 -0.83908031D-07  0.13370437D-07 -0.14416216D-04 -0.46914275D-04
  0.27186699D-06  0.43521837D-04  0.70286052D-04 -0.31197830D-06 -0.27318824D-06
  0.70456773D-04 -0.11675091D-05  0.14051165D-07  0.41615623D-05 -0.62813461D-04
 -0.60787776D-07 -0.12494899D-04  0.94275365D-04  0.18634282D-07  0.10212408D-07
  0.94165018D-04  0.59281027D-06 -0.63688487D-02 -0.11871545D-01 -0.20124913D-01