 title line
GAUSSIAN            211 MOL ORBITALS    339 PRIMITIVES        6 NUCLEI
  C    1    (CENTRE  1)   0.00033070  0.00005480 -0.94053370  CHARGE =  6.0
  H    2    (CENTRE  2)   0.00003590 -1.98906904 -1.17300214  CHARGE =  1.0
  H    3    (CENTRE  3)  -1.72213010  0.99468570 -1.17398291  CHARGE =  1.0
  H    4    (CENTRE  4)   1.72295780  0.99424539 -1.17459707  CHARGE =  1.0
  Cl   5    (CENTRE  5)   0.00104880 -0.01707934  3.10806659  CHARGE = 17.0
  F    6    (CENTRE  6)  -0.00035149 -0.00174044 -4.90092914  CHARGE =  9.0
CENTRE ASSIGNMENTS    1  1  1  1  1  1  1  1  1  1  1  1  1  1  1  1  1  1  1  1
CENTRE ASSIGNMENTS    1  1  1  1  1  1  1  1  1  1  1  1  1  1  1  1  1  1  1  1
CENTRE ASSIGNMENTS    1  1  1  1  1  1  1  1  1  1  1  1  1  1  1  1  1  1  1  1
CENTRE ASSIGNMENTS    1  1  1  1  1  1  1  1  1  1  1  1  2  2  2  2  2  2  2  2
CENTRE ASSIGNMENTS    2  2  2  2  2  2  2  2  2  2  2  2  2  2  2  2  2  2  2  3
CENTRE ASSIGNMENTS    3  3  3  3  3  3  3  3  3  3  3  3  3  3  3  3  3  3  3  3
CENTRE ASSIGNMENTS    3  3  3  3  3  3  4  4  4  4  4  4  4  4  4  4  4  4  4  4
CENTRE ASSIGNMENTS    4  4  4  4  4  4  4  4  4  4  4  4  4  5  5  5  5  5  5  5
CENTRE ASSIGNMENTS    5  5  5  5  5  5  5  5  5  5  5  5  5  5  5  5  5  5  5  5
CENTRE ASSIGNMENTS    5  5  5  5  5  5  5  5  5  5  5  5  5  5  5  5  5  5  5  5
CENTRE ASSIGNMENTS    5  5  5  5  5  5  5  5  5  5  5  5  5  5  5  5  5  5  5  5
CENTRE ASSIGNMENTS    5  5  5  5  5  5  5  5  5  5  5  5  5  5  5  5  5  5  5  5
CENTRE ASSIGNMENTS    5  5  5  5  5  5  5  5  5  5  5  5  5  5  5  5  5  5  5  5
CENTRE ASSIGNMENTS    5  5  5  5  5  5  5  6  6  6  6  6  6  6  6  6  6  6  6  6
CENTRE ASSIGNMENTS    6  6  6  6  6  6  6  6  6  6  6  6  6  6  6  6  6  6  6  6
CENTRE ASSIGNMENTS    6  6  6  6  6  6  6  6  6  6  6  6  6  6  6  6  6  6  6  6
CENTRE ASSIGNMENTS    6  6  6  6  6  6  6  6  6  6  6  6  6  6  6  6  6  6  6
TYPE ASSIGNMENTS      1  1  1  1  1  1  1  1  1  1  1  1  1  1  1  1  2  2  2  3
TYPE ASSIGNMENTS      3  3  4  4  4  2  3  4  2  3  4  2  3  4  5  6  7  8  9 10
TYPE ASSIGNMENTS      5  6  7  8  9 10  5  6  7  8  9 10 11 12 13 17 14 15 18 19
TYPE ASSIGNMENTS     16 20 11 12 13 17 14 15 18 19 16 20  1  1  1  1  1  1  2  3
TYPE ASSIGNMENTS      4  2  3  4  2  3  4  5  6  7  8  9 10  5  6  7  8  9 10  1
TYPE ASSIGNMENTS      1  1  1  1  1  2  3  4  2  3  4  2  3  4  5  6  7  8  9 10
TYPE ASSIGNMENTS      5  6  7  8  9 10  1  1  1  1  1  1  2  3  4  2  3  4  2  3
TYPE ASSIGNMENTS      4  5  6  7  8  9 10  5  6  7  8  9 10  1  1  1  1  1  1  1
TYPE ASSIGNMENTS      1  1  1  1  1  1  1  1  1  1  1  1  1  1  1  1  1  1  1  1
TYPE ASSIGNMENTS      1  1  1  1  2  2  2  2  2  2  3  3  3  3  3  3  4  4  4  4
TYPE ASSIGNMENTS      4  4  2  2  2  2  2  2  3  3  3  3  3  3  4  4  4  4  4  4
TYPE ASSIGNMENTS      2  3  4  2  3  4  2  3  4  5  6  7  8  9 10  5  6  7  8  9
TYPE ASSIGNMENTS     10  5  6  7  8  9 10 11 12 13 17 14 15 18 19 16 20 11 12 13
TYPE ASSIGNMENTS     17 14 15 18 19 16 20  1  1  1  1  1  1  1  1  1  1  1  1  1
TYPE ASSIGNMENTS      1  1  1  2  2  2  3  3  3  4  4  4  2  3  4  2  3  4  2  3
TYPE ASSIGNMENTS      4  5  6  7  8  9 10  5  6  7  8  9 10  5  6  7  8  9 10 11
TYPE ASSIGNMENTS     12 13 17 14 15 18 19 16 20 11 12 13 17 14 15 18 19 16 20
EXPONENTS  0.8236000D+04 0.1235000D+04 0.2808000D+03 0.7927000D+02 0.2559000D+02
EXPONENTS  0.8997000D+01 0.3319000D+01 0.2808000D+03 0.7927000D+02 0.2559000D+02
EXPONENTS  0.8997000D+01 0.3319000D+01 0.3643000D+00 0.9059000D+00 0.1285000D+00
EXPONENTS  0.4402000D-01 0.1871000D+02 0.4133000D+01 0.1200000D+01 0.1871000D+02
EXPONENTS  0.4133000D+01 0.1200000D+01 0.1871000D+02 0.4133000D+01 0.1200000D+01
EXPONENTS  0.3827000D+00 0.3827000D+00 0.3827000D+00 0.1209000D+00 0.1209000D+00
EXPONENTS  0.1209000D+00 0.3569000D-01 0.3569000D-01 0.3569000D-01 0.1097000D+01
EXPONENTS  0.1097000D+01 0.1097000D+01 0.1097000D+01 0.1097000D+01 0.1097000D+01
EXPONENTS  0.3180000D+00 0.3180000D+00 0.3180000D+00 0.3180000D+00 0.3180000D+00
EXPONENTS  0.3180000D+00 0.1000000D+00 0.1000000D+00 0.1000000D+00 0.1000000D+00
EXPONENTS  0.1000000D+00 0.1000000D+00 0.7610000D+00 0.7610000D+00 0.7610000D+00
EXPONENTS  0.7610000D+00 0.7610000D+00 0.7610000D+00 0.7610000D+00 0.7610000D+00
EXPONENTS  0.7610000D+00 0.7610000D+00 0.2680000D+00 0.2680000D+00 0.2680000D+00
EXPONENTS  0.2680000D+00 0.2680000D+00 0.2680000D+00 0.2680000D+00 0.2680000D+00
EXPONENTS  0.2680000D+00 0.2680000D+00 0.3387000D+02 0.5095000D+01 0.1159000D+01
EXPONENTS  0.3258000D+00 0.1027000D+00 0.2526000D-01 0.1407000D+01 0.1407000D+01
EXPONENTS  0.1407000D+01 0.3880000D+00 0.3880000D+00 0.3880000D+00 0.1020000D+00
EXPONENTS  0.1020000D+00 0.1020000D+00 0.1057000D+01 0.1057000D+01 0.1057000D+01
EXPONENTS  0.1057000D+01 0.1057000D+01 0.1057000D+01 0.2470000D+00 0.2470000D+00
EXPONENTS  0.2470000D+00 0.2470000D+00 0.2470000D+00 0.2470000D+00 0.3387000D+02
EXPONENTS  0.5095000D+01 0.1159000D+01 0.3258000D+00 0.1027000D+00 0.2526000D-01
EXPONENTS  0.1407000D+01 0.1407000D+01 0.1407000D+01 0.3880000D+00 0.3880000D+00
EXPONENTS  0.3880000D+00 0.1020000D+00 0.1020000D+00 0.1020000D+00 0.1057000D+01
EXPONENTS  0.1057000D+01 0.1057000D+01 0.1057000D+01 0.1057000D+01 0.1057000D+01
EXPONENTS  0.2470000D+00 0.2470000D+00 0.2470000D+00 0.2470000D+00 0.2470000D+00
EXPONENTS  0.2470000D+00 0.3387000D+02 0.5095000D+01 0.1159000D+01 0.3258000D+00
EXPONENTS  0.1027000D+00 0.2526000D-01 0.1407000D+01 0.1407000D+01 0.1407000D+01
EXPONENTS  0.3880000D+00 0.3880000D+00 0.3880000D+00 0.1020000D+00 0.1020000D+00
EXPONENTS  0.1020000D+00 0.1057000D+01 0.1057000D+01 0.1057000D+01 0.1057000D+01
EXPONENTS  0.1057000D+01 0.1057000D+01 0.2470000D+00 0.2470000D+00 0.2470000D+00
EXPONENTS  0.2470000D+00 0.2470000D+00 0.2470000D+00 0.4561000D+06 0.6833000D+05
EXPONENTS  0.1555000D+05 0.4405000D+04 0.1439000D+04 0.5204000D+03 0.2031000D+03
EXPONENTS  0.8396000D+02 0.3620000D+02 0.1583000D+02 0.6334000D+01 0.4405000D+04
EXPONENTS  0.1439000D+04 0.5204000D+03 0.2031000D+03 0.8396000D+02 0.3620000D+02
EXPONENTS  0.1583000D+02 0.6334000D+01 0.2694000D+01 0.1439000D+04 0.2031000D+03
EXPONENTS  0.8396000D+02 0.3620000D+02 0.1583000D+02 0.6334000D+01 0.2694000D+01
EXPONENTS  0.4313000D+00 0.9768000D+00 0.1625000D+00 0.5910000D-01 0.6633000D+03
EXPONENTS  0.1568000D+03 0.4998000D+02 0.1842000D+02 0.7240000D+01 0.2922000D+01
EXPONENTS  0.6633000D+03 0.1568000D+03 0.4998000D+02 0.1842000D+02 0.7240000D+01
EXPONENTS  0.2922000D+01 0.6633000D+03 0.1568000D+03 0.4998000D+02 0.1842000D+02
EXPONENTS  0.7240000D+01 0.2922000D+01 0.1568000D+03 0.4998000D+02 0.1842000D+02
EXPONENTS  0.7240000D+01 0.2922000D+01 0.3818000D+00 0.1568000D+03 0.4998000D+02
EXPONENTS  0.1842000D+02 0.7240000D+01 0.2922000D+01 0.3818000D+00 0.1568000D+03
EXPONENTS  0.4998000D+02 0.1842000D+02 0.7240000D+01 0.2922000D+01 0.3818000D+00
EXPONENTS  0.1022000D+01 0.1022000D+01 0.1022000D+01 0.1301000D+00 0.1301000D+00
EXPONENTS  0.1301000D+00 0.4190000D-01 0.4190000D-01 0.4190000D-01 0.1046000D+01
EXPONENTS  0.1046000D+01 0.1046000D+01 0.1046000D+01 0.1046000D+01 0.1046000D+01
EXPONENTS  0.3440000D+00 0.3440000D+00 0.3440000D+00 0.3440000D+00 0.3440000D+00
EXPONENTS  0.3440000D+00 0.1350000D+00 0.1350000D+00 0.1350000D+00 0.1350000D+00
EXPONENTS  0.1350000D+00 0.1350000D+00 0.7060000D+00 0.7060000D+00 0.7060000D+00
EXPONENTS  0.7060000D+00 0.7060000D+00 0.7060000D+00 0.7060000D+00 0.7060000D+00
EXPONENTS  0.7060000D+00 0.7060000D+00 0.3120000D+00 0.3120000D+00 0.3120000D+00
EXPONENTS  0.3120000D+00 0.3120000D+00 0.3120000D+00 0.3120000D+00 0.3120000D+00
EXPONENTS  0.3120000D+00 0.3120000D+00 0.1950000D+05 0.2923000D+04 0.6645000D+03
EXPONENTS  0.1875000D+03 0.6062000D+02 0.2142000D+02 0.7950000D+01 0.6645000D+03
EXPONENTS  0.1875000D+03 0.6062000D+02 0.2142000D+02 0.7950000D+01 0.8815000D+00
EXPONENTS  0.2257000D+01 0.3041000D+00 0.9158000D-01 0.4388000D+02 0.9926000D+01
EXPONENTS  0.2930000D+01 0.4388000D+02 0.9926000D+01 0.2930000D+01 0.4388000D+02
EXPONENTS  0.9926000D+01 0.2930000D+01 0.9132000D+00 0.9132000D+00 0.9132000D+00
EXPONENTS  0.2672000D+00 0.2672000D+00 0.2672000D+00 0.7361000D-01 0.7361000D-01
EXPONENTS  0.7361000D-01 0.3107000D+01 0.3107000D+01 0.3107000D+01 0.3107000D+01
EXPONENTS  0.3107000D+01 0.3107000D+01 0.8550000D+00 0.8550000D+00 0.8550000D+00
EXPONENTS  0.8550000D+00 0.8550000D+00 0.8550000D+00 0.2920000D+00 0.2920000D+00
EXPONENTS  0.2920000D+00 0.2920000D+00 0.2920000D+00 0.2920000D+00 0.1917000D+01
EXPONENTS  0.1917000D+01 0.1917000D+01 0.1917000D+01 0.1917000D+01 0.1917000D+01
EXPONENTS  0.1917000D+01 0.1917000D+01 0.1917000D+01 0.1917000D+01 0.7240000D+00
EXPONENTS  0.7240000D+00 0.7240000D+00 0.7240000D+00 0.7240000D+00 0.7240000D+00
EXPONENTS  0.7240000D+00 0.7240000D+00 0.7240000D+00 0.7240000D+00
MO    1     MO 0.0        OCC NO =    2.0000300  ORB. ENERGY =    0.000000
  0.44908339D-04  0.83718192D-04  0.14149515D-03  0.21269360D-03  0.26125599D-03
  0.22049084D-03  0.82910314D-04 -0.20411342D-07 -0.15256214D-06 -0.57015954D-06
 -0.15906564D-05 -0.21310410D-05  0.25163620D-05  0.78313393D-05 -0.28590053D-04
 -0.28492736D-05  0.13564297D-07  0.12717390D-07  0.90555395D-08  0.11239108D-03
  0.10537378D-03  0.75032407D-04  0.77496845D-05  0.72658218D-05  0.51736980D-05
  0.38949304D-07  0.36178601D-03  0.12356648D-05  0.48609461D-07  0.46290316D-03
 -0.13089484D-05  0.91747052D-09  0.92876463D-05  0.35113637D-07  0.62945908D-04
 -0.62100146D-04 -0.84576188D-06 -0.12597516D-06 -0.77235105D-07 -0.51013737D-03
  0.19282223D-03 -0.19545701D-03  0.26347832D-05 -0.89487612D-07 -0.55712646D-07
  0.99928815D-04  0.41372579D-04 -0.40612295D-04 -0.76028451D-06 -0.34232221D-07
 -0.21552920D-07 -0.65653673D-04  0.13987540D-07  0.92945322D-04 -0.11215685D-05
  0.58741980D-08  0.91521100D-04  0.25533054D-04 -0.47836819D-07 -0.37035707D-03
 -0.22168348D-04 -0.17590665D-06  0.59228646D-08 -0.25505125D-04  0.33720002D-06
 -0.10286734D-07 -0.30253885D-04  0.51417504D-04 -0.74818597D-08  0.10676926D-03
 -0.52429104D-04  0.20225727D-07 -0.39586630D-04 -0.71396118D-04 -0.10527353D-03
  0.37906333D-03  0.11269376D-02 -0.12157515D-04  0.13651980D-07  0.73197552D-04
  0.24878825D-04  0.83955820D-07  0.28890730D-03  0.27698152D-03  0.24913533D-07
  0.17281920D-03  0.23790015D-04 -0.11074708D-03  0.40872468D-04  0.69874607D-04
  0.91216303D-07  0.10299742D-06  0.29842477D-03 -0.43787581D-04 -0.12402431D-04
  0.56190012D-04  0.12947905D-07  0.38015664D-07  0.31142518D-04  0.20034662D-04
  0.36133338D-04  0.53278585D-04 -0.16984079D-03 -0.55874492D-03  0.62668837D-05
 -0.27819259D-04  0.20963219D-04 -0.11398786D-04 -0.86107892D-04  0.13346071D-03
 -0.13495560D-03 -0.41453994D-04  0.99541054D-04 -0.10746687D-04  0.94142003D-05
  0.23604396D-04 -0.33018596D-04  0.78838897D-04 -0.14912799D-03  0.41067322D-04
  0.20492583D-04  0.65415996D-05 -0.27034182D-04  0.26097981D-04  0.13480870D-04
  0.54485450D-04  0.20032949D-04  0.36130248D-04  0.53274029D-04 -0.16982658D-03
 -0.55870558D-03  0.62667419D-05  0.27817757D-04  0.20954756D-04 -0.11407383D-04
  0.86083123D-04  0.13343382D-03 -0.13497902D-03  0.41469540D-04  0.99529067D-04
 -0.10761429D-04  0.94478171D-05  0.23621284D-04 -0.33069101D-04 -0.78810221D-04
  0.14910106D-03  0.41053117D-04  0.20480680D-04  0.65466178D-05 -0.27027298D-04
 -0.26085194D-04 -0.13502398D-04  0.54498803D-04  0.42019539D-04  0.78614074D-04
  0.13582768D-03  0.22019263D-03  0.33438364D-03  0.46476181D-03  0.55256617D-03
  0.49224515D-03  0.24445935D-03  0.39355887D-04  0.41522786D-06  0.19990690D-06
  0.66685595D-05  0.23238595D-04  0.83685942D-04  0.18447524D-03  0.25968161D-03
 -0.12387659D-04 -0.33983848D-03 -0.20094436D-03  0.69082132D-09  0.83675332D-08
  0.17449608D-07  0.50042439D-07  0.25986342D-08 -0.21580727D-06 -0.55760453D-06
  0.45430992D-06 -0.12763882D-04  0.62905762D-05  0.27048995D-06  0.12504356D-02
  0.16471161D-02  0.18170269D-02  0.15091831D-02  0.80141813D-03  0.20677007D-03
  0.11610505D+02  0.15293752D+02  0.16871402D+02  0.14013020D+02  0.74413027D+01
  0.19198950D+01  0.74663893D-01  0.98349814D-01  0.10849524D+00  0.90113792D-01
  0.47852924D-01  0.12346304D-01 -0.49490891D-07  0.47844609D-06  0.67465893D-06
  0.96494074D-06 -0.48863241D-08 -0.88494167D-06 -0.45954231D-03  0.44425594D-02
  0.62644725D-02  0.89598528D-02 -0.45371433D-04 -0.82170301D-02 -0.31028261D-05
  0.29996127D-04  0.42297670D-04  0.60496857D-04 -0.30634757D-06 -0.55481324D-04
  0.82553266D-05  0.76650372D-01  0.49746652D-03 -0.69778761D-07 -0.64372973D-03
 -0.56378114D-05 -0.62403435D-08 -0.57967416D-04 -0.34404445D-06  0.13374970D-04
 -0.58428562D-05 -0.75321142D-05 -0.18040253D-06 -0.11127109D-06 -0.98145280D-03
 -0.51376694D-05  0.21748670D-05  0.29628024D-05  0.65505395D-07  0.40333983D-07
  0.35639240D-03  0.12597818D-05 -0.10593350D-05 -0.20044680D-06 -0.11451975D-07
 -0.69394696D-08 -0.61093587D-04  0.65841173D-08  0.24338360D-05  0.95017946D-07
 -0.62022557D-08  0.28585317D-05  0.35233784D-04 -0.13550096D-07 -0.10160040D-04
 -0.35518837D-04 -0.23814990D-07  0.28763366D-09  0.14688784D-04 -0.43527235D-06
  0.30350795D-08  0.14521538D-04 -0.68522925D-05 -0.38979805D-08 -0.58587890D-04
  0.81581096D-05 -0.22015523D-07 -0.79716704D-05 -0.14859207D-04 -0.25189667D-04
 -0.38140562D-04 -0.47684104D-04 -0.41016880D-04 -0.15730856D-04  0.73958482D-08
  0.97907182D-07  0.35561670D-06  0.10549302D-05  0.12155940D-05 -0.14765200D-05
 -0.37494054D-06  0.25621668D-05  0.46169294D-05 -0.27745576D-07 -0.27134567D-07
 -0.17928956D-07 -0.29087066D-03 -0.28446515D-03 -0.18795815D-03  0.17851200D-04
  0.17458083D-04  0.11535294D-04 -0.22156706D-08 -0.92837084D-05  0.13038105D-05
 -0.51497235D-08 -0.66167870D-04  0.40148751D-05 -0.19386230D-08 -0.19576359D-04
  0.64873421D-06  0.70765141D-04 -0.69716246D-04 -0.10488944D-05 -0.61557558D-07
 -0.38913451D-07 -0.13253457D-03 -0.35450081D-04  0.35142908D-04  0.30717255D-06
  0.36885880D-07  0.22907172D-07  0.10172607D-03  0.17780384D-04 -0.18169956D-04
  0.38957179D-06 -0.22343227D-07 -0.12844879D-07 -0.73522295D-04 -0.38517758D-07
 -0.70615885D-04  0.25308756D-06  0.24148918D-07 -0.70447028D-04 -0.19014406D-03
  0.91404355D-07  0.28229468D-03  0.18938480D-03  0.22274373D-06  0.12443787D-07
  0.25076372D-04  0.96391942D-08 -0.75106061D-08  0.25010956D-04  0.60277187D-04
 -0.29820755D-07 -0.10024007D-03 -0.60306105D-04 -0.75192334D-07
MO    2     MO 0.0        OCC NO =    2.0000300  ORB. ENERGY =    0.000000
 -0.24317690D-08 -0.45333073D-08 -0.76619069D-08 -0.11517275D-07 -0.14146910D-07
 -0.11939493D-07 -0.44895611D-08  0.18998406D-11  0.14200132D-10  0.53069134D-10
  0.14805462D-09  0.19835237D-09 -0.23421717D-09 -0.52183441D-09  0.75888261D-08
  0.24773730D-08  0.10974613D-03  0.10289398D-03  0.73266640D-04 -0.11489656D-07
 -0.10772283D-07 -0.76705070D-08 -0.22421051D-07 -0.21021161D-07 -0.14968319D-07
  0.36434741D-03 -0.38577872D-07 -0.62105825D-07  0.46432611D-03 -0.49932143D-07
 -0.85624828D-07  0.93869572D-05 -0.10784389D-08 -0.17014293D-08 -0.72134389D-07
 -0.17176173D-07  0.89310563D-07  0.13237266D-03 -0.50932447D-03  0.30568081D-07
  0.70659120D-07 -0.52888106D-07 -0.17771014D-07  0.38812152D-03  0.95733593D-04
 -0.77982797D-07 -0.73787288D-09 -0.11587834D-07  0.12325707D-07  0.82412825D-04
 -0.66661366D-04 -0.71339090D-08  0.92877473D-04 -0.10426042D-07  0.66667222D-07
  0.92924078D-04 -0.36137856D-09 -0.17468461D-06 -0.37155650D-03  0.31639506D-07
 -0.25317057D-07  0.51967890D-04 -0.26953397D-04  0.27945095D-08 -0.19715243D-07
 -0.26808847D-04  0.21211548D-07  0.67007739D-07  0.10766904D-03 -0.29595077D-07
 -0.78620109D-08  0.97761244D-04 -0.58979962D-09 -0.10637279D-08 -0.15684662D-08
  0.30008775D-08  0.23138752D-07 -0.52566541D-09  0.41628025D-05  0.81622309D-10
 -0.37806521D-09  0.82976985D-04 -0.62149037D-08 -0.89378491D-08  0.75422030D-04
 -0.57321643D-08 -0.12648746D-07 -0.61088498D-08 -0.35590643D-08  0.96679141D-08
  0.29559280D-04 -0.48856139D-04  0.84391414D-08  0.13580231D-07 -0.36407144D-08
 -0.99395164D-08  0.28966757D-04  0.60241722D-04 -0.12570150D-07 -0.35017227D-04
 -0.63155011D-04 -0.93122026D-04  0.31953648D-03  0.97552161D-03 -0.10350801D-04
  0.54803142D-04 -0.29246164D-04  0.20884847D-04  0.23843319D-03 -0.89452186D-04
  0.23131314D-03  0.14835222D-03 -0.42140598D-04  0.18628628D-04  0.10935289D-04
 -0.68902622D-04  0.57967333D-04 -0.10834080D-03  0.21032069D-03 -0.14937408D-03
 -0.10935673D-04 -0.37160125D-04  0.48095798D-04 -0.16504496D-04  0.38493182D-04
  0.12620872D-04  0.35018062D-04  0.63156517D-04  0.93124248D-04 -0.31955182D-03
 -0.97554724D-03  0.10351005D-04  0.54805166D-04  0.29233492D-04 -0.20904349D-04
  0.23837808D-03  0.89397533D-04 -0.23140742D-03  0.14835793D-03  0.42107125D-04
 -0.18682626D-04 -0.10886905D-04  0.68931167D-04 -0.58044262D-04 -0.10825023D-03
  0.21033298D-03  0.14936074D-03  0.10946336D-04  0.37164872D-04 -0.48111208D-04
 -0.16496512D-04  0.38448365D-04 -0.12622398D-04 -0.41507792D-07 -0.77656650D-07
 -0.13417347D-06 -0.21751095D-06 -0.33031126D-06 -0.45910157D-06 -0.54583659D-06
 -0.48625020D-06 -0.24148213D-06 -0.38876580D-07 -0.41017088D-09 -0.19481377D-09
 -0.64986612D-08 -0.22646533D-07 -0.81553833D-07 -0.17977528D-06 -0.25306557D-06
  0.12072052D-07  0.33118024D-06  0.19582480D-06 -0.38919528D-11 -0.47141053D-10
 -0.98307696D-10 -0.28192936D-09 -0.14640199D-10  0.12158161D-08  0.31414354D-08
 -0.25594937D-08  0.11693924D-07 -0.58268759D-09 -0.40777188D-09  0.11610733D+02
  0.15294052D+02  0.16871733D+02  0.14013295D+02  0.74414488D+01  0.19199327D+01
 -0.12371501D-02 -0.16296161D-02 -0.17977217D-02 -0.14931486D-02 -0.79290335D-03
 -0.20457321D-03 -0.20693074D-02 -0.27257620D-02 -0.30069421D-02 -0.24975009D-02
 -0.13262423D-02 -0.34217744D-03 -0.45949341D-03  0.44420866D-02  0.62638058D-02
  0.89588994D-02 -0.45366605D-04 -0.82161557D-02  0.48987953D-07 -0.47358401D-06
 -0.66780289D-06 -0.95513479D-06  0.48366681D-08  0.87594869D-06  0.81829599D-07
 -0.79107592D-06 -0.11154996D-05 -0.15954595D-05  0.80791825D-08  0.14631869D-05
  0.76653824D-01 -0.81682696D-05 -0.13660782D-04 -0.64334474D-03  0.68368160D-07
  0.11436891D-06 -0.57951198D-04  0.61723186D-08  0.10375624D-07 -0.17068199D-06
 -0.41242196D-08  0.17480621D-06  0.30375269D-04 -0.98040467D-03  0.99805450D-07
  0.61876881D-07  0.11969625D-08 -0.63073843D-07 -0.10082878D-04  0.35620730D-03
 -0.36691321D-07 -0.10505108D-07 -0.44927713D-09  0.10954386D-07  0.27237289D-05
 -0.61052025D-04  0.61091637D-08  0.21518608D-05 -0.24763548D-09  0.14413222D-08
  0.22412236D-05  0.12093590D-07  0.55819391D-08 -0.86968061D-05 -0.11350684D-07
 -0.99059055D-08  0.69157134D-04  0.14729285D-04 -0.15920280D-08  0.10412708D-07
  0.14619112D-04 -0.40409626D-08 -0.30642023D-07 -0.58806967D-04  0.88170465D-08
 -0.59610165D-09 -0.13548667D-04  0.59379921D-08  0.11068428D-07  0.18763450D-07
  0.28410402D-07  0.35519259D-07  0.30552933D-07  0.11717707D-07 -0.12392158D-10
 -0.16404896D-09 -0.59585569D-09 -0.17675947D-08 -0.20367958D-08  0.24739919D-08
  0.19024512D-09 -0.41547031D-08 -0.43745536D-08 -0.29130073D-03 -0.28488575D-03
 -0.18823606D-03  0.31240091D-07  0.30552126D-07  0.20187082D-07  0.45767002D-07
  0.44759129D-07  0.29574249D-07 -0.78769789D-05 -0.62726354D-09  0.29648945D-08
 -0.67386513D-04  0.83914052D-08  0.69198803D-08 -0.19535455D-04  0.21190281D-08
  0.28701933D-08 -0.40638426D-08 -0.20639856D-07  0.24703698D-07  0.14292078D-03
 -0.13192991D-03 -0.10526966D-07  0.80382529D-08  0.10274955D-07 -0.18313208D-07
 -0.71565800D-04  0.10183673D-03  0.11859323D-08 -0.74009369D-08 -0.46797208D-08
  0.12080658D-07  0.36006234D-04 -0.74622017D-04  0.27336903D-08 -0.72312972D-04
  0.91791401D-08 -0.49161016D-07 -0.72496702D-04 -0.56832222D-07  0.82925754D-07
  0.28943562D-03  0.29294802D-07  0.64557295D-07 -0.37383874D-03  0.25690999D-04
 -0.32750504D-08  0.17234142D-07  0.25748227D-04  0.17694199D-07 -0.31079884D-07
 -0.10282122D-03 -0.78690475D-08 -0.20622540D-07  0.11856508D-03
MO    3     MO 0.0        OCC NO =    2.0000210  ORB. ENERGY =    0.000000
 -0.14453669D-01 -0.26944552D-01 -0.45539963D-01 -0.68455058D-01 -0.84084778D-01
 -0.70964586D-01 -0.26684538D-01 -0.38140389D-05 -0.28507578D-04 -0.10653933D-03
 -0.29722814D-03 -0.39820376D-03  0.47020439D-03 -0.87191895D-03 -0.19344104D-02
 -0.82066322D-04  0.20838092D-06  0.19537036D-06  0.13911533D-06 -0.27385974D-05
 -0.25676092D-05 -0.18282907D-05  0.11672431D-02  0.10943646D-02  0.77925277D-03
  0.10487329D-06 -0.26758862D-05  0.60719849D-03 -0.66725381D-07  0.29288898D-05
 -0.37920313D-03  0.82383475D-09  0.14381848D-07  0.46693764D-05 -0.10617854D-03
 -0.10494588D-03  0.21112441D-03 -0.10992952D-08  0.11345578D-06 -0.19784976D-05
 -0.24110827D-04 -0.24044133D-04  0.48154961D-04 -0.56857222D-10  0.25287013D-07
  0.30858867D-05  0.11617895D-04  0.11227695D-04 -0.22845590D-04  0.11838124D-09
 -0.12173383D-07  0.68017563D-06 -0.15749782D-07  0.36161973D-04  0.77243167D-05
  0.39405754D-07 -0.10892742D-03 -0.10905743D-04  0.78435932D-08  0.44149970D-06
 -0.12267207D-04  0.38381896D-07  0.28974732D-08  0.51536416D-04 -0.85669546D-04
  0.82046946D-07 -0.15573788D-03  0.12848310D-03 -0.90739365D-07  0.11286270D-05
  0.12852554D-03  0.55619072D-07 -0.48236490D-05 -0.86996496D-05 -0.12827628D-04
  0.75286077D-03  0.23911039D-03  0.51612823D-05  0.17697282D-07  0.96269074D-04
  0.30093807D-04  0.24659136D-07  0.19820710D-03 -0.43820330D-05  0.12751052D-07
  0.44171607D-04  0.39358044D-04 -0.74568611D-04  0.53282802D-04  0.21285809D-04
  0.46278464D-07  0.44176078D-07  0.76437291D-04 -0.94157400D-05 -0.12060824D-04
  0.21476564D-04 -0.67959380D-08  0.65073768D-08 -0.34645084D-04 -0.48325105D-05
 -0.87156316D-05 -0.12851194D-04  0.75265032D-03  0.23438985D-03  0.50160541D-05
  0.82903548D-04 -0.47684041D-04  0.27651600D-04  0.17318345D-03 -0.99835322D-04
 -0.41102316D-05  0.38169916D-04 -0.21785489D-04  0.38444126D-04  0.22696610D-04
 -0.41601581D-04  0.18904971D-04 -0.11099586D-03  0.65480951D-04 -0.38206623D-04
 -0.11382617D-04 -0.10402284D-04  0.21784901D-04  0.20279459D-05 -0.30018543D-04
  0.17106860D-04 -0.48323315D-05 -0.87153089D-05 -0.12850718D-04  0.75265400D-03
  0.23438953D-03  0.50160691D-05 -0.82906164D-04 -0.47663229D-04  0.27681891D-04
 -0.17321064D-03 -0.99791648D-04 -0.40473438D-05 -0.38161660D-04 -0.21775850D-04
  0.38457936D-04  0.22701524D-04 -0.41629630D-04  0.18928107D-04  0.11094936D-03
 -0.65494440D-04 -0.38230449D-04 -0.11372421D-04 -0.10401770D-04  0.21774192D-04
 -0.20212351D-05  0.30046217D-04  0.17099866D-04 -0.15460212D+00 -0.28924407D+00
 -0.49974960D+00 -0.81015282D+00 -0.12302948D+01 -0.17099940D+01 -0.20330519D+01
 -0.18111132D+01 -0.89943713D+00 -0.14480177D+00 -0.15277442D-02 -0.72283984D-03
 -0.24112727D-01 -0.84028025D-01 -0.30259853D+00 -0.66704079D+00 -0.93897815D+00
  0.44792318D-01  0.12288160D+01  0.72659119D+00 -0.15531623D-04 -0.18812589D-03
 -0.39231671D-03 -0.11250960D-02 -0.58424670D-04  0.48519597D-02  0.12536532D-01
 -0.10214176D-01  0.46599914D-01 -0.38434035D-03 -0.13196891D-03  0.10527799D-02
  0.13867575D-02  0.15298106D-02  0.12706274D-02  0.67473843D-03  0.17408604D-03
 -0.35811760D-01 -0.47172465D-01 -0.52038613D-01 -0.43222143D-01 -0.22952157D-01
 -0.59217765D-02  0.59413371D+01  0.78261308D+01  0.86334473D+01  0.71707540D+01
  0.38078693D+01  0.98245019D+00 -0.37355221D-07  0.36112624D-06  0.50922569D-06
  0.72832745D-06 -0.36881477D-08 -0.66794496D-06  0.12067487D-05 -0.11666070D-04
 -0.16450377D-04 -0.23528391D-04  0.11914446D-06  0.21577753D-04 -0.21079416D-03
  0.20378223D-02  0.28735422D-02  0.41099255D-02 -0.20812084D-04 -0.37691893D-02
  0.73814410D-05 -0.24999633D-03  0.41653581D-01 -0.85892189D-07  0.27304496D-05
 -0.48393495D-03 -0.17315026D-08  0.95206588D-07 -0.98418229D-05 -0.67651403D-05
 -0.74751503D-05  0.14240291D-04 -0.53882290D-09  0.71662047D-08 -0.18100791D-05
 -0.11155824D-03 -0.11127899D-03  0.22283724D-03 -0.43585645D-09  0.11892024D-06
 -0.29107904D-05 -0.14278087D-04 -0.14369119D-04  0.28647207D-04 -0.13740533D-09
  0.15301064D-07 -0.64446335D-06  0.12963618D-08 -0.69579704D-05  0.54419475D-05
 -0.97939583D-08  0.21878414D-04 -0.79421140D-05  0.59048729D-08 -0.10045028D-05
 -0.83837284D-05 -0.81292667D-08  0.82373273D-08  0.17321010D-05 -0.33738360D-04
  0.11379111D-07 -0.64725409D-05  0.50583680D-04 -0.36091093D-07  0.12762380D-05
  0.50631400D-04  0.27126002D-08 -0.87941416D-03 -0.16392295D-02 -0.27788592D-02
 -0.42075687D-02 -0.52603876D-02 -0.45248766D-02 -0.17353876D-02 -0.68419902D-06
 -0.90575140D-05 -0.32898539D-04 -0.97592895D-04 -0.11245610D-03  0.13659468D-03
 -0.95961546D-04 -0.15940923D-03  0.12410014D-04  0.66795851D-06  0.65324883D-06
  0.43162912D-06  0.41564084D-05  0.40648766D-05  0.26858358D-05  0.39019690D-02
  0.38160405D-02  0.25214193D-02  0.14973583D-06  0.19540663D-05  0.87921099D-03
  0.41208613D-08 -0.55084646D-06  0.21388139D-04  0.15447569D-08  0.13004633D-06
  0.93355204D-05 -0.36338230D-04 -0.34951783D-04  0.71290013D-04  0.13302928D-08
  0.36878682D-07  0.36742527D-07  0.21442406D-04  0.20751091D-04 -0.42193497D-04
 -0.55050199D-09 -0.22025785D-07  0.28107976D-06  0.17973264D-04  0.18259828D-04
 -0.36233092D-04  0.18871714D-10 -0.18011139D-07 -0.78718937D-06 -0.96839233D-08
 -0.41556888D-05  0.46411117D-04 -0.14515660D-07  0.77220537D-05 -0.68709067D-04
  0.43567430D-07  0.47450129D-05 -0.70524284D-04  0.35321024D-09  0.57711651D-08
  0.13597240D-05 -0.25390835D-04  0.72888807D-08 -0.23837037D-05  0.37816174D-04
 -0.24602376D-07 -0.16954684D-05  0.38356333D-04 -0.21812894D-09
MO    4     MO 0.0        OCC NO =    2.0000123  ORB. ENERGY =    0.000000
  0.26825833D-01  0.50008758D-01  0.84521613D-01  0.12705175D+00  0.15606032D+00
  0.13170940D+00  0.49526175D-01 -0.14569625D-05 -0.10889892D-04 -0.40698012D-04
 -0.11354112D-03 -0.15211379D-03  0.17961803D-03  0.26462025D-02 -0.36107260D-02
 -0.42245801D-04  0.64782182D-06  0.60737413D-06  0.43248656D-06 -0.27756759D-05
 -0.26023726D-05 -0.18530443D-05  0.36696099D-02  0.34404926D-02  0.24498357D-02
  0.22829960D-06 -0.97337456D-05  0.13052660D-02 -0.74201767D-07  0.42647863D-05
 -0.41702629D-03  0.68547441D-09  0.46484137D-07  0.37046539D-05 -0.32108474D-03
 -0.31729387D-03  0.63837861D-03 -0.13864506D-08  0.34015965D-06 -0.79027379D-05
  0.85865314D-05  0.10626808D-04 -0.19213339D-04  0.16104324D-08 -0.88606083D-08
  0.86183378D-05 -0.17557508D-04 -0.18174099D-04  0.35731607D-04 -0.14009336D-09
  0.18478603D-07  0.68932074D-06  0.10678013D-07 -0.42600150D-04  0.22583125D-04
 -0.54560714D-07  0.12618196D-03 -0.31673240D-04  0.22526677D-07  0.16184907D-05
 -0.36076135D-04 -0.44929255D-07  0.12344769D-07  0.81298507D-04 -0.16373324D-03
  0.13726195D-06 -0.24655357D-03  0.24635124D-03 -0.17429626D-06  0.26580535D-05
  0.24484847D-03  0.88127159D-07 -0.90501629D-04 -0.16322341D-03 -0.24067283D-03
  0.10169338D-02  0.69074670D-03  0.44427175D-05 -0.75297134D-09 -0.57724369D-04
  0.36852902D-04  0.31183019D-07  0.29956835D-03 -0.40257897D-04  0.27725704D-07
  0.11147983D-03  0.76797891D-04 -0.14359340D-03  0.20661887D-04  0.12293152D-03
  0.67902272D-07  0.11327998D-06  0.14633403D-03 -0.14534754D-04 -0.21420814D-04
  0.35955568D-04 -0.12943925D-07  0.10057311D-07 -0.62822186D-04 -0.90225900D-04
 -0.16272613D-03 -0.23993958D-03  0.10259150D-02  0.68108013D-03  0.41797776D-05
 -0.49819967D-04  0.29342185D-04  0.31898493D-04  0.26604535D-03 -0.15358130D-03
 -0.44598239D-04  0.96109689D-04 -0.55142883D-04  0.75372604D-04 -0.15716547D-04
 -0.10005943D-03  0.11577598D-03 -0.14501387D-03  0.12137654D-03 -0.71190466D-04
 -0.19259974D-04 -0.16466448D-04  0.35726423D-04  0.51996431D-05 -0.54460456D-04
  0.31362008D-04 -0.90226195D-04 -0.16272666D-03 -0.23994036D-03  0.10259172D-02
  0.68108638D-03  0.41795830D-05  0.49838426D-04  0.29329253D-04  0.31881437D-04
 -0.26609987D-03 -0.15351356D-03 -0.44503482D-04 -0.96097651D-04 -0.55118706D-04
  0.75407126D-04 -0.15721699D-04 -0.10009573D-03  0.11581743D-03  0.14494656D-03
 -0.12130236D-03 -0.71211690D-04 -0.19242034D-04 -0.16465359D-04  0.35707392D-04
 -0.51869114D-05  0.54508220D-04  0.31350270D-04  0.91314509D-01  0.17083970D+00
  0.29517311D+00  0.47851030D+00  0.72666380D+00  0.10099943D+01  0.12008059D+01
  0.10697196D+01  0.53124536D+00  0.85526009D-01  0.90234991D-03  0.42753318D-03
  0.14261791D-01  0.49699486D-01  0.17897590D+00  0.39453009D+00  0.55537104D+00
 -0.26493009D-01 -0.72679945D+00 -0.42975196D+00  0.62781162D-05  0.76043319D-04
  0.15858032D-03  0.45478076D-03  0.23616132D-04 -0.19612352D-02 -0.50674551D-02
  0.41287239D-02 -0.28545305D-01  0.14181924D-02 -0.18175188D-03  0.17613861D-02
  0.23201576D-02  0.25594970D-02  0.21258627D-02  0.11288921D-02  0.29126005D-03
 -0.65291141D-01 -0.86003706D-01 -0.94875550D-01 -0.78801573D-01 -0.41845822D-01
 -0.10796441D-01  0.99144069D+01  0.13059593D+02  0.14406776D+02  0.11965955D+02
  0.63542542D+01  0.16394308D+01 -0.59860038D-07  0.57868833D-06  0.81601096D-06
  0.11671115D-05 -0.59100885D-08 -0.10703514D-05  0.20362372D-05 -0.19685031D-04
 -0.27757949D-04 -0.39701210D-04  0.20104134D-06  0.36409754D-04 -0.33686073D-03
  0.32565528D-02  0.45920794D-02  0.65678883D-02 -0.33258862D-04 -0.60233730D-02
  0.12890414D-04 -0.47314000D-03  0.72555553D-01 -0.54012456D-07  0.19661093D-05
 -0.30639139D-03 -0.67118863D-09  0.96126750D-07 -0.39568501D-05  0.45500038D-03
  0.45383580D-03 -0.90883618D-03  0.20638082D-08 -0.48515968D-06  0.13499960D-04
 -0.30996371D-03 -0.30934097D-03  0.61930468D-03 -0.13762537D-08  0.33039069D-06
 -0.86137609D-05  0.44296652D-05  0.42345865D-05 -0.86642517D-05 -0.94006178D-10
 -0.48455948D-08 -0.14981976D-06  0.18165795D-07 -0.14423505D-04 -0.46953304D-04
 -0.42272759D-08  0.43666456D-04  0.71029056D-04 -0.50270110D-07 -0.39594064D-06
  0.69830854D-04 -0.16223529D-07  0.15078260D-07  0.36319981D-05 -0.62578314D-04
  0.21467139D-07 -0.13057582D-04  0.93820870D-04 -0.66701918D-07  0.21615875D-05
  0.93914070D-04  0.55393565D-08 -0.63568134D-02 -0.11849111D-01 -0.20086883D-01