 title line
GAUSSIAN            211 MOL ORBITALS    339 PRIMITIVES        6 NUCLEI
  C    1    (CENTRE  1)   0.00033070  0.00005480 -0.94053370  CHARGE =  6.0
  H    2    (CENTRE  2)   0.00003590 -1.98906904 -1.17300214  CHARGE =  1.0
  H    3    (CENTRE  3)  -1.72213010  0.99468570 -1.17398291  CHARGE =  1.0
  H    4    (CENTRE  4)   1.72295780  0.97534813 -1.17459707  CHARGE =  1.0
  Cl   5    (CENTRE  5)   0.00104880  0.00181792  3.10806659  CHARGE = 17.0
  F    6    (CENTRE  6)  -0.00035149 -0.00174044 -4.90092914  CHARGE =  9.0
CENTRE ASSIGNMENTS    1  1  1  1  1  1  1  1  1  1  1  1  1  1  1  1  1  1  1  1
CENTRE ASSIGNMENTS    1  1  1  1  1  1  1  1  1  1  1  1  1  1  1  1  1  1  1  1
CENTRE ASSIGNMENTS    1  1  1  1  1  1  1  1  1  1  1  1  1  1  1  1  1  1  1  1
CENTRE ASSIGNMENTS    1  1  1  1  1  1  1  1  1  1  1  1  2  2  2  2  2  2  2  2
CENTRE ASSIGNMENTS    2  2  2  2  2  2  2  2  2  2  2  2  2  2  2  2  2  2  2  3
CENTRE ASSIGNMENTS    3  3  3  3  3  3  3  3  3  3  3  3  3  3  3  3  3  3  3  3
CENTRE ASSIGNMENTS    3  3  3  3  3  3  4  4  4  4  4  4  4  4  4  4  4  4  4  4
CENTRE ASSIGNMENTS    4  4  4  4  4  4  4  4  4  4  4  4  4  5  5  5  5  5  5  5
CENTRE ASSIGNMENTS    5  5  5  5  5  5  5  5  5  5  5  5  5  5  5  5  5  5  5  5
CENTRE ASSIGNMENTS    5  5  5  5  5  5  5  5  5  5  5  5  5  5  5  5  5  5  5  5
CENTRE ASSIGNMENTS    5  5  5  5  5  5  5  5  5  5  5  5  5  5  5  5  5  5  5  5
CENTRE ASSIGNMENTS    5  5  5  5  5  5  5  5  5  5  5  5  5  5  5  5  5  5  5  5
CENTRE ASSIGNMENTS    5  5  5  5  5  5  5  5  5  5  5  5  5  5  5  5  5  5  5  5
CENTRE ASSIGNMENTS    5  5  5  5  5  5  5  6  6  6  6  6  6  6  6  6  6  6  6  6
CENTRE ASSIGNMENTS    6  6  6  6  6  6  6  6  6  6  6  6  6  6  6  6  6  6  6  6
CENTRE ASSIGNMENTS    6  6  6  6  6  6  6  6  6  6  6  6  6  6  6  6  6  6  6  6
CENTRE ASSIGNMENTS    6  6  6  6  6  6  6  6  6  6  6  6  6  6  6  6  6  6  6
TYPE ASSIGNMENTS      1  1  1  1  1  1  1  1  1  1  1  1  1  1  1  1  2  2  2  3
TYPE ASSIGNMENTS      3  3  4  4  4  2  3  4  2  3  4  2  3  4  5  6  7  8  9 10
TYPE ASSIGNMENTS      5  6  7  8  9 10  5  6  7  8  9 10 11 12 13 17 14 15 18 19
TYPE ASSIGNMENTS     16 20 11 12 13 17 14 15 18 19 16 20  1  1  1  1  1  1  2  3
TYPE ASSIGNMENTS      4  2  3  4  2  3  4  5  6  7  8  9 10  5  6  7  8  9 10  1
TYPE ASSIGNMENTS      1  1  1  1  1  2  3  4  2  3  4  2  3  4  5  6  7  8  9 10
TYPE ASSIGNMENTS      5  6  7  8  9 10  1  1  1  1  1  1  2  3  4  2  3  4  2  3
TYPE ASSIGNMENTS      4  5  6  7  8  9 10  5  6  7  8  9 10  1  1  1  1  1  1  1
TYPE ASSIGNMENTS      1  1  1  1  1  1  1  1  1  1  1  1  1  1  1  1  1  1  1  1
TYPE ASSIGNMENTS      1  1  1  1  2  2  2  2  2  2  3  3  3  3  3  3  4  4  4  4
TYPE ASSIGNMENTS      4  4  2  2  2  2  2  2  3  3  3  3  3  3  4  4  4  4  4  4
TYPE ASSIGNMENTS      2  3  4  2  3  4  2  3  4  5  6  7  8  9 10  5  6  7  8  9
TYPE ASSIGNMENTS     10  5  6  7  8  9 10 11 12 13 17 14 15 18 19 16 20 11 12 13
TYPE ASSIGNMENTS     17 14 15 18 19 16 20  1  1  1  1  1  1  1  1  1  1  1  1  1
TYPE ASSIGNMENTS      1  1  1  2  2  2  3  3  3  4  4  4  2  3  4  2  3  4  2  3
TYPE ASSIGNMENTS      4  5  6  7  8  9 10  5  6  7  8  9 10  5  6  7  8  9 10 11
TYPE ASSIGNMENTS     12 13 17 14 15 18 19 16 20 11 12 13 17 14 15 18 19 16 20
EXPONENTS  0.8236000D+04 0.1235000D+04 0.2808000D+03 0.7927000D+02 0.2559000D+02
EXPONENTS  0.8997000D+01 0.3319000D+01 0.2808000D+03 0.7927000D+02 0.2559000D+02
EXPONENTS  0.8997000D+01 0.3319000D+01 0.3643000D+00 0.9059000D+00 0.1285000D+00
EXPONENTS  0.4402000D-01 0.1871000D+02 0.4133000D+01 0.1200000D+01 0.1871000D+02
EXPONENTS  0.4133000D+01 0.1200000D+01 0.1871000D+02 0.4133000D+01 0.1200000D+01
EXPONENTS  0.3827000D+00 0.3827000D+00 0.3827000D+00 0.1209000D+00 0.1209000D+00
EXPONENTS  0.1209000D+00 0.3569000D-01 0.3569000D-01 0.3569000D-01 0.1097000D+01
EXPONENTS  0.1097000D+01 0.1097000D+01 0.1097000D+01 0.1097000D+01 0.1097000D+01
EXPONENTS  0.3180000D+00 0.3180000D+00 0.3180000D+00 0.3180000D+00 0.3180000D+00
EXPONENTS  0.3180000D+00 0.1000000D+00 0.1000000D+00 0.1000000D+00 0.1000000D+00
EXPONENTS  0.1000000D+00 0.1000000D+00 0.7610000D+00 0.7610000D+00 0.7610000D+00
EXPONENTS  0.7610000D+00 0.7610000D+00 0.7610000D+00 0.7610000D+00 0.7610000D+00
EXPONENTS  0.7610000D+00 0.7610000D+00 0.2680000D+00 0.2680000D+00 0.2680000D+00
EXPONENTS  0.2680000D+00 0.2680000D+00 0.2680000D+00 0.2680000D+00 0.2680000D+00
EXPONENTS  0.2680000D+00 0.2680000D+00 0.3387000D+02 0.5095000D+01 0.1159000D+01
EXPONENTS  0.3258000D+00 0.1027000D+00 0.2526000D-01 0.1407000D+01 0.1407000D+01
EXPONENTS  0.1407000D+01 0.3880000D+00 0.3880000D+00 0.3880000D+00 0.1020000D+00
EXPONENTS  0.1020000D+00 0.1020000D+00 0.1057000D+01 0.1057000D+01 0.1057000D+01
EXPONENTS  0.1057000D+01 0.1057000D+01 0.1057000D+01 0.2470000D+00 0.2470000D+00
EXPONENTS  0.2470000D+00 0.2470000D+00 0.2470000D+00 0.2470000D+00 0.3387000D+02
EXPONENTS  0.5095000D+01 0.1159000D+01 0.3258000D+00 0.1027000D+00 0.2526000D-01
EXPONENTS  0.1407000D+01 0.1407000D+01 0.1407000D+01 0.3880000D+00 0.3880000D+00
EXPONENTS  0.3880000D+00 0.1020000D+00 0.1020000D+00 0.1020000D+00 0.1057000D+01
EXPONENTS  0.1057000D+01 0.1057000D+01 0.1057000D+01 0.1057000D+01 0.1057000D+01
EXPONENTS  0.2470000D+00 0.2470000D+00 0.2470000D+00 0.2470000D+00 0.2470000D+00
EXPONENTS  0.2470000D+00 0.3387000D+02 0.5095000D+01 0.1159000D+01 0.3258000D+00
EXPONENTS  0.1027000D+00 0.2526000D-01 0.1407000D+01 0.1407000D+01 0.1407000D+01
EXPONENTS  0.3880000D+00 0.3880000D+00 0.3880000D+00 0.1020000D+00 0.1020000D+00
EXPONENTS  0.1020000D+00 0.1057000D+01 0.1057000D+01 0.1057000D+01 0.1057000D+01
EXPONENTS  0.1057000D+01 0.1057000D+01 0.2470000D+00 0.2470000D+00 0.2470000D+00
EXPONENTS  0.2470000D+00 0.2470000D+00 0.2470000D+00 0.4561000D+06 0.6833000D+05
EXPONENTS  0.1555000D+05 0.4405000D+04 0.1439000D+04 0.5204000D+03 0.2031000D+03
EXPONENTS  0.8396000D+02 0.3620000D+02 0.1583000D+02 0.6334000D+01 0.4405000D+04
EXPONENTS  0.1439000D+04 0.5204000D+03 0.2031000D+03 0.8396000D+02 0.3620000D+02
EXPONENTS  0.1583000D+02 0.6334000D+01 0.2694000D+01 0.1439000D+04 0.2031000D+03
EXPONENTS  0.8396000D+02 0.3620000D+02 0.1583000D+02 0.6334000D+01 0.2694000D+01
EXPONENTS  0.4313000D+00 0.9768000D+00 0.1625000D+00 0.5910000D-01 0.6633000D+03
EXPONENTS  0.1568000D+03 0.4998000D+02 0.1842000D+02 0.7240000D+01 0.2922000D+01
EXPONENTS  0.6633000D+03 0.1568000D+03 0.4998000D+02 0.1842000D+02 0.7240000D+01
EXPONENTS  0.2922000D+01 0.6633000D+03 0.1568000D+03 0.4998000D+02 0.1842000D+02
EXPONENTS  0.7240000D+01 0.2922000D+01 0.1568000D+03 0.4998000D+02 0.1842000D+02
EXPONENTS  0.7240000D+01 0.2922000D+01 0.3818000D+00 0.1568000D+03 0.4998000D+02
EXPONENTS  0.1842000D+02 0.7240000D+01 0.2922000D+01 0.3818000D+00 0.1568000D+03
EXPONENTS  0.4998000D+02 0.1842000D+02 0.7240000D+01 0.2922000D+01 0.3818000D+00
EXPONENTS  0.1022000D+01 0.1022000D+01 0.1022000D+01 0.1301000D+00 0.1301000D+00
EXPONENTS  0.1301000D+00 0.4190000D-01 0.4190000D-01 0.4190000D-01 0.1046000D+01
EXPONENTS  0.1046000D+01 0.1046000D+01 0.1046000D+01 0.1046000D+01 0.1046000D+01
EXPONENTS  0.3440000D+00 0.3440000D+00 0.3440000D+00 0.3440000D+00 0.3440000D+00
EXPONENTS  0.3440000D+00 0.1350000D+00 0.1350000D+00 0.1350000D+00 0.1350000D+00
EXPONENTS  0.1350000D+00 0.1350000D+00 0.7060000D+00 0.7060000D+00 0.7060000D+00
EXPONENTS  0.7060000D+00 0.7060000D+00 0.7060000D+00 0.7060000D+00 0.7060000D+00
EXPONENTS  0.7060000D+00 0.7060000D+00 0.3120000D+00 0.3120000D+00 0.3120000D+00
EXPONENTS  0.3120000D+00 0.3120000D+00 0.3120000D+00 0.3120000D+00 0.3120000D+00
EXPONENTS  0.3120000D+00 0.3120000D+00 0.1950000D+05 0.2923000D+04 0.6645000D+03
EXPONENTS  0.1875000D+03 0.6062000D+02 0.2142000D+02 0.7950000D+01 0.6645000D+03
EXPONENTS  0.1875000D+03 0.6062000D+02 0.2142000D+02 0.7950000D+01 0.8815000D+00
EXPONENTS  0.2257000D+01 0.3041000D+00 0.9158000D-01 0.4388000D+02 0.9926000D+01
EXPONENTS  0.2930000D+01 0.4388000D+02 0.9926000D+01 0.2930000D+01 0.4388000D+02
EXPONENTS  0.9926000D+01 0.2930000D+01 0.9132000D+00 0.9132000D+00 0.9132000D+00
EXPONENTS  0.2672000D+00 0.2672000D+00 0.2672000D+00 0.7361000D-01 0.7361000D-01
EXPONENTS  0.7361000D-01 0.3107000D+01 0.3107000D+01 0.3107000D+01 0.3107000D+01
EXPONENTS  0.3107000D+01 0.3107000D+01 0.8550000D+00 0.8550000D+00 0.8550000D+00
EXPONENTS  0.8550000D+00 0.8550000D+00 0.8550000D+00 0.2920000D+00 0.2920000D+00
EXPONENTS  0.2920000D+00 0.2920000D+00 0.2920000D+00 0.2920000D+00 0.1917000D+01
EXPONENTS  0.1917000D+01 0.1917000D+01 0.1917000D+01 0.1917000D+01 0.1917000D+01
EXPONENTS  0.1917000D+01 0.1917000D+01 0.1917000D+01 0.1917000D+01 0.7240000D+00
EXPONENTS  0.7240000D+00 0.7240000D+00 0.7240000D+00 0.7240000D+00 0.7240000D+00
EXPONENTS  0.7240000D+00 0.7240000D+00 0.7240000D+00 0.7240000D+00
MO    1     MO 0.0        OCC NO =    2.0000300  ORB. ENERGY =    0.000000
  0.87815327D-05  0.16370546D-04  0.27668453D-04  0.41590846D-04  0.51086904D-04
  0.43115545D-04  0.16212571D-04 -0.13038904D-07 -0.97457728D-07 -0.36422178D-06
 -0.10161221D-05 -0.13613234D-05  0.16074691D-05  0.36096689D-05 -0.15169137D-04
 -0.51410981D-06  0.30925861D-05  0.28994960D-05  0.20646139D-05  0.11083277D-03
  0.10391276D-03  0.73992078D-04 -0.42473565D-06 -0.39821667D-06 -0.28355399D-06
  0.10289336D-04  0.36134048D-03  0.10796730D-05  0.11993500D-04  0.46233225D-03
  0.34391881D-06  0.30359955D-06  0.94588021D-05  0.23172012D-08  0.65384656D-04
 -0.64223274D-04 -0.11613822D-05  0.27856256D-05 -0.12370691D-04 -0.50867095D-03
  0.19289905D-03 -0.19564867D-03  0.27496238D-05  0.61021999D-05  0.34279886D-05
  0.98672071D-04  0.41387944D-04 -0.40661229D-04 -0.72671505D-06  0.10714649D-05
 -0.15341554D-05 -0.65909536D-04  0.31443801D-05  0.92387479D-04 -0.16404927D-06
 -0.59759423D-06  0.92561807D-04  0.26309463D-04 -0.88355461D-05 -0.36972425D-03
 -0.25817315D-04  0.34907982D-05 -0.12030707D-06 -0.25505739D-04 -0.12551677D-06
 -0.20284283D-05 -0.30221652D-04  0.50993485D-04  0.23893495D-05  0.10673887D-03
 -0.50616935D-04  0.16581375D-05 -0.39931754D-04 -0.72018563D-04 -0.10619133D-03
  0.37595941D-03  0.11255957D-02 -0.11889519D-04  0.26459254D-06  0.71670101D-04
  0.23809015D-04  0.30300162D-05  0.28935007D-03  0.27281718D-03  0.13452831D-05
  0.17299145D-03  0.22145943D-04 -0.11028379D-03  0.42262190D-04  0.68021597D-04
  0.13235625D-05 -0.11728053D-05  0.29838468D-03 -0.43967911D-04 -0.12216053D-04
  0.56183964D-04  0.69750555D-06  0.11979011D-05  0.31296499D-04  0.19333013D-04
  0.34867886D-04  0.51412677D-04 -0.16696866D-03 -0.53869354D-03  0.58246530D-05
 -0.27156834D-04  0.20859293D-04 -0.11067780D-04 -0.83668409D-04  0.12858508D-03
 -0.12991380D-03 -0.38184869D-04  0.97500833D-04 -0.10910466D-04  0.82122224D-05
  0.24219129D-04 -0.32431352D-04  0.75252574D-04 -0.14408240D-03  0.35339057D-04
  0.20114742D-04  0.57265473D-05 -0.25841289D-04  0.25155363D-04  0.13736304D-04
  0.53803769D-04  0.20628302D-04  0.37203992D-04  0.54857265D-04 -0.18270694D-03
 -0.58541133D-03  0.61246561D-05  0.30327700D-04  0.21314835D-04 -0.12644163D-04
  0.91885699D-04  0.13688020D-03 -0.14268027D-03  0.45061179D-04  0.99903646D-04
 -0.12049162D-04  0.94026191D-05  0.26293032D-04 -0.35695651D-04 -0.80032579D-04
  0.15532437D-03  0.41338448D-04  0.20627750D-04  0.72925858D-05 -0.27920335D-04
 -0.26232794D-04 -0.11955135D-04  0.54076275D-04 -0.46512128D-05 -0.87019229D-05
 -0.15034993D-04 -0.24373490D-04 -0.37013483D-04 -0.51445259D-04 -0.61164471D-04
 -0.54487436D-04 -0.27059613D-04 -0.43563687D-05 -0.45962263D-07 -0.20798292D-07
 -0.69379619D-06 -0.24177408D-05 -0.87066762D-05 -0.19192784D-04 -0.27017246D-04
  0.12888107D-05  0.35356758D-04  0.20906229D-04 -0.22912476D-08 -0.27752604D-07
 -0.57875130D-07 -0.16597580D-06 -0.86188920D-08  0.71576813D-06  0.18494074D-05
 -0.15068101D-05  0.15731648D-05  0.35240329D-05  0.70697828D-06  0.29599567D+00
  0.38989553D+00  0.43011581D+00  0.35724485D+00  0.18970693D+00  0.48945380D-01
  0.11606976D+02  0.15289103D+02  0.16866274D+02  0.14008761D+02  0.74390407D+01
  0.19193114D+01 -0.47686275D-02 -0.62813979D-02 -0.69293652D-02 -0.57553803D-02
 -0.30562667D-02 -0.78853277D-03 -0.11692538D-04  0.11303593D-03  0.15939246D-03
  0.22797339D-03 -0.11544251D-05 -0.20907310D-03 -0.45936972D-03  0.44408909D-02
  0.62621197D-02  0.89564877D-02 -0.45354393D-04 -0.82139440D-02  0.14178637D-06
 -0.13706994D-05 -0.19328293D-05 -0.27644572D-05  0.13998822D-07  0.25352679D-05
  0.19535174D-02  0.76625670D-01 -0.30774583D-04 -0.16635134D-04 -0.64380365D-03
 -0.63629095D-06 -0.14965358D-05 -0.57964979D-04 -0.21106873D-07  0.12407448D-04
 -0.13124839D-04  0.71739102D-06  0.71046770D-06 -0.24592410D-04 -0.98064874D-03
 -0.43572427D-05  0.46031163D-05 -0.24587359D-06 -0.15067171D-06  0.87851719D-05
  0.35583056D-03  0.12683971D-05 -0.13100490D-05  0.41651892D-07  0.49986636D-07
 -0.14232312D-05 -0.60855733D-04 -0.25806541D-07  0.20399834D-05 -0.40834448D-07
  0.57308523D-07  0.27308373D-05  0.35080747D-04  0.20111101D-07 -0.88507875D-05
 -0.34958243D-04  0.11870792D-05  0.38744558D-06  0.14762446D-04  0.13999845D-06
  0.38359298D-06  0.14536368D-04 -0.72988858D-05 -0.15459297D-05 -0.58823706D-04
  0.68788904D-05 -0.28747369D-06 -0.12372509D-05 -0.23062378D-05 -0.39095869D-05
 -0.59196432D-05 -0.74008579D-05 -0.63660649D-05 -0.24415229D-05  0.47807356D-08
  0.63287987D-07  0.22987349D-06  0.68191536D-06  0.78576972D-06 -0.95443437D-06
  0.26887580D-07  0.23555989D-05  0.13261153D-05 -0.63748224D-05 -0.62344371D-05
 -0.41193562D-05 -0.29022474D-03 -0.28383346D-03 -0.18754077D-03  0.21757329D-05
  0.21278192D-05  0.14059401D-05 -0.59406517D-08 -0.83687197D-05  0.96885930D-06
 -0.14696988D-05 -0.66546332D-04  0.69189995D-06 -0.50892807D-06 -0.19604032D-04
  0.14159949D-06  0.71138425D-04 -0.70692497D-04 -0.44592807D-06  0.23527414D-05
 -0.43474649D-05 -0.13340516D-03 -0.35762484D-04  0.35406725D-04  0.35575938D-06
 -0.11898657D-05  0.29795595D-05  0.10222369D-03  0.18185705D-04 -0.17910800D-04
 -0.27490510D-06  0.64757439D-06 -0.18270410D-05 -0.73950199D-04 -0.16040647D-05
 -0.71362255D-04  0.11621817D-05 -0.14661382D-05 -0.69922376D-04 -0.19091675D-03
  0.62783324D-05  0.28400914D-03  0.18743020D-03 -0.73976097D-05  0.55700884D-06
  0.25311350D-04 -0.41647315D-06  0.51683579D-06  0.24892527D-04  0.60705803D-04
 -0.21878623D-05 -0.10082658D-03 -0.59456384D-04  0.23697822D-05
MO    2     MO 0.0        OCC NO =    2.0000300  ORB. ENERGY =    0.000000
 -0.13756398D-04 -0.25644697D-04 -0.43343031D-04 -0.65152660D-04 -0.80028373D-04
 -0.67541123D-04 -0.25397226D-04 -0.32332044D-08 -0.24166200D-07 -0.90314607D-07
 -0.25196369D-06 -0.33756188D-06  0.39859764D-06 -0.17198535D-05  0.22964081D-04
  0.59512330D-06  0.11244509D-03  0.10542441D-03  0.75068464D-04 -0.26308737D-05
 -0.24666113D-05 -0.17563742D-05  0.24743267D-06  0.23198386D-06  0.16518633D-06
  0.37119952D-03 -0.83108074D-05  0.17296990D-05  0.46785266D-03 -0.11716833D-04
 -0.14407356D-05  0.91887718D-05 -0.17193724D-06 -0.16158010D-07 -0.11179543D-05
  0.43389347D-06  0.68406088D-06  0.13010840D-03 -0.50869567D-03  0.13547258D-04
 -0.24279804D-05  0.45423867D-05 -0.21144063D-05  0.39193026D-03  0.98378173D-04
 -0.16049916D-05 -0.10816239D-05  0.63513366D-06  0.44649022D-06  0.82732245D-04
 -0.66584648D-04  0.18413204D-05  0.94237531D-04 -0.24865536D-05 -0.27469607D-06
  0.90267900D-04 -0.26408016D-05  0.13141467D-05 -0.37298049D-03  0.10100463D-04
 -0.49005853D-06  0.48540295D-04 -0.26410787D-04 -0.14258686D-06 -0.12027383D-06
 -0.28661155D-04  0.35041846D-05 -0.69922388D-06  0.10789352D-03 -0.30764240D-05
  0.10600454D-05  0.10131291D-03  0.89196356D-06  0.16086930D-05  0.23720169D-05
 -0.17034137D-04 -0.27761897D-04  0.34212121D-06  0.40179425D-05 -0.24890648D-05
 -0.81205632D-06  0.87516428D-04 -0.78920631D-05 -0.62796612D-05  0.76544323D-04
 -0.46197494D-05 -0.23123034D-06  0.28938525D-05 -0.97003257D-06 -0.19238199D-05
  0.33338606D-04 -0.46641786D-04 -0.66248435D-05  0.15269950D-05  0.55447851D-06
 -0.20814735D-05  0.29560667D-04  0.61828211D-04 -0.70994031D-06 -0.35315179D-04
 -0.63692379D-04 -0.93914376D-04  0.31933430D-03  0.99358382D-03 -0.10903928D-04
  0.56077621D-04 -0.29924088D-04  0.21037241D-04  0.24027986D-03 -0.94803776D-04
  0.23726500D-03  0.15010843D-03 -0.44662919D-04  0.19542519D-04  0.10259918D-04
 -0.69099039D-04  0.58839121D-04 -0.11141484D-03  0.21487643D-03 -0.14968296D-03
 -0.11160084D-04 -0.37151560D-04  0.48311643D-04 -0.17237320D-04  0.38568213D-04
  0.11814326D-04  0.33908737D-04  0.61155804D-04  0.90174198D-04 -0.33052883D-03
 -0.97669543D-03  0.10462444D-04  0.56332723D-04  0.29989969D-04 -0.22102415D-04
  0.23941684D-03  0.85337621D-04 -0.23495442D-03  0.15008885D-03  0.38454778D-04
 -0.18929277D-04 -0.10679183D-04  0.69786060D-04 -0.59106877D-04 -0.10366514D-03
  0.21131483D-03  0.14713802D-03  0.10655490D-04  0.37882166D-04 -0.48537656D-04
 -0.15598874D-04  0.39402130D-04 -0.15242005D-04  0.36855992D-04  0.68953629D-04
  0.11913658D-03  0.19313439D-03  0.29329310D-03  0.40764982D-03  0.48466440D-03
  0.43175588D-03  0.21441910D-03  0.34519661D-04  0.36420282D-06  0.17250438D-06
  0.57544572D-05  0.20053131D-04  0.72214572D-04  0.15918804D-03  0.22408538D-03
 -0.10689603D-04 -0.29325463D-03 -0.17339963D-03  0.44070896D-08  0.53380617D-07
  0.11131965D-06  0.31924538D-06  0.16577968D-07 -0.13767409D-05 -0.35572340D-05
  0.28982669D-05 -0.10916429D-04 -0.77923825D-06 -0.44206207D-06  0.11606960D+02
  0.15289082D+02  0.16866251D+02  0.14008742D+02  0.74390307D+01  0.19193088D+01
 -0.29599241D+00 -0.38989124D+00 -0.43011107D+00 -0.35724092D+00 -0.18970484D+00
 -0.48944841D-01  0.58533012D-03  0.77101669D-03  0.85055210D-03  0.70645012D-03
  0.37514462D-03  0.96789272D-04 -0.45941615D-03  0.44413398D-02  0.62627527D-02
  0.89573931D-02 -0.45358978D-04 -0.82147743D-02  0.11737683D-04 -0.11347237D-03
 -0.16000789D-03 -0.22885361D-03  0.11588825D-05  0.20988034D-03 -0.14350268D-07
  0.13872916D-06  0.19562260D-06  0.27979206D-06 -0.14168276D-08 -0.25659571D-06
  0.76629753D-01 -0.19547101D-02  0.39681827D-05 -0.64280223D-03  0.16178797D-04
  0.31579703D-06 -0.57881314D-04  0.14577805D-05  0.28208278D-07  0.15692729D-06
  0.28585367D-06 -0.44278096D-06  0.24017264D-04 -0.98158073D-03  0.25448879D-04
 -0.28180860D-07 -0.17310290D-06  0.20128376D-06 -0.84530583D-05  0.35708134D-03
 -0.93943286D-05 -0.14273289D-07  0.19540981D-07 -0.52676922D-08  0.24149990D-05
 -0.61275729D-04  0.16899815D-05  0.24601773D-05 -0.75426127D-07 -0.29020458D-08
  0.25865303D-05 -0.27014123D-06 -0.57588728D-06 -0.99670620D-05  0.49641961D-06
  0.58459342D-06  0.69554551D-04  0.14685531D-04 -0.38062863D-06 -0.75696654D-07
  0.14685165D-04 -0.31066560D-06  0.20713010D-06 -0.58741759D-04  0.14525515D-05
  0.19959862D-07 -0.14160546D-04 -0.62233526D-06 -0.11600340D-05 -0.19665161D-05
 -0.29775713D-05 -0.37226199D-05 -0.32021207D-05 -0.12280822D-05 -0.38504058D-08
 -0.50972163D-07 -0.18514017D-06 -0.54921482D-06 -0.63285915D-06  0.76870170D-06
 -0.18463180D-06 -0.16986661D-05 -0.69637651D-06 -0.28972746D-03 -0.28334712D-03
 -0.18721942D-03  0.84136738D-05  0.82283892D-05  0.54368447D-05  0.13436126D-05
  0.13140238D-05  0.86823107D-06 -0.87982586D-05  0.42683409D-06  0.19644626D-06
 -0.66599776D-04  0.19283564D-05 -0.69057750D-06 -0.19481130D-04  0.48822575D-06
 -0.33578701D-07 -0.13474722D-05  0.10715246D-05  0.27594761D-06  0.14160382D-03
 -0.13072890D-03  0.23918759D-05  0.69801713D-06 -0.50533368D-06 -0.19268345D-06
 -0.71054270D-04  0.10102801D-03 -0.22067565D-05 -0.29574134D-06  0.26753758D-06
  0.28203765D-07  0.35964737D-04 -0.73878584D-04  0.19451999D-05 -0.71834601D-04
  0.22922941D-05 -0.51110522D-06 -0.70846145D-04  0.14018965D-05  0.34024317D-05
  0.28634995D-03 -0.82787788D-05 -0.18691161D-05 -0.37591065D-03  0.25510883D-04
 -0.81428205D-06  0.17628364D-06  0.25213926D-04 -0.53878565D-06 -0.10905750D-05
 -0.10174658D-03  0.29816318D-05  0.56172408D-06  0.11933839D-03
MO    3     MO 0.0        OCC NO =    2.0000210  ORB. ENERGY =    0.000000
 -0.14446975D-01 -0.26932072D-01 -0.45518872D-01 -0.68423354D-01 -0.84045835D-01
 -0.70931720D-01 -0.26672179D-01 -0.38098267D-05 -0.28476094D-04 -0.10642167D-03
 -0.29689988D-03 -0.39776398D-03  0.46968509D-03 -0.87251415D-03 -0.19387434D-02
 -0.82423066D-04  0.20142646D-05  0.18885011D-05  0.13447253D-05  0.18597864D-05
  0.17436679D-05  0.12415954D-05  0.11681650D-02  0.10952289D-02  0.77986824D-03
 -0.67032161D-05 -0.19118433D-05  0.60872358D-03 -0.38960370D-05  0.16429007D-05
 -0.37982418D-03  0.25303054D-07 -0.57585914D-07  0.46637266D-05 -0.10678092D-03
 -0.10521940D-03  0.21200032D-03 -0.18805274D-05  0.12021080D-06  0.83282352D-06
 -0.24706139D-04 -0.22759225D-04  0.47465364D-04 -0.23965324D-05  0.18674367D-05
 -0.67663968D-07  0.11602403D-04  0.11188469D-04 -0.22790872D-04 -0.47669173D-06
 -0.38314897D-06  0.29852748D-06 -0.46203904D-06  0.36308509D-04  0.78322569D-05
  0.79889986D-06 -0.10879345D-03 -0.11315245D-04  0.58721727D-06 -0.13207205D-06
 -0.12181526D-04  0.29660660D-06 -0.35206356D-06  0.51734443D-04 -0.85781780D-04
  0.14271980D-05 -0.15508355D-03  0.12886216D-03 -0.37100731D-06 -0.11977781D-06
  0.12848318D-03  0.51334156D-06 -0.49847744D-05 -0.89902459D-05 -0.13256112D-04
  0.75121788D-03  0.23988111D-03  0.49501181D-05  0.92724114D-06  0.95909115D-04
  0.28092478D-04 -0.26718047D-05  0.19775422D-03 -0.43369602D-05 -0.72879404D-06
  0.44435299D-04  0.39263629D-04 -0.73728093D-04  0.53781905D-04  0.19946189D-04
 -0.67476838D-06 -0.86841397D-06  0.75827291D-04 -0.95494771D-05 -0.12238882D-04
  0.21788359D-04 -0.55845522D-06  0.14863488D-06 -0.34667410D-04 -0.48010563D-05
 -0.86589028D-05 -0.12767547D-04  0.74772851D-03  0.22774342D-03  0.51259876D-05
  0.82484739D-04 -0.47828530D-04  0.28374401D-04  0.17107950D-03 -0.97265161D-04
 -0.39630802D-05  0.37088504D-04 -0.21131921D-04  0.38107111D-04  0.22039294D-04
 -0.42131056D-04  0.20091762D-04 -0.10975472D-03  0.66220830D-04 -0.37524812D-04
 -0.11487137D-04 -0.10097308D-04  0.21584446D-04  0.23569430D-05 -0.29741578D-04
  0.17347736D-04 -0.43059183D-05 -0.77659010D-05 -0.11450817D-04  0.76058158D-03
  0.24402233D-03  0.51946858D-05 -0.84476078D-04 -0.49075553D-04  0.30035333D-04
 -0.17616701D-03 -0.95044558D-04 -0.54562396D-05 -0.39822773D-04 -0.21413350D-04
  0.39312778D-04  0.23335328D-04 -0.43746658D-04  0.20411330D-04  0.10899075D-03
 -0.67358020D-04 -0.36402943D-04 -0.11071985D-04 -0.10487682D-04  0.21559666D-04
 -0.19914985D-05  0.30441673D-04  0.17233776D-04 -0.15457512D+00 -0.28919356D+00
 -0.49966232D+00 -0.81001133D+00 -0.12300799D+01 -0.17096954D+01 -0.20326968D+01
 -0.18107969D+01 -0.89928005D+00 -0.14477648D+00 -0.15274774D-02 -0.72271388D-03
 -0.24108525D-01 -0.84013383D-01 -0.30254580D+00 -0.66692456D+00 -0.93881453D+00
  0.44784513D-01  0.12286018D+01  0.72646458D+00 -0.15530183D-04 -0.18810844D-03
 -0.39228032D-03 -0.11249917D-02 -0.58419251D-04  0.48515097D-02  0.12535369D-01
 -0.10213229D-01  0.46591126D-01 -0.38384044D-03 -0.13187943D-03  0.17642125D-02
  0.23238805D-02  0.25636040D-02  0.21292738D-02  0.11307035D-02  0.29172741D-03
  0.21565607D-02  0.28406949D-02  0.31337312D-02  0.26028091D-02  0.13821639D-02
  0.35660550D-03  0.59443745D+01  0.78301318D+01  0.86378611D+01  0.71744199D+01
  0.38098161D+01  0.98295246D+00 -0.63066063D-07  0.60968212D-06  0.85971543D-06
  0.12296205D-05 -0.62266251D-08 -0.11276780D-05 -0.89486101D-07  0.86509405D-06
  0.12198729D-05  0.17447410D-05 -0.88351226D-08 -0.16000920D-05 -0.21093845D-03
  0.20392172D-02  0.28755092D-02  0.41127388D-02 -0.20826330D-04 -0.37717694D-02
  0.11915202D-04  0.15540385D-04  0.41675132D-01  0.46613726D-07 -0.35907253D-06
 -0.48431332D-03 -0.25922948D-07  0.25941670D-07 -0.98485817D-05 -0.67327992D-05
 -0.69755549D-05  0.13708354D-04  0.13985580D-06  0.53016387D-07 -0.66090371D-06
 -0.11167307D-03 -0.11159797D-03  0.22327103D-03 -0.27609771D-07 -0.73269700D-07
  0.68663044D-06 -0.14371239D-04 -0.14319560D-04  0.28690799D-04  0.67808854D-08
 -0.56923459D-07  0.49211662D-07  0.85371267D-07 -0.71950073D-05  0.54288667D-05
 -0.16458413D-06  0.21575357D-04 -0.84637183D-05 -0.91529666D-07  0.96648555D-08
 -0.78228818D-05  0.93832355D-07 -0.29695331D-07  0.20890706D-05 -0.33820753D-04
  0.41771551D-07 -0.61009925D-05  0.50867999D-04  0.47314442D-07 -0.16621919D-06
  0.50594261D-04  0.27821173D-08 -0.87985151D-03 -0.16400447D-02 -0.27802412D-02
 -0.42096612D-02 -0.52630036D-02 -0.45271269D-02 -0.17362506D-02 -0.68592649D-06
 -0.90803823D-05 -0.32981601D-04 -0.97839297D-04 -0.11274003D-03  0.13693956D-03
 -0.96043841D-04 -0.15997716D-03  0.12303995D-04  0.28891029D-06  0.28254795D-06
  0.18669138D-06  0.11936839D-05  0.11673968D-05  0.77134843D-06  0.39033137D-02
  0.38173555D-02  0.25222882D-02  0.29133825D-06 -0.16974095D-06  0.87950243D-03
 -0.10596028D-06  0.13238006D-06  0.21180444D-04 -0.44477703D-07  0.23283779D-07
  0.93346581D-05 -0.35704708D-04 -0.35587447D-04  0.71292155D-04  0.44980722D-06
 -0.35147378D-06  0.96972900D-06  0.21155995D-04  0.21093096D-04 -0.42249091D-04
 -0.20753730D-06  0.16970120D-06 -0.44577619D-06  0.18094573D-04  0.18141732D-04
 -0.36236305D-04  0.92386590D-07  0.11567656D-07  0.44518679D-07  0.20261481D-06
 -0.30667984D-05  0.46193294D-04  0.10097061D-06  0.83611281D-05 -0.68659098D-04
 -0.70881505D-06  0.83926711D-06 -0.69920786D-04 -0.69437870D-06 -0.77891891D-07
  0.98289324D-06 -0.25321167D-04 -0.45696473D-07 -0.26327947D-05  0.37799710D-04
  0.27937215D-06 -0.31588500D-06  0.38163792D-04  0.22015679D-06
MO    4     MO 0.0        OCC NO =    2.0000123  ORB. ENERGY =    0.000000
  0.27012880D-01  0.50357451D-01  0.85110952D-01  0.12793764D+00  0.15714847D+00
  0.13262777D+00  0.49871503D-01 -0.14226380D-05 -0.10633337D-04 -0.39739210D-04
 -0.11086621D-03 -0.14853015D-03  0.17538642D-03  0.26609936D-02 -0.36213500D-02
 -0.43147258D-04 -0.25266737D-05 -0.23689172D-05 -0.16868102D-05  0.29201760D-06
  0.27378506D-06  0.19495127D-06  0.36702714D-02  0.34411128D-02  0.24502773D-02
 -0.96035145D-05 -0.50295749D-05  0.13073145D-02 -0.67937564D-05  0.57001450D-06
 -0.41814076D-03  0.96386469D-08 -0.64548348D-07  0.36772375D-05 -0.31941363D-03
 -0.31867222D-03  0.63808584D-03 -0.18588978D-05 -0.18739790D-06  0.16009302D-05
  0.66509890D-05  0.13121034D-04 -0.19772023D-04 -0.25439369D-05  0.33484115D-05
  0.33782864D-06 -0.18169892D-04 -0.17557726D-04  0.35727617D-04 -0.31025024D-06
 -0.49584445D-06  0.36768721D-06  0.32212714D-06 -0.42562065D-04  0.22833940D-04
 -0.11155445D-05  0.12773851D-03 -0.33883253D-04  0.14916306D-06 -0.52320236D-07
 -0.34618566D-04  0.62968501D-06 -0.50926821D-06  0.82002347D-04 -0.16388799D-03
  0.23132976D-05 -0.24585120D-03  0.24672399D-03 -0.78549300D-06 -0.15584120D-06
  0.24493997D-03  0.33451387D-06 -0.90429803D-04 -0.16309387D-03 -0.24048182D-03
  0.10189516D-02  0.68240166D-03  0.41704788D-05  0.13482920D-05 -0.58303703D-04
  0.32624701D-04 -0.33179774D-05  0.30108437D-03 -0.42425243D-04 -0.66259443D-06
  0.11078524D-03  0.76197436D-04 -0.14185548D-03  0.23207184D-04  0.11864830D-03
  0.38450912D-06 -0.14851069D-05  0.14234158D-03 -0.14611374D-04 -0.21443534D-04
  0.36054908D-04 -0.70089036D-06  0.81738812D-07 -0.62837210D-04 -0.90480900D-04
 -0.16318603D-03 -0.24061770D-03  0.10198849D-02  0.67598253D-03  0.43086339D-05
 -0.51132188D-04  0.28951907D-04  0.33297416D-04  0.26226087D-03 -0.15043072D-03
 -0.42796277D-04  0.94419980D-04 -0.55119315D-04  0.75082092D-04 -0.18486107D-04
 -0.10023058D-03  0.11871668D-03 -0.14266520D-03  0.12397557D-03 -0.70607886D-04
 -0.19694964D-04 -0.16031459D-04  0.35726423D-04  0.54968446D-05 -0.53921182D-04
  0.31685179D-04 -0.90802566D-04 -0.16376617D-03 -0.24147312D-03  0.10376081D-02
  0.70166597D-03  0.44551412D-05  0.48359343D-04  0.25220800D-04  0.36350351D-04
 -0.26885712D-03 -0.14726293D-03 -0.45740996D-04 -0.98512660D-04 -0.55594635D-04
  0.76886980D-04 -0.15585571D-04 -0.10253449D-03  0.11812006D-03  0.14656740D-03
 -0.12672620D-03 -0.69045789D-04 -0.19342152D-04 -0.16533088D-04  0.35875241D-04
 -0.51759824D-05  0.55239706D-04  0.31723938D-04  0.91351953D-01  0.17090976D+00
  0.29529415D+00  0.47870651D+00  0.72696177D+00  0.10104085D+01  0.12012983D+01
  0.10701582D+01  0.53146320D+00  0.85561080D-01  0.90271993D-03  0.42770850D-03
  0.14267639D-01  0.49719867D-01  0.17904929D+00  0.39469188D+00  0.55559878D+00
 -0.26503873D-01 -0.72709750D+00 -0.42992820D+00  0.62805334D-05  0.76072597D-04
  0.15864138D-03  0.45495586D-03  0.23625224D-04 -0.19619903D-02 -0.50694062D-02
  0.41303135D-02 -0.28556994D-01  0.14195561D-02 -0.18109381D-03 -0.15552337D-02
 -0.20486066D-02 -0.22599337D-02 -0.18770519D-02 -0.99676666D-03 -0.25717101D-03
  0.42328578D-02  0.55756639D-02  0.61508301D-02  0.51087460D-02  0.27128859D-02
  0.69993874D-03  0.99125601D+01  0.13057161D+02  0.14404092D+02  0.11963726D+02
  0.63530706D+01  0.16391254D+01  0.51999641D-07 -0.50269907D-06 -0.70885816D-06
 -0.10138547D-05  0.51340174D-08  0.92980037D-06 -0.16448587D-06  0.15901436D-05
  0.22422684D-05  0.32070370D-05 -0.16239984D-07 -0.29411554D-05 -0.33687926D-03
  0.32567319D-02  0.45923320D-02  0.65682496D-02 -0.33260691D-04 -0.60237043D-02
 -0.11263227D-04  0.31584029D-04  0.72542858D-01  0.24781679D-06 -0.26830833D-06
 -0.30726746D-03 -0.15038436D-07  0.36846004D-07 -0.39814388D-05  0.45484583D-03
  0.45478582D-03 -0.90963165D-03  0.22336735D-06  0.63375000D-06 -0.21413000D-05
 -0.30997169D-03 -0.30989491D-03  0.61986660D-03 -0.42544430D-07 -0.33072821D-06
  0.14211203D-05  0.42401618D-05  0.42877714D-05 -0.85279332D-05 -0.25552903D-07
 -0.78486016D-07 -0.35719498D-07  0.17659138D-06 -0.14446900D-04 -0.46930965D-04
 -0.32856668D-06  0.43553241D-04  0.69883147D-04 -0.20120747D-06 -0.21253968D-06
  0.70909750D-04 -0.14284803D-06 -0.63000520D-07  0.42363080D-05 -0.62715816D-04
  0.82788548D-07 -0.12432484D-04  0.94313559D-04  0.10621301D-06 -0.27644023D-06
  0.93833889D-04  0.10193810D-06 -0.63637662D-02 -0.11862071D-01 -0.20108853D-01