 Entering Gaussian System, Link 0=g09
 Input=GAUSSIAN-ZF_6.com
 Output=GAUSSIAN-ZF_6.log
 Initial command:
 /home/bruns/programas/chemistry/gaussian/g09/l1.exe /home/bruns/programas/chemistry/gaussian/work/Gau-13726.inp -scrdir=/home/bruns/programas/chemistry/gaussian/work/
 Entering Link 1 = /home/bruns/programas/chemistry/gaussian/g09/l1.exe PID=     13728.
  
 Copyright (c) 1988,1990,1992,1993,1995,1998,2003,2009,2010,
            Gaussian, Inc.  All Rights Reserved.
  
 This is part of the Gaussian(R) 09 program.  It is based on
 the Gaussian(R) 03 system (copyright 2003, Gaussian, Inc.),
 the Gaussian(R) 98 system (copyright 1998, Gaussian, Inc.),
 the Gaussian(R) 94 system (copyright 1995, Gaussian, Inc.),
 the Gaussian 92(TM) system (copyright 1992, Gaussian, Inc.),
 the Gaussian 90(TM) system (copyright 1990, Gaussian, Inc.),
 the Gaussian 88(TM) system (copyright 1988, Gaussian, Inc.),
 the Gaussian 86(TM) system (copyright 1986, Carnegie Mellon
 University), and the Gaussian 82(TM) system (copyright 1983,
 Carnegie Mellon University). Gaussian is a federally registered
 trademark of Gaussian, Inc.
  
 This software contains proprietary and confidential information,
 including trade secrets, belonging to Gaussian, Inc.
  
 This software is provided under written license and may be
 used, copied, transmitted, or stored only in accord with that
 written license.
  
 The following legend is applicable only to US Government
 contracts under FAR:
  
                    RESTRICTED RIGHTS LEGEND
  
 Use, reproduction and disclosure by the US Government is
 subject to restrictions as set forth in subparagraphs (a)
 and (c) of the Commercial Computer Software - Restricted
 Rights clause in FAR 52.227-19.
  
 Gaussian, Inc.
 340 Quinnipiac St., Bldg. 40, Wallingford CT 06492
  
  
 ---------------------------------------------------------------
 Warning -- This program may not be used in any manner that
 competes with the business of Gaussian, Inc. or will provide
 assistance to any competitor of Gaussian, Inc.  The licensee
 of this program is prohibited from giving any competitor of
 Gaussian, Inc. access to this program.  By using this program,
 the user acknowledges that Gaussian, Inc. is engaged in the
 business of creating and licensing software in the field of
 computational chemistry and represents and warrants to the
 licensee that it is not a competitor of Gaussian, Inc. and that
 it will not use this program in any manner prohibited above.
 ---------------------------------------------------------------
  

 Cite this work as:
 Gaussian 09, Revision B.01,
 M. J. Frisch, G. W. Trucks, H. B. Schlegel, G. E. Scuseria, 
 M. A. Robb, J. R. Cheeseman, G. Scalmani, V. Barone, B. Mennucci, 
 G. A. Petersson, H. Nakatsuji, M. Caricato, X. Li, H. P. Hratchian, 
 A. F. Izmaylov, J. Bloino, G. Zheng, J. L. Sonnenberg, M. Hada, 
 M. Ehara, K. Toyota, R. Fukuda, J. Hasegawa, M. Ishida, T. Nakajima, 
 Y. Honda, O. Kitao, H. Nakai, T. Vreven, J. A. Montgomery, Jr., 
 J. E. Peralta, F. Ogliaro, M. Bearpark, J. J. Heyd, E. Brothers, 
 K. N. Kudin, V. N. Staroverov, T. Keith, R. Kobayashi, J. Normand, 
 K. Raghavachari, A. Rendell, J. C. Burant, S. S. Iyengar, J. Tomasi, 
 M. Cossi, N. Rega, J. M. Millam, M. Klene, J. E. Knox, J. B. Cross, 
 V. Bakken, C. Adamo, J. Jaramillo, R. Gomperts, R. E. Stratmann, 
 O. Yazyev, A. J. Austin, R. Cammi, C. Pomelli, J. W. Ochterski, 
 R. L. Martin, K. Morokuma, V. G. Zakrzewski, G. A. Voth, 
 P. Salvador, J. J. Dannenberg, S. Dapprich, A. D. Daniels, 
 O. Farkas, J. B. Foresman, J. V. Ortiz, J. Cioslowski, 
 and D. J. Fox, Gaussian, Inc., Wallingford CT, 2010.
 
 ******************************************
 Gaussian 09:  EM64L-G09RevB.01 12-Aug-2010
                10-Aug-2021 
 ******************************************
 %nproc=8
 Will use up to    8 processors via shared memory.
 %mem=8GB
 -----------------------------------------------------
 # QCISD aug-cc-pvtz nosymm density=current output=wfn
 -----------------------------------------------------
 1/30=1,38=1/1;
 2/12=2,15=1,17=6,18=5,40=1/2;
 3/5=16,6=1,7=10,11=9,16=1,25=1,30=1,71=1/1,2,3;
 4//1;
 5/5=2,38=5/2;
 8/6=4,9=120000,10=1/1,4;
 9/5=8,15=1/13;
 11/28=-7,31=1,32=3,42=3/11;
 10/5=6,13=10,31=1/2;
 6/7=2,8=2,9=2,10=2,22=-1,31=1/1;
 99/5=1,6=1100,9=1/99;
 ----------
 title line
 ----------
 Symbolic Z-matrix:
 Charge = -1 Multiplicity = 1
 C                     0.00018   0.00003  -0.49771 
 H                     0.00002  -1.05257  -0.62073 
 H                    -0.91131   0.52637  -0.62125 
 H                     0.91175   0.52613  -0.62157 
 Cl                    0.00056   0.00096   1.64472 
 F                    -0.00019  -0.00092  -2.60346 
 
                          Input orientation:                          
 ---------------------------------------------------------------------
 Center     Atomic      Atomic             Coordinates (Angstroms)
 Number     Number       Type             X           Y           Z
 ---------------------------------------------------------------------
      1          6           0        0.000175    0.000029   -0.497709
      2          1           0        0.000019   -1.052570   -0.620726
      3          1           0       -0.911312    0.526365   -0.621245
      4          1           0        0.911750    0.526132   -0.621570
      5         17           0        0.000555    0.000962    1.644718
      6          9           0       -0.000186   -0.000921   -2.603460
 ---------------------------------------------------------------------
                    Distance matrix (angstroms):
                    1          2          3          4          5
     1  C    0.000000
     2  H    1.059763   0.000000
     3  H    1.059764   1.823063   0.000000
     4  H    1.059762   1.823062   1.823062   0.000000
     5  Cl   2.142427   2.498433   2.498427   2.498428   0.000000
     6  F    2.105751   2.244371   2.244406   2.244393   4.248178
                    6
     6  F    0.000000
 Symmetry turned off by external request.
 This structure is nearly, but not quite of a higher symmetry.
 Consider Symm=Loose if the higher symmetry is desired.
 Stoichiometry    CH3ClF(1-)
 Framework group  C1[X(CH3ClF)]
 Deg. of freedom    12
 Full point group                 C1      NOp   1
 Rotational constants (GHZ):    150.8790651      2.2051728      2.2051728
 Standard basis: Aug-CC-pVTZ (5D, 7F)
 Integral buffers will be    131072 words long.
 Raffenetti 1 integral format.
 Two-electron integral symmetry is turned off.
   211 basis functions,   339 primitive gaussians,   244 cartesian basis functions
    18 alpha electrons       18 beta electrons
       nuclear repulsion energy        84.8495319232 Hartrees.
 NAtoms=    6 NActive=    6 NUniq=    6 SFac= 1.00D+00 NAtFMM=   50 NAOKFM=F Big=F
 One-electron integrals computed using PRISM.
 NBasis=   211 RedAO= T  NBF=   211
 NBsUse=   211 1.00D-06 NBFU=   211
 Harris functional with IExCor=  205 diagonalized for initial guess.
 ExpMin= 2.53D-02 ExpMax= 4.56D+05 ExpMxC= 1.44D+03 IAcc=3 IRadAn=         0 AccDes= 0.00D+00
 HarFok:  IExCor=  205 AccDes= 0.00D+00 IRadAn=         0 IDoV= 1
 ScaDFX=  1.000000  1.000000  1.000000  1.000000
 FoFCou: FMM=F IPFlag=           0 FMFlag=      100000 FMFlg1=           0
         NFxFlg=           0 DoJE=T BraDBF=F KetDBF=T FulRan=T
         Omega=  0.000000  0.000000  1.000000  0.000000  0.000000 ICntrl=     500 IOpCl=  0
         NMat0=    1 NMatS0=    1 NMatT0=    0 NMatD0=    1 NMtDS0=    0 NMtDT0=    0
         I1Cent=           4 NGrid=           0.
 Symmetry not used in FoFCou.
 Requested convergence on RMS density matrix=1.00D-08 within 128 cycles.
 Requested convergence on MAX density matrix=1.00D-06.
 Requested convergence on             energy=1.00D-06.
 No special actions if energy rises.
 Keep R1 ints in memory in canonical form, NReq=454274131.
 SCF Done:  E(RHF) =  -598.617120067     A.U. after   12 cycles
             Convg  =    0.9430D-08             -V/T =  2.0001
 ExpMin= 2.53D-02 ExpMax= 4.56D+05 ExpMxC= 1.44D+03 IAcc=3 IRadAn=         5 AccDes= 0.00D+00
 HarFok:  IExCor=  205 AccDes= 0.00D+00 IRadAn=         5 IDoV=-2
 ScaDFX=  1.000000  1.000000  1.000000  1.000000
 Range of M.O.s used for correlation:     8   211
 NBasis=   211 NAE=    18 NBE=    18 NFC=     7 NFV=     0
 NROrb=    204 NOA=    11 NOB=    11 NVA=   193 NVB=   193

 **** Warning!!: The largest alpha MO coefficient is  0.35406589D+02

 Semi-Direct transformation.
 ModeAB=           2 MOrb=            11 LenV=    1072528264
 LASXX=     44979418 LTotXX=    44979418 LenRXX=    44979418
 LTotAB=    45631872 MaxLAS=    67073160 LenRXY=    67073160
 NonZer=    89958836 LenScr=   135708672 LnRSAI=           0
 LnScr1=           0 LExtra=           0 Total=    247761250
 MaxDsk=          -1 SrtSym=           F ITran=            4
 JobTyp=0 Pass  1:  I=   1 to  11.
 (rs|ai) integrals will be sorted in core.
 Spin components of T(2) and E(2):
     alpha-alpha T2 =       0.2566772834D-01 E2=     -0.8204987958D-01
     alpha-beta  T2 =       0.1452770670D+00 E2=     -0.5099355043D+00
     beta-beta   T2 =       0.2566772834D-01 E2=     -0.8204987958D-01
 ANorm=    0.1093897858D+01
 E2 =    -0.6740352635D+00 EUMP2 =    -0.59929115533001D+03
 R2 and R3 integrals will be kept in memory, NReq=   900794930.
 Iterations=  50 Convergence= 0.100D-07
 Iteration Nr.   1
 **********************
 DD1Dir will call FoFMem   1 times, MxPair=       132
 NAB=    66 NAA=     0 NBB=     0.
 MP4(R+Q)=  0.14427823D-01
 E3=       -0.18713371D-01        EUMP3=      -0.59930986870D+03
 E4(DQ)=   -0.46915971D-03        UMP4(DQ)=   -0.59931033786D+03
 E4(SDQ)=  -0.98321644D-02        UMP4(SDQ)=  -0.59931970087D+03
 DE(Corr)= -0.67832081     E(Corr)=     -599.29544088    
 NORM(A)=   0.10997075D+01
 Iteration Nr.   2
 **********************
 DD1Dir will call FoFMem   1 times, MxPair=       132
 NAB=    66 NAA=     0 NBB=     0.
 DE(Corr)= -0.70051941     E(CORR)=     -599.31763948     Delta=-2.22D-02
 NORM(A)=   0.11070661D+01
 Iteration Nr.   3
 **********************
 DD1Dir will call FoFMem   1 times, MxPair=       132
 NAB=    66 NAA=     0 NBB=     0.
 DE(Corr)= -0.69812309     E(CORR)=     -599.31524315     Delta= 2.40D-03
 NORM(A)=   0.11110654D+01
 Iteration Nr.   4
 **********************
 DD1Dir will call FoFMem   1 times, MxPair=       132
 NAB=    66 NAA=     0 NBB=     0.
 DE(Corr)= -0.70118670     E(CORR)=     -599.31830677     Delta=-3.06D-03
 NORM(A)=   0.11131823D+01
 Iteration Nr.   5
 **********************
 DD1Dir will call FoFMem   1 times, MxPair=       132
 NAB=    66 NAA=     0 NBB=     0.
 DE(Corr)= -0.70178482     E(CORR)=     -599.31890489     Delta=-5.98D-04
 NORM(A)=   0.11142270D+01
 Iteration Nr.   6
 **********************
 DD1Dir will call FoFMem   1 times, MxPair=       132
 NAB=    66 NAA=     0 NBB=     0.
 DE(Corr)= -0.70193352     E(CORR)=     -599.31905359     Delta=-1.49D-04
 NORM(A)=   0.11145600D+01
 Iteration Nr.   7
 **********************
 DD1Dir will call FoFMem   1 times, MxPair=       132
 NAB=    66 NAA=     0 NBB=     0.
 DE(Corr)= -0.70196383     E(CORR)=     -599.31908390     Delta=-3.03D-05
 NORM(A)=   0.11145923D+01
 Iteration Nr.   8
 **********************
 DD1Dir will call FoFMem   1 times, MxPair=       132
 NAB=    66 NAA=     0 NBB=     0.
 DE(Corr)= -0.70197805     E(CORR)=     -599.31909812     Delta=-1.42D-05
 NORM(A)=   0.11146109D+01
 Iteration Nr.   9
 **********************
 DD1Dir will call FoFMem   1 times, MxPair=       132
 NAB=    66 NAA=     0 NBB=     0.
 DE(Corr)= -0.70195441     E(CORR)=     -599.31907448     Delta= 2.36D-05
 NORM(A)=   0.11146145D+01
 Iteration Nr.  10
 **********************
 DD1Dir will call FoFMem   1 times, MxPair=       132
 NAB=    66 NAA=     0 NBB=     0.
 DE(Corr)= -0.70197413     E(CORR)=     -599.31909419     Delta=-1.97D-05
 NORM(A)=   0.11146147D+01
 Iteration Nr.  11
 **********************
 DD1Dir will call FoFMem   1 times, MxPair=       132
 NAB=    66 NAA=     0 NBB=     0.
 DE(Corr)= -0.70196477     E(CORR)=     -599.31908484     Delta= 9.36D-06
 NORM(A)=   0.11146177D+01
 Iteration Nr.  12
 **********************
 DD1Dir will call FoFMem   1 times, MxPair=       132
 NAB=    66 NAA=     0 NBB=     0.
 DE(Corr)= -0.70196857     E(CORR)=     -599.31908864     Delta=-3.80D-06
 NORM(A)=   0.11146182D+01
 Iteration Nr.  13
 **********************
 DD1Dir will call FoFMem   1 times, MxPair=       132
 NAB=    66 NAA=     0 NBB=     0.
 DE(Corr)= -0.70196914     E(CORR)=     -599.31908920     Delta=-5.66D-07
 NORM(A)=   0.11146189D+01
 Iteration Nr.  14
 **********************
 DD1Dir will call FoFMem   1 times, MxPair=       132
 NAB=    66 NAA=     0 NBB=     0.
 DE(Corr)= -0.70196938     E(CORR)=     -599.31908944     Delta=-2.37D-07
 NORM(A)=   0.11146190D+01
 Iteration Nr.  15
 **********************
 DD1Dir will call FoFMem   1 times, MxPair=       132
 NAB=    66 NAA=     0 NBB=     0.
 DE(Corr)= -0.70196928     E(CORR)=     -599.31908934     Delta= 9.75D-08
 NORM(A)=   0.11146189D+01
 Iteration Nr.  16
 **********************
 DD1Dir will call FoFMem   1 times, MxPair=       132
 NAB=    66 NAA=     0 NBB=     0.
 DE(Corr)= -0.70196948     E(CORR)=     -599.31908955     Delta=-2.04D-07
 NORM(A)=   0.11146187D+01
 Iteration Nr.  17
 **********************
 DD1Dir will call FoFMem   1 times, MxPair=       132
 NAB=    66 NAA=     0 NBB=     0.
 DE(Corr)= -0.70196935     E(CORR)=     -599.31908941     Delta= 1.34D-07
 NORM(A)=   0.11146186D+01
 Iteration Nr.  18
 **********************
 DD1Dir will call FoFMem   1 times, MxPair=       132
 NAB=    66 NAA=     0 NBB=     0.
 DE(Corr)= -0.70196939     E(CORR)=     -599.31908945     Delta=-3.70D-08
 NORM(A)=   0.11146184D+01
 Iteration Nr.  19
 **********************
 DD1Dir will call FoFMem   1 times, MxPair=       132
 NAB=    66 NAA=     0 NBB=     0.
 DE(Corr)= -0.70196933     E(CORR)=     -599.31908940     Delta= 5.59D-08
 NORM(A)=   0.11146183D+01
 Iteration Nr.  20
 **********************
 DD1Dir will call FoFMem   1 times, MxPair=       132
 NAB=    66 NAA=     0 NBB=     0.
 DE(Corr)= -0.70196933     E(CORR)=     -599.31908940     Delta=-2.81D-09
 NORM(A)=   0.11146183D+01
 Iteration Nr.  21
 **********************
 DD1Dir will call FoFMem   1 times, MxPair=       132
 NAB=    66 NAA=     0 NBB=     0.
 DE(Corr)= -0.70196931     E(CORR)=     -599.31908938     Delta= 2.02D-08
 NORM(A)=   0.11146182D+01
 Iteration Nr.  22
 **********************
 DD1Dir will call FoFMem   1 times, MxPair=       132
 NAB=    66 NAA=     0 NBB=     0.
 DE(Corr)= -0.70196931     E(CORR)=     -599.31908938     Delta= 3.01D-09
 NORM(A)=   0.11146182D+01
 Iteration Nr.  23
 **********************
 DD1Dir will call FoFMem   1 times, MxPair=       132
 NAB=    66 NAA=     0 NBB=     0.
 DE(Corr)= -0.70196930     E(CORR)=     -599.31908937     Delta= 5.20D-09
 NORM(A)=   0.11146182D+01
 Iteration Nr.  24
 **********************
 DD1Dir will call FoFMem   1 times, MxPair=       132
 NAB=    66 NAA=     0 NBB=     0.
 DE(Corr)= -0.70196931     E(CORR)=     -599.31908937     Delta=-1.46D-09
 NORM(A)=   0.11146182D+01
 Iteration Nr.  25
 **********************
 DD1Dir will call FoFMem   1 times, MxPair=       132
 NAB=    66 NAA=     0 NBB=     0.
 DE(Corr)= -0.70196930     E(CORR)=     -599.31908937     Delta= 5.31D-09
 NORM(A)=   0.11146182D+01
 Iteration Nr.  26
 **********************
 DD1Dir will call FoFMem   1 times, MxPair=       132
 NAB=    66 NAA=     0 NBB=     0.
 DE(Corr)= -0.70196931     E(CORR)=     -599.31908937     Delta=-5.46D-09
 NORM(A)=   0.11146182D+01
 Iteration Nr.  27
 **********************
 DD1Dir will call FoFMem   1 times, MxPair=       132
 NAB=    66 NAA=     0 NBB=     0.
 DE(Corr)= -0.70196930     E(CORR)=     -599.31908937     Delta= 3.03D-09
 NORM(A)=   0.11146182D+01
 Largest amplitude= 6.64D-02

 Z-AMPLITUDE ITERATIONS

 Iteration Nr.   1
 **********************
 DD1Dir will call FoFMem   1 times, MxPair=       132
 NAB=    66 NAA=     0 NBB=     0.
 DE(Z)  -0.68257517D+00          E(Z)=    -0.59929969524D+03
 NORM(A)=   0.11146912D+01
 Iteration Nr.   2
 **********************
 DD1Dir will call FoFMem   1 times, MxPair=       132
 NAB=    66 NAA=     0 NBB=     0.
 DE(Z)  -0.68258320D+00          E(Z)=    -0.59929970327D+03
 NORM(A)=   0.11147770D+01
 Iteration Nr.   3
 **********************
 DD1Dir will call FoFMem   1 times, MxPair=       132
 NAB=    66 NAA=     0 NBB=     0.
 DE(Z)  -0.68259028D+00          E(Z)=    -0.59929971035D+03
 NORM(A)=   0.11147925D+01
 Iteration Nr.   4
 **********************
 DD1Dir will call FoFMem   1 times, MxPair=       132
 NAB=    66 NAA=     0 NBB=     0.
 DE(Z)  -0.68259260D+00          E(Z)=    -0.59929971267D+03
 NORM(A)=   0.11149226D+01
 Iteration Nr.   5
 **********************
 DD1Dir will call FoFMem   1 times, MxPair=       132
 NAB=    66 NAA=     0 NBB=     0.
 DE(Z)  -0.68260489D+00          E(Z)=    -0.59929972495D+03
 NORM(A)=   0.11079561D+01
 Iteration Nr.   6
 **********************
 DD1Dir will call FoFMem   1 times, MxPair=       132
 NAB=    66 NAA=     0 NBB=     0.
 DE(Z)  -0.68190454D+00          E(Z)=    -0.59929902460D+03
 NORM(A)=   0.11079503D+01
 Iteration Nr.   7
 **********************
 DD1Dir will call FoFMem   1 times, MxPair=       132
 NAB=    66 NAA=     0 NBB=     0.
 DE(Z)  -0.68190627D+00          E(Z)=    -0.59929902634D+03
 NORM(A)=   0.11079465D+01
 Iteration Nr.   8
 **********************
 DD1Dir will call FoFMem   1 times, MxPair=       132
 NAB=    66 NAA=     0 NBB=     0.
 DE(Z)  -0.68190513D+00          E(Z)=    -0.59929902520D+03
 NORM(A)=   0.11079416D+01
 Iteration Nr.   9
 **********************
 DD1Dir will call FoFMem   1 times, MxPair=       132
 NAB=    66 NAA=     0 NBB=     0.
 DE(Z)  -0.68190465D+00          E(Z)=    -0.59929902472D+03
 NORM(A)=   0.11079406D+01
 Iteration Nr.  10
 **********************
 DD1Dir will call FoFMem   1 times, MxPair=       132
 NAB=    66 NAA=     0 NBB=     0.
 DE(Z)  -0.68190485D+00          E(Z)=    -0.59929902492D+03
 NORM(A)=   0.11079402D+01
 Iteration Nr.  11
 **********************
 DD1Dir will call FoFMem   1 times, MxPair=       132
 NAB=    66 NAA=     0 NBB=     0.
 DE(Z)  -0.68190491D+00          E(Z)=    -0.59929902498D+03
 NORM(A)=   0.11079402D+01
 Iteration Nr.  12
 **********************
 DD1Dir will call FoFMem   1 times, MxPair=       132
 NAB=    66 NAA=     0 NBB=     0.
 DE(Z)  -0.68190472D+00          E(Z)=    -0.59929902479D+03
 NORM(A)=   0.11079402D+01
 Iteration Nr.  13
 **********************
 DD1Dir will call FoFMem   1 times, MxPair=       132
 NAB=    66 NAA=     0 NBB=     0.
 DE(Z)  -0.68190487D+00          E(Z)=    -0.59929902493D+03
 NORM(A)=   0.11079402D+01
 Iteration Nr.  14
 **********************
 DD1Dir will call FoFMem   1 times, MxPair=       132
 NAB=    66 NAA=     0 NBB=     0.
 DE(Z)  -0.68190485D+00          E(Z)=    -0.59929902492D+03
 NORM(A)=   0.11079402D+01
 Iteration Nr.  15
 **********************
 DD1Dir will call FoFMem   1 times, MxPair=       132
 NAB=    66 NAA=     0 NBB=     0.
 DE(Z)  -0.68190486D+00          E(Z)=    -0.59929902492D+03
 NORM(A)=   0.11079402D+01
 Iteration Nr.  16
 **********************
 DD1Dir will call FoFMem   1 times, MxPair=       132
 NAB=    66 NAA=     0 NBB=     0.
 DE(Z)  -0.68190486D+00          E(Z)=    -0.59929902493D+03
 NORM(A)=   0.11079402D+01
 Iteration Nr.  17
 **********************
 DD1Dir will call FoFMem   1 times, MxPair=       132
 NAB=    66 NAA=     0 NBB=     0.
 DE(Z)  -0.68190486D+00          E(Z)=    -0.59929902493D+03
 NORM(A)=   0.11079402D+01
 Iteration Nr.  18
 **********************
 DD1Dir will call FoFMem   1 times, MxPair=       132
 NAB=    66 NAA=     0 NBB=     0.
 DE(Z)  -0.68190486D+00          E(Z)=    -0.59929902493D+03
 NORM(A)=   0.11079402D+01
 Discarding MO integrals.
          Differentiating once with respect to electric field.
                with respect to dipole field.
          Electric field/nuclear overlap derivatives assumed to be zero.
          Keep R1 ints in memory in canonical form, NReq=448662239.
          There are     1 degrees of freedom in the 1st order CPHF.  IDoFFX=0.
 LinEq1:  Iter=  0 NonCon=     1 RMS=3.12D-03 Max=1.21D-01
 AX will form     1 AO Fock derivatives at one time.
 LinEq1:  Iter=  1 NonCon=     1 RMS=6.93D-04 Max=7.02D-03
 LinEq1:  Iter=  2 NonCon=     1 RMS=2.30D-04 Max=5.78D-03
 LinEq1:  Iter=  3 NonCon=     1 RMS=9.44D-05 Max=1.43D-03
 LinEq1:  Iter=  4 NonCon=     1 RMS=3.83D-05 Max=4.15D-04
 LinEq1:  Iter=  5 NonCon=     1 RMS=1.06D-05 Max=2.30D-04
 LinEq1:  Iter=  6 NonCon=     1 RMS=2.43D-06 Max=4.21D-05
 LinEq1:  Iter=  7 NonCon=     1 RMS=6.09D-07 Max=9.36D-06
 LinEq1:  Iter=  8 NonCon=     1 RMS=1.51D-07 Max=1.81D-06
 LinEq1:  Iter=  9 NonCon=     1 RMS=3.07D-08 Max=7.51D-07
 LinEq1:  Iter= 10 NonCon=     1 RMS=6.54D-09 Max=8.78D-08
 LinEq1:  Iter= 11 NonCon=     1 RMS=1.05D-09 Max=1.17D-08
 LinEq1:  Iter= 12 NonCon=     1 RMS=1.68D-10 Max=2.89D-09
 LinEq1:  Iter= 13 NonCon=     0 RMS=2.39D-11 Max=3.17D-10
 Linear equations converged to 1.000D-10 1.000D-09 after    13 iterations.
 End of Minotr Frequency-dependent properties file   721 does not exist.
 End of Minotr Frequency-dependent properties file   722 does not exist.

 **********************************************************************

            Population analysis using the QCI/CC density.

 **********************************************************************

     Natural Orbital Coefficients:
                           1         2         3         4         5
     Eigenvalues --     2.00003   2.00003   2.00002   2.00001   2.00001
   1 1   C  1S          0.00000   0.00000  -0.04365   0.08064   0.97621
   2        2S          0.00000   0.00000   0.00131   0.00050  -0.01333
   3        3S          0.00000   0.00000  -0.00134   0.00402   0.03985
   4        4S          0.00000   0.00000  -0.01253  -0.02363   0.00305
   5        5S          0.00000   0.00000  -0.00120  -0.00064  -0.00060
   6        6PX         0.00005   0.00002   0.00000   0.00000   0.00000
   7        6PY        -0.00002   0.00005   0.00000   0.00000   0.00000
   8        6PZ         0.00000   0.00000   0.00053   0.00168   0.00088
   9        7PX         0.00080   0.00027   0.00000   0.00000   0.00000
  10        7PY        -0.00027   0.00080   0.00000   0.00000   0.00000
  11        7PZ         0.00000   0.00000   0.00140   0.00304  -0.00091
  12        8PX         0.00431   0.00145   0.00000   0.00000   0.00000
  13        8PY        -0.00145   0.00431   0.00000   0.00000   0.00000
  14        8PZ         0.00000   0.00000  -0.00370  -0.00412  -0.00311
  15        9PX         0.00040   0.00013   0.00000   0.00000   0.00000
  16        9PY        -0.00013   0.00040   0.00000   0.00000   0.00000
  17        9PZ         0.00000   0.00000   0.00021   0.00016  -0.00049
  18       10D 0        0.00000   0.00000   0.00011   0.00033  -0.00057
  19       10D+1       -0.00014  -0.00005   0.00000   0.00000   0.00000
  20       10D-1        0.00005  -0.00014   0.00000   0.00000   0.00000
  21       10D+2       -0.00001   0.00004   0.00000   0.00000   0.00000
  22       10D-2        0.00004   0.00001   0.00000   0.00000   0.00000
  23       11D 0        0.00000   0.00000   0.00021  -0.00009  -0.00027
  24       11D+1        0.00025   0.00008   0.00000   0.00000   0.00000
  25       11D-1       -0.00008   0.00025   0.00000   0.00000   0.00000
  26       11D+2       -0.00032   0.00096   0.00000   0.00000   0.00000
  27       11D-2        0.00096   0.00032   0.00000   0.00000   0.00000
  28       12D 0        0.00000   0.00000  -0.00079   0.00119  -0.00235
  29       12D+1       -0.00123  -0.00041   0.00000   0.00000   0.00000
  30       12D-1        0.00041  -0.00123   0.00000   0.00000   0.00000
  31       12D+2       -0.00052   0.00154   0.00000   0.00000   0.00000
  32       12D-2        0.00154   0.00052   0.00000   0.00000   0.00000
  33       13F 0        0.00000   0.00000   0.00001   0.00003   0.00019
  34       13F+1       -0.00018  -0.00006   0.00000   0.00000   0.00000
  35       13F-1        0.00006  -0.00018   0.00000   0.00000   0.00000
  36       13F+2       -0.00001   0.00002   0.00000   0.00000   0.00000
  37       13F-2        0.00002   0.00001   0.00000   0.00000   0.00000
  38       13F+3        0.00000   0.00000   0.00000   0.00000   0.00000
  39       13F-3        0.00000   0.00000  -0.00006   0.00007   0.00090
  40       14F 0        0.00000   0.00000  -0.00111  -0.00215  -0.00020
  41       14F+1        0.00054   0.00018   0.00000   0.00000   0.00000
  42       14F-1       -0.00018   0.00054   0.00000   0.00000   0.00000
  43       14F+2       -0.00011   0.00032   0.00000   0.00000   0.00000
  44       14F-2        0.00033   0.00011   0.00000   0.00000   0.00000
  45       14F+3        0.00000   0.00000   0.00000   0.00000   0.00000
  46       14F-3        0.00000   0.00000  -0.00085  -0.00137  -0.00191
  47 2   H  1S          0.00005  -0.00015  -0.00002  -0.00035  -0.00135
  48        2S         -0.00038   0.00113   0.00243   0.00334  -0.00065
  49        3S         -0.00277   0.00824   0.00180   0.00528  -0.00432
  50        4S          0.00009  -0.00026   0.00011   0.00010  -0.00013
  51        5PX         0.00000   0.00000   0.00000   0.00000   0.00000
  52        5PY        -0.00001   0.00003   0.00004  -0.00003  -0.00048
  53        5PZ         0.00000   0.00001   0.00001   0.00002  -0.00009
  54        6PX         0.00018   0.00006   0.00000   0.00000   0.00000
  55        6PY        -0.00021   0.00062   0.00045   0.00070  -0.00080
  56        6PZ        -0.00020   0.00059  -0.00001  -0.00010   0.00024
  57        7PX         0.00087   0.00029   0.00000   0.00000   0.00000
  58        7PY        -0.00067   0.00199   0.00053   0.00135  -0.00101
  59        7PZ        -0.00009   0.00026   0.00047   0.00093  -0.00006
  60        8D 0       -0.00001   0.00004   0.00001   0.00007   0.00014
  61        8D+1       -0.00001   0.00000   0.00000   0.00000   0.00000
  62        8D-1       -0.00003   0.00009   0.00002   0.00005  -0.00004
  63        8D+2        0.00002  -0.00005  -0.00004  -0.00005   0.00028
  64        8D-2        0.00001   0.00000   0.00000   0.00000   0.00000
  65        9D 0       -0.00012   0.00037   0.00015   0.00025   0.00063
  66        9D+1        0.00024   0.00008   0.00000   0.00000   0.00000
  67        9D-1       -0.00004   0.00012  -0.00014  -0.00025   0.00001
  68        9D+2        0.00004  -0.00012   0.00001   0.00002  -0.00010
  69        9D-2        0.00011   0.00004   0.00000   0.00000   0.00000
  70 3   H  1S         -0.00015   0.00003  -0.00002  -0.00035  -0.00135
  71        2S          0.00117  -0.00024   0.00243   0.00334  -0.00065
  72        3S          0.00852  -0.00172   0.00180   0.00528  -0.00432
  73        4S         -0.00027   0.00005   0.00011   0.00010  -0.00013
  74        5PX         0.00003   0.00000   0.00004  -0.00002  -0.00042
  75        5PY        -0.00002   0.00000  -0.00002   0.00001   0.00024
  76        5PZ         0.00001   0.00000   0.00001   0.00002  -0.00009
  77        6PX         0.00058  -0.00002   0.00039   0.00061  -0.00069
  78        6PY        -0.00029   0.00023  -0.00023  -0.00035   0.00040
  79        6PZ         0.00061  -0.00012  -0.00001  -0.00010   0.00024
  80        7PX         0.00187   0.00009   0.00046   0.00117  -0.00088
  81        7PY        -0.00087   0.00099  -0.00026  -0.00067   0.00051
  82        7PZ         0.00027  -0.00005   0.00047   0.00093  -0.00006
  83        8D 0        0.00004  -0.00001   0.00001   0.00007   0.00014
  84        8D+1        0.00008  -0.00002   0.00002   0.00004  -0.00003
  85        8D-1       -0.00005   0.00000  -0.00001  -0.00002   0.00002
  86        8D+2        0.00003   0.00000   0.00002   0.00003  -0.00014
  87        8D-2       -0.00004   0.00001  -0.00004  -0.00005   0.00024
  88        9D 0        0.00038  -0.00008   0.00015   0.00025   0.00063
  89        9D+1        0.00013   0.00010  -0.00012  -0.00022   0.00001
  90        9D-1       -0.00002   0.00022   0.00007   0.00013   0.00000
  91        9D+2        0.00008   0.00009   0.00000  -0.00001   0.00005
  92        9D-2       -0.00010   0.00008   0.00001   0.00002  -0.00008
  93 4   H  1S          0.00010   0.00012  -0.00002  -0.00035  -0.00135
  94        2S         -0.00079  -0.00090   0.00243   0.00334  -0.00065
  95        3S         -0.00575  -0.00652   0.00180   0.00528  -0.00432
  96        4S          0.00018   0.00020   0.00011   0.00010  -0.00013
  97        5PX         0.00002   0.00002  -0.00004   0.00002   0.00042
  98        5PY         0.00001   0.00001  -0.00002   0.00001   0.00024
  99        5PZ        -0.00001  -0.00001   0.00001   0.00002  -0.00009
 100        6PX         0.00045   0.00036  -0.00039  -0.00061   0.00069
 101        6PY         0.00009   0.00036  -0.00023  -0.00035   0.00040
 102        6PZ        -0.00041  -0.00047  -0.00001  -0.00010   0.00024
 103        7PX         0.00155   0.00106  -0.00046  -0.00117   0.00088
 104        7PY         0.00009   0.00131  -0.00026  -0.00067   0.00051
 105        7PZ        -0.00018  -0.00021   0.00047   0.00093  -0.00006
 106        8D 0       -0.00002  -0.00003   0.00001   0.00007   0.00014
 107        8D+1        0.00005   0.00007  -0.00002  -0.00004   0.00003
 108        8D-1        0.00004   0.00003  -0.00001  -0.00002   0.00002
 109        8D+2       -0.00002  -0.00001   0.00002   0.00003  -0.00014
 110        8D-2       -0.00002  -0.00003   0.00004   0.00005  -0.00024
 111        9D 0       -0.00026  -0.00029   0.00015   0.00025   0.00063
 112        9D+1        0.00017   0.00000   0.00012   0.00022  -0.00001
 113        9D-1       -0.00012   0.00019   0.00007   0.00013   0.00000
 114        9D+2       -0.00012   0.00002   0.00000  -0.00001   0.00005
 115        9D-2       -0.00003  -0.00012  -0.00001  -0.00002   0.00008
 116 5   Cl 1S          0.00000   0.00000  -0.25115   0.14705  -0.02291
 117        2S          0.00000   0.00000   0.84777  -0.49708   0.07854
 118        3S          0.00000   0.00000  -0.02313   0.00923  -0.00239
 119        4S          0.00000   0.00000   0.06669  -0.04051   0.00645
 120        5S          0.00000   0.00000  -0.00215   0.00778   0.00351
 121        6S          0.00000   0.00000  -0.00154  -0.00211   0.00301
 122        7PX         0.92776   0.31218   0.00009   0.00015  -0.00001
 123        7PY        -0.31218   0.92776   0.00022   0.00036  -0.00002
 124        7PZ        -0.00003  -0.00046   0.49775   0.83771  -0.04752
 125        8PX        -0.01816  -0.00611   0.00000   0.00000   0.00000
 126        8PY         0.00611  -0.01816   0.00000  -0.00001   0.00000
 127        8PZ         0.00000   0.00001  -0.00872  -0.01404   0.00011
 128        9PX         0.04959   0.01669   0.00001   0.00001   0.00000
 129        9PY        -0.01669   0.04959   0.00001   0.00002   0.00000
 130        9PZ         0.00000  -0.00002   0.02826   0.04967  -0.00270
 131       10PX        -0.00548  -0.00184   0.00000   0.00000   0.00000
 132       10PY         0.00184  -0.00548   0.00000   0.00000   0.00000
 133       10PZ         0.00000   0.00000  -0.00432  -0.00275  -0.00347
 134       11PX        -0.00203  -0.00068   0.00000   0.00000   0.00000
 135       11PY         0.00068  -0.00203   0.00000   0.00000   0.00000
 136       11PZ         0.00000   0.00000  -0.00036  -0.00014  -0.00053
 137       12D 0        0.00000   0.00000   0.00001  -0.00051  -0.00017
 138       12D+1       -0.00030  -0.00010   0.00000   0.00000   0.00000
 139       12D-1        0.00010  -0.00030   0.00000   0.00000   0.00000
 140       12D+2        0.00000   0.00001   0.00000   0.00000   0.00000
 141       12D-2        0.00001   0.00000   0.00000   0.00000   0.00000
 142       13D 0        0.00000   0.00000   0.00086   0.00244   0.00042
 143       13D+1        0.00077   0.00026   0.00000   0.00000   0.00000
 144       13D-1       -0.00026   0.00077   0.00000   0.00000   0.00000
 145       13D+2        0.00001  -0.00002   0.00000   0.00000   0.00000
 146       13D-2       -0.00002  -0.00001   0.00000   0.00000   0.00000
 147       14D 0        0.00000   0.00000   0.00058  -0.00017   0.00080
 148       14D+1       -0.00067  -0.00023   0.00000   0.00000   0.00000
 149       14D-1        0.00023  -0.00067   0.00000   0.00000   0.00000
 150       14D+2       -0.00001   0.00003   0.00000   0.00000   0.00000
 151       14D-2        0.00003   0.00001   0.00000   0.00000   0.00000
 152       15F 0        0.00000   0.00000   0.00001  -0.00007  -0.00003
 153       15F+1       -0.00001   0.00000   0.00000   0.00000   0.00000
 154       15F-1        0.00000   0.00000   0.00000   0.00000   0.00000
 155       15F+2       -0.00001   0.00003   0.00000   0.00000   0.00000
 156       15F-2        0.00003   0.00001   0.00000   0.00000   0.00000
 157       15F+3        0.00000   0.00000   0.00000   0.00000   0.00000
 158       15F-3        0.00000   0.00000   0.00001   0.00003   0.00000
 159       16F 0        0.00000   0.00000  -0.00031  -0.00059  -0.00031
 160       16F+1       -0.00021  -0.00007   0.00000   0.00000   0.00000
 161       16F-1        0.00007  -0.00021   0.00000   0.00000   0.00000
 162       16F+2        0.00001  -0.00003   0.00000   0.00000   0.00000
 163       16F-2       -0.00003  -0.00001   0.00000   0.00000   0.00000
 164       16F+3        0.00000   0.00000   0.00000   0.00000   0.00000
 165       16F-3        0.00000   0.00000  -0.00002  -0.00005   0.00002
 166 6   F  1S          0.00000   0.00000  -0.00139  -0.01026  -0.04863
 167        2S          0.00000   0.00000   0.00019   0.00043   0.00078
 168        3S          0.00000   0.00000  -0.00007  -0.00045  -0.00198
 169        4S          0.00000   0.00000  -0.00053  -0.00104   0.00054
 170        5S          0.00000   0.00000   0.00012  -0.00164   0.00174
 171        6PX        -0.00004  -0.00001   0.00000   0.00000   0.00000
 172        6PY         0.00001  -0.00004   0.00000   0.00000   0.00000
 173        6PZ         0.00000   0.00000   0.00057   0.00111   0.00011
 174        7PX        -0.00001   0.00000   0.00000   0.00000   0.00000
 175        7PY         0.00000  -0.00001   0.00000   0.00000   0.00000
 176        7PZ         0.00000   0.00000   0.00069   0.00133   0.00002
 177        8PX        -0.00022  -0.00008   0.00000   0.00000   0.00000
 178        8PY         0.00008  -0.00022   0.00000   0.00000   0.00000
 179        8PZ         0.00000   0.00000   0.00008   0.00016   0.00046
 180        9PX        -0.00034  -0.00011   0.00000   0.00000   0.00000
 181        9PY         0.00011  -0.00034   0.00000   0.00000   0.00000
 182        9PZ         0.00000   0.00000   0.00018  -0.00008   0.00070
 183       10D 0        0.00000   0.00000   0.00001   0.00001  -0.00002
 184       10D+1       -0.00001   0.00000   0.00000   0.00000   0.00000
 185       10D-1        0.00000  -0.00001   0.00000   0.00000   0.00000
 186       10D+2        0.00000   0.00001   0.00000   0.00000   0.00000
 187       10D-2        0.00001   0.00000   0.00000   0.00000   0.00000
 188       11D 0        0.00000   0.00000  -0.00003  -0.00010   0.00001
 189       11D+1        0.00004   0.00002   0.00000   0.00000   0.00000
 190       11D-1       -0.00001   0.00004   0.00000   0.00000   0.00000
 191       11D+2        0.00001  -0.00003   0.00000   0.00000   0.00000
 192       11D-2       -0.00003  -0.00001   0.00000   0.00000   0.00000
 193       12D 0        0.00000   0.00000  -0.00019  -0.00013   0.00011
 194       12D+1       -0.00021  -0.00007   0.00000   0.00000   0.00000
 195       12D-1        0.00007  -0.00021   0.00000   0.00000   0.00000
 196       12D+2       -0.00003   0.00010   0.00000   0.00000   0.00000
 197       12D-2        0.00010   0.00003   0.00000   0.00000   0.00000
 198       13F 0        0.00000   0.00000   0.00001  -0.00001  -0.00004
 199       13F+1        0.00002   0.00001   0.00000   0.00000   0.00000
 200       13F-1       -0.00001   0.00002   0.00000   0.00000   0.00000
 201       13F+2        0.00000  -0.00001   0.00000   0.00000   0.00000
 202       13F-2       -0.00001   0.00000   0.00000   0.00000   0.00000
 203       13F+3        0.00000   0.00000   0.00000   0.00000   0.00000
 204       13F-3        0.00000   0.00000   0.00000   0.00000   0.00000
 205       14F 0        0.00000   0.00000  -0.00004   0.00001   0.00013
 206       14F+1       -0.00005  -0.00002   0.00000   0.00000   0.00000
 207       14F-1        0.00002  -0.00005   0.00000   0.00000   0.00000
 208       14F+2       -0.00001   0.00004   0.00000   0.00000   0.00000
 209       14F-2        0.00004   0.00001   0.00000   0.00000   0.00000
 210       14F+3        0.00000   0.00000   0.00000   0.00000   0.00000
 211       14F-3        0.00000   0.00000   0.00000   0.00000  -0.00001
                           6         7         8         9        10
     Eigenvalues --     2.00000   2.00000   1.98359   1.97542   1.96948
   1 1   C  1S          0.04925  -0.00046  -0.01517  -0.07355  -0.14371
   2        2S         -0.00012  -0.00001   0.04137   0.19958   0.39728
   3        3S          0.00224  -0.00003   0.01023   0.04630   0.09612
   4        4S         -0.00694   0.00016  -0.00437   0.07959   0.19219
   5        5S         -0.00015   0.00010  -0.00771  -0.00684  -0.02856
   6        6PX         0.00000   0.00000   0.00000   0.00000   0.00000
   7        6PY         0.00000   0.00000   0.00000   0.00000  -0.00001
   8        6PZ         0.00004   0.00000  -0.00635   0.01026  -0.02718
   9        7PX         0.00000   0.00000   0.00000   0.00000   0.00000
  10        7PY         0.00000   0.00000   0.00000   0.00001  -0.00001
  11        7PZ        -0.00076   0.00000  -0.00689   0.01782  -0.03239
  12        8PX         0.00000   0.00000   0.00000   0.00000   0.00000
  13        8PY         0.00000   0.00000  -0.00001   0.00000  -0.00001
  14        8PZ         0.00519   0.00009  -0.01650   0.00582  -0.02266
  15        9PX         0.00000   0.00000   0.00000   0.00000   0.00000
  16        9PY         0.00000   0.00000   0.00000   0.00000   0.00000
  17        9PZ         0.00011   0.00001   0.00075   0.00035  -0.00404
  18       10D 0        0.00004   0.00000  -0.00050  -0.00214  -0.00957
  19       10D+1        0.00000   0.00000   0.00000   0.00000   0.00000
  20       10D-1        0.00000   0.00000   0.00000   0.00000  -0.00001
  21       10D+2        0.00000   0.00000   0.00000   0.00000   0.00000
  22       10D-2        0.00000   0.00000   0.00000   0.00000   0.00000
  23       11D 0       -0.00020  -0.00002   0.00499   0.00454  -0.01900
  24       11D+1        0.00000   0.00000   0.00000   0.00000  -0.00001
  25       11D-1        0.00000   0.00000   0.00000   0.00000  -0.00001
  26       11D+2        0.00000   0.00000   0.00000   0.00000   0.00000
  27       11D-2        0.00000   0.00000   0.00000   0.00000   0.00000
  28       12D 0        0.00027   0.00008  -0.00203  -0.00840  -0.01665
  29       12D+1        0.00000   0.00000   0.00000   0.00000  -0.00001
  30       12D-1        0.00000   0.00000   0.00000  -0.00001  -0.00001
  31       12D+2        0.00000   0.00000   0.00000   0.00000   0.00000
  32       12D-2        0.00000   0.00000   0.00000   0.00000   0.00000
  33       13F 0       -0.00008   0.00000   0.00003   0.00243   0.00067
  34       13F+1        0.00000   0.00000   0.00000   0.00000   0.00000
  35       13F-1        0.00000   0.00000   0.00000   0.00000   0.00000
  36       13F+2        0.00000   0.00000   0.00000   0.00000   0.00000
  37       13F-2        0.00000   0.00000   0.00000   0.00000   0.00000
  38       13F+3        0.00000   0.00000   0.00000   0.00000   0.00000
  39       13F-3        0.00001   0.00000   0.00015   0.00195   0.00398
  40       14F 0        0.00127  -0.00001  -0.00465   0.00263  -0.00191
  41       14F+1        0.00000   0.00000   0.00000   0.00000   0.00000
  42       14F-1        0.00000   0.00000  -0.00001   0.00000   0.00000
  43       14F+2        0.00000   0.00000   0.00000   0.00000   0.00000
  44       14F-2        0.00000   0.00000   0.00000   0.00000   0.00000
  45       14F+3        0.00000   0.00000   0.00000   0.00000   0.00000
  46       14F-3       -0.00045   0.00003  -0.00173  -0.00096   0.00415
  47 2   H  1S         -0.00008   0.00000   0.00845   0.03727   0.08054
  48        2S          0.00099  -0.00006   0.01481   0.04378   0.08342
  49        3S          0.00180   0.00004   0.00066  -0.00495  -0.01225
  50        4S          0.00003   0.00000   0.00046   0.00050   0.00038
  51        5PX         0.00000   0.00000   0.00000   0.00000   0.00000
  52        5PY         0.00001   0.00000   0.00107   0.00400   0.00863
  53        5PZ        -0.00004   0.00000  -0.00027   0.00095   0.00034
  54        6PX         0.00000   0.00000   0.00000   0.00000   0.00000
  55        6PY         0.00008   0.00000   0.00068   0.00080   0.00117
  56        6PZ         0.00032  -0.00001  -0.00011   0.00242  -0.00054
  57        7PX         0.00000   0.00000   0.00000   0.00000   0.00000
  58        7PY         0.00043   0.00001  -0.00139  -0.00497  -0.01037
  59        7PZ        -0.00055   0.00001   0.00279  -0.00174  -0.00134
  60        8D 0        0.00006   0.00000  -0.00013  -0.00035  -0.00091
  61        8D+1        0.00000   0.00000   0.00000   0.00000   0.00000
  62        8D-1       -0.00001   0.00000   0.00014   0.00049   0.00023
  63        8D+2       -0.00002   0.00000  -0.00003  -0.00055  -0.00137
  64        8D-2        0.00000   0.00000   0.00000   0.00000   0.00000
  65        9D 0        0.00009  -0.00001   0.00003   0.00122   0.00101
  66        9D+1        0.00000   0.00000   0.00000   0.00000   0.00000
  67        9D-1        0.00014   0.00000   0.00006   0.00004  -0.00038
  68        9D+2        0.00003   0.00000   0.00097   0.00225   0.00414
  69        9D-2        0.00000   0.00000   0.00000   0.00000   0.00000
  70 3   H  1S         -0.00008   0.00000   0.00845   0.03727   0.08054
  71        2S          0.00099  -0.00006   0.01481   0.04378   0.08342
  72        3S          0.00180   0.00004   0.00066  -0.00495  -0.01225
  73        4S          0.00003   0.00000   0.00046   0.00050   0.00038
  74        5PX         0.00001   0.00000   0.00092   0.00346   0.00747
  75        5PY        -0.00001   0.00000  -0.00053  -0.00200  -0.00431
  76        5PZ        -0.00004   0.00000  -0.00027   0.00095   0.00035
  77        6PX         0.00007   0.00000   0.00059   0.00069   0.00102
  78        6PY        -0.00004   0.00000  -0.00034  -0.00040  -0.00059
  79        6PZ         0.00032  -0.00001  -0.00011   0.00242  -0.00054
  80        7PX         0.00037   0.00001  -0.00120  -0.00431  -0.00898
  81        7PY        -0.00022   0.00000   0.00070   0.00249   0.00518
  82        7PZ        -0.00055   0.00001   0.00279  -0.00174  -0.00134
  83        8D 0        0.00006   0.00000  -0.00013  -0.00035  -0.00091
  84        8D+1       -0.00001   0.00000   0.00012   0.00043   0.00020
  85        8D-1        0.00000   0.00000  -0.00007  -0.00025  -0.00012
  86        8D+2        0.00001   0.00000   0.00002   0.00027   0.00068
  87        8D-2       -0.00001   0.00000  -0.00003  -0.00047  -0.00119
  88        9D 0        0.00009  -0.00001   0.00003   0.00122   0.00101
  89        9D+1        0.00012   0.00000   0.00005   0.00003  -0.00033
  90        9D-1       -0.00007   0.00000  -0.00003  -0.00002   0.00019
  91        9D+2       -0.00002   0.00000  -0.00048  -0.00113  -0.00207
  92        9D-2        0.00003   0.00000   0.00084   0.00195   0.00358
  93 4   H  1S         -0.00008   0.00000   0.00845   0.03727   0.08054
  94        2S          0.00099  -0.00006   0.01481   0.04378   0.08343
  95        3S          0.00180   0.00004   0.00066  -0.00495  -0.01225
  96        4S          0.00003   0.00000   0.00046   0.00050   0.00038
  97        5PX        -0.00001   0.00000  -0.00092  -0.00346  -0.00747
  98        5PY        -0.00001   0.00000  -0.00053  -0.00200  -0.00431
  99        5PZ        -0.00004   0.00000  -0.00027   0.00096   0.00035
 100        6PX        -0.00007   0.00000  -0.00059  -0.00069  -0.00102
 101        6PY        -0.00004   0.00000  -0.00034  -0.00040  -0.00059
 102        6PZ         0.00032  -0.00001  -0.00011   0.00242  -0.00054
 103        7PX        -0.00038  -0.00001   0.00120   0.00431   0.00898
 104        7PY        -0.00022   0.00000   0.00069   0.00249   0.00518
 105        7PZ        -0.00055   0.00001   0.00279  -0.00174  -0.00134
 106        8D 0        0.00006   0.00000  -0.00013  -0.00035  -0.00090
 107        8D+1        0.00001   0.00000  -0.00012  -0.00043  -0.00020
 108        8D-1        0.00000   0.00000  -0.00007  -0.00025  -0.00012
 109        8D+2        0.00001   0.00000   0.00002   0.00027   0.00069
 110        8D-2        0.00001   0.00000   0.00003   0.00047   0.00119
 111        9D 0        0.00009  -0.00001   0.00003   0.00122   0.00101
 112        9D+1       -0.00012   0.00000  -0.00005  -0.00003   0.00034
 113        9D-1       -0.00007   0.00000  -0.00003  -0.00002   0.00019
 114        9D+2       -0.00002   0.00000  -0.00048  -0.00113  -0.00207
 115        9D-2       -0.00003   0.00000  -0.00084  -0.00195  -0.00358
 116 5   Cl 1S          0.00007   0.99708   0.00063   0.06645  -0.03486
 117        2S         -0.00007   0.01041  -0.00290  -0.25181   0.13103
 118        3S          0.00006   0.00017   0.00388   0.52451  -0.27881
 119        4S          0.00008   0.00026   0.00025   0.06427  -0.03757
 120        5S         -0.00182  -0.00020   0.01219   0.35075  -0.17101
 121        6S         -0.00051  -0.00011   0.00451   0.02440   0.01122
 122        7PX         0.00000   0.00000   0.00000   0.00000   0.00001
 123        7PY         0.00000   0.00000   0.00000   0.00000   0.00001
 124        7PZ         0.00722   0.00016  -0.00151   0.00459   0.02880
 125        8PX         0.00000   0.00000   0.00000   0.00000  -0.00001
 126        8PY         0.00000   0.00000   0.00000   0.00000  -0.00003
 127        8PZ         0.00052  -0.00003   0.00223  -0.00596  -0.07209
 128        9PX         0.00000   0.00000   0.00000   0.00000  -0.00001
 129        9PY         0.00000   0.00000   0.00000   0.00000  -0.00001
 130        9PZ         0.00031   0.00003   0.00261   0.00070  -0.03142
 131       10PX         0.00000   0.00000   0.00000   0.00000  -0.00001
 132       10PY         0.00000   0.00000   0.00000   0.00000  -0.00002
 133       10PZ         0.00097   0.00015  -0.00269   0.00302  -0.05225
 134       11PX         0.00000   0.00000   0.00000   0.00000   0.00000
 135       11PY         0.00000   0.00000   0.00000   0.00000   0.00000
 136       11PZ         0.00002   0.00002   0.00039   0.00262  -0.00871
 137       12D 0       -0.00003   0.00001   0.00035   0.00449   0.00454
 138       12D+1        0.00000   0.00000   0.00000   0.00000   0.00000
 139       12D-1        0.00000   0.00000   0.00000   0.00000   0.00000
 140       12D+2        0.00000   0.00000   0.00000   0.00000   0.00000
 141       12D-2        0.00000   0.00000   0.00000   0.00000   0.00000
 142       13D 0       -0.00022   0.00000   0.00162   0.00821   0.00970
 143       13D+1        0.00000   0.00000   0.00000   0.00000   0.00000
 144       13D-1        0.00000   0.00000   0.00000   0.00001   0.00001
 145       13D+2        0.00000   0.00000   0.00000   0.00000   0.00000
 146       13D-2        0.00000   0.00000   0.00000   0.00000   0.00000
 147       14D 0       -0.00015  -0.00004   0.00183  -0.00017   0.00537
 148       14D+1        0.00000   0.00000   0.00000   0.00000   0.00000
 149       14D-1        0.00000   0.00000   0.00000   0.00000   0.00000
 150       14D+2        0.00000   0.00000   0.00000   0.00000   0.00000
 151       14D-2        0.00000   0.00000   0.00000   0.00000   0.00000
 152       15F 0        0.00005   0.00000  -0.00023  -0.00180  -0.00192
 153       15F+1        0.00000   0.00000   0.00000   0.00000   0.00000
 154       15F-1        0.00000   0.00000   0.00000   0.00000   0.00000
 155       15F+2        0.00000   0.00000   0.00000   0.00000   0.00000
 156       15F-2        0.00000   0.00000   0.00000   0.00000   0.00000
 157       15F+3        0.00000   0.00000   0.00000   0.00000   0.00000
 158       15F-3       -0.00001   0.00000   0.00001   0.00002   0.00009
 159       16F 0       -0.00004   0.00001  -0.00006  -0.00094  -0.00172
 160       16F+1        0.00000   0.00000   0.00000   0.00000   0.00000
 161       16F-1        0.00000   0.00000   0.00000   0.00000   0.00000
 162       16F+2        0.00000   0.00000   0.00000   0.00000   0.00000
 163       16F-2        0.00000   0.00000   0.00000   0.00000   0.00000
 164       16F+3        0.00000   0.00000   0.00000   0.00000   0.00000
 165       16F-3        0.00003   0.00000  -0.00002  -0.00001  -0.00021
 166 6   F  1S          0.97749  -0.00002  -0.21194   0.01299   0.02126
 167        2S         -0.01502   0.00000   0.53172  -0.03364  -0.05640
 168        3S          0.04206   0.00000   0.16476  -0.01068  -0.01822
 169        4S          0.00189  -0.00001   0.36892  -0.02329  -0.04308
 170        5S         -0.00086  -0.00006   0.04541   0.00422   0.00785
 171        6PX         0.00000   0.00000   0.00000   0.00000   0.00002
 172        6PY         0.00000   0.00000  -0.00001   0.00001   0.00004
 173        6PZ         0.00047   0.00000  -0.01347   0.01258   0.08710
 174        7PX         0.00000   0.00000   0.00000   0.00000   0.00002
 175        7PY         0.00000   0.00000  -0.00001   0.00001   0.00004
 176        7PZ        -0.00013   0.00000  -0.01472   0.01536   0.10477
 177        8PX         0.00000   0.00000   0.00000   0.00000   0.00002
 178        8PY         0.00000   0.00000  -0.00001   0.00001   0.00004
 179        8PZ         0.00237  -0.00001  -0.01235   0.01223   0.08353
 180        9PX         0.00000   0.00000   0.00000   0.00000   0.00000
 181        9PY         0.00000   0.00000   0.00000   0.00000   0.00001
 182        9PZ        -0.00009  -0.00002  -0.00214   0.00317   0.02433
 183       10D 0       -0.00002   0.00000   0.00012   0.00017   0.00058
 184       10D+1        0.00000   0.00000   0.00000   0.00000   0.00000
 185       10D-1        0.00000   0.00000   0.00000   0.00000   0.00000
 186       10D+2        0.00000   0.00000   0.00000   0.00000   0.00000
 187       10D-2        0.00000   0.00000   0.00000   0.00000   0.00000
 188       11D 0       -0.00003   0.00000   0.00102   0.00090   0.00271
 189       11D+1        0.00000   0.00000   0.00000   0.00000   0.00000
 190       11D-1        0.00000   0.00000   0.00000   0.00000   0.00000
 191       11D+2        0.00000   0.00000   0.00000   0.00000   0.00000
 192       11D-2        0.00000   0.00000   0.00000   0.00000   0.00000
 193       12D 0        0.00079   0.00000   0.00058   0.00037   0.00386
 194       12D+1        0.00000   0.00000   0.00000   0.00000   0.00000
 195       12D-1        0.00000   0.00000   0.00000   0.00000   0.00000
 196       12D+2        0.00000   0.00000   0.00000   0.00000   0.00000
 197       12D-2        0.00000   0.00000   0.00000   0.00000   0.00000
 198       13F 0       -0.00006   0.00000   0.00001   0.00013   0.00026
 199       13F+1        0.00000   0.00000   0.00000   0.00000   0.00000
 200       13F-1        0.00000   0.00000   0.00000   0.00000   0.00000
 201       13F+2        0.00000   0.00000   0.00000   0.00000   0.00000
 202       13F-2        0.00000   0.00000   0.00000   0.00000   0.00000
 203       13F+3        0.00000   0.00000   0.00000   0.00000   0.00000
 204       13F-3        0.00001   0.00000  -0.00001   0.00002   0.00003
 205       14F 0        0.00020   0.00000   0.00040  -0.00006   0.00064
 206       14F+1        0.00000   0.00000   0.00000   0.00000   0.00000
 207       14F-1        0.00000   0.00000   0.00000   0.00000   0.00000
 208       14F+2        0.00000   0.00000   0.00000   0.00000   0.00000
 209       14F-2        0.00000   0.00000   0.00000   0.00000   0.00000
 210       14F+3        0.00000   0.00000   0.00000   0.00000   0.00000
 211       14F-3       -0.00001   0.00000   0.00007  -0.00006  -0.00009
                          11        12        13        14        15
     Eigenvalues --     1.96431   1.96431   1.95924   1.95924   1.94911
   1 1   C  1S          0.00000   0.00000   0.00000   0.00000   0.00000
   2        2S          0.00000   0.00000   0.00000   0.00000   0.00001
   3        3S          0.00000   0.00000   0.00000   0.00000   0.00000
   4        4S          0.00000   0.00000   0.00000   0.00000   0.00002
   5        5S          0.00000   0.00000   0.00000   0.00000   0.00000
   6        6PX         0.02510   0.09493   0.21436  -0.08587   0.05497
   7        6PY         0.09494  -0.02510   0.08587   0.21436   0.04002
   8        6PZ        -0.00005  -0.00001  -0.00008  -0.00008  -0.00002
   9        7PX         0.03363   0.12719   0.28408  -0.11380   0.07638
  10        7PY         0.12719  -0.03363   0.11380   0.28408   0.05562
  11        7PZ        -0.00006  -0.00001  -0.00010  -0.00010  -0.00003
  12        8PX         0.02457   0.09291   0.21918  -0.08780   0.05867
  13        8PY         0.09291  -0.02457   0.08780   0.21918   0.04272
  14        8PZ        -0.00004  -0.00001  -0.00008  -0.00008  -0.00003
  15        9PX        -0.00053  -0.00200   0.01748  -0.00700   0.00986
  16        9PY        -0.00200   0.00053   0.00700   0.01748   0.00718
  17        9PZ         0.00000   0.00000  -0.00001  -0.00001   0.00000
  18       10D 0        0.00000   0.00000   0.00000   0.00000   0.00000
  19       10D+1       -0.00069  -0.00259  -0.00120   0.00048  -0.00302
  20       10D-1       -0.00259   0.00068  -0.00048  -0.00119  -0.00220
  21       10D+2        0.00606  -0.00160   0.00551   0.01375   0.00296
  22       10D-2        0.00160   0.00606   0.01374  -0.00551   0.00406
  23       11D 0        0.00001   0.00000   0.00000  -0.00001   0.00001
  24       11D+1       -0.00318  -0.01200   0.00706  -0.00284  -0.01253
  25       11D-1       -0.01199   0.00317   0.00284   0.00710  -0.00911
  26       11D+2        0.01995  -0.00527   0.01685   0.04201   0.01005
  27       11D-2        0.00526   0.01994   0.04202  -0.01685   0.01378
  28       12D 0        0.00000   0.00000   0.00000   0.00000   0.00000
  29       12D+1       -0.00156  -0.00589   0.00527  -0.00212   0.00095
  30       12D-1       -0.00588   0.00155   0.00212   0.00530   0.00069
  31       12D+2        0.01927  -0.00509   0.01340   0.03340   0.00593
  32       12D-2        0.00508   0.01926   0.03341  -0.01340   0.00814
  33       13F 0        0.00000   0.00000   0.00000   0.00000   0.00000
  34       13F+1        0.00005   0.00021  -0.00184   0.00074  -0.00180
  35       13F-1        0.00021  -0.00005  -0.00074  -0.00184  -0.00131
  36       13F+2       -0.00060   0.00016  -0.00005  -0.00012  -0.00020
  37       13F-2       -0.00016  -0.00060  -0.00012   0.00005  -0.00027
  38       13F+3        0.00000   0.00000   0.00000   0.00000   0.00000
  39       13F-3        0.00000   0.00000   0.00000   0.00000   0.00000
  40       14F 0        0.00000   0.00000   0.00000   0.00001   0.00001
  41       14F+1        0.00008   0.00029  -0.00545   0.00218  -0.00586
  42       14F-1        0.00029  -0.00007  -0.00218  -0.00545  -0.00427
  43       14F+2       -0.00363   0.00096  -0.00004  -0.00009  -0.00191
  44       14F-2       -0.00096  -0.00363  -0.00010   0.00004  -0.00262
  45       14F+3        0.00000   0.00000   0.00000   0.00000   0.00000
  46       14F-3        0.00000   0.00000   0.00000   0.00000   0.00000
  47 2   H  1S         -0.06528   0.01725  -0.05634  -0.14060  -0.02755
  48        2S         -0.05907   0.01561  -0.05743  -0.14331  -0.02714
  49        3S          0.05546  -0.01466   0.04444   0.11090   0.00309
  50        4S         -0.00568   0.00150   0.00647   0.01614   0.00064
  51        5PX         0.00053   0.00202   0.00406  -0.00163   0.00086
  52        5PY        -0.00513   0.00135  -0.00461  -0.01150  -0.00212
  53        5PZ         0.00001   0.00000  -0.00104  -0.00259   0.00011
  54        6PX         0.00205   0.00774   0.01264  -0.00506   0.00302
  55        6PY         0.00695  -0.00184   0.00415   0.01037   0.00329
  56        6PZ        -0.00254   0.00067   0.00014   0.00037  -0.00069
  57        7PX         0.00234   0.00884   0.01241  -0.00496   0.00226
  58        7PY         0.01358  -0.00359   0.01694   0.04228   0.00568
  59        7PZ         0.00067  -0.00018   0.00280   0.00699   0.00171
  60        8D 0        0.00039  -0.00010   0.00050   0.00126   0.00024
  61        8D+1        0.00000   0.00002   0.00029  -0.00012  -0.00003
  62        8D-1       -0.00070   0.00019  -0.00009  -0.00022  -0.00017
  63        8D+2        0.00058  -0.00015   0.00072   0.00179   0.00031
  64        8D-2        0.00027   0.00102   0.00208  -0.00083   0.00049
  65        9D 0       -0.00056   0.00015   0.00055   0.00139  -0.00009
  66        9D+1       -0.00039  -0.00147   0.00093  -0.00037  -0.00096
  67        9D-1       -0.00314   0.00083   0.00126   0.00315  -0.00027
  68        9D+2       -0.00156   0.00041  -0.00099  -0.00246  -0.00063
  69        9D-2        0.00042   0.00159   0.00266  -0.00107   0.00091
  70 3   H  1S          0.01770  -0.06516  -0.09359   0.11910  -0.01898
  71        2S          0.01602  -0.05897  -0.09539   0.12139  -0.01870
  72        3S         -0.01504   0.05535   0.07382  -0.09394   0.00213
  73        4S          0.00154  -0.00567   0.01074  -0.01367   0.00044
  74        5PX         0.00221  -0.00416  -0.00491   0.00978  -0.00078
  75        5PY         0.00105   0.00303   0.00680  -0.00253   0.00157
  76        5PZ         0.00000   0.00001  -0.00173   0.00220   0.00007
  77        6PX         0.00223   0.00706   0.01133  -0.00340   0.00367
  78        6PY         0.00763  -0.00165   0.00582   0.01168   0.00183
  79        6PZ         0.00068  -0.00253   0.00024  -0.00032  -0.00048
  80        7PX         0.00122   0.01294   0.02962  -0.02688   0.00466
  81        7PY         0.00948  -0.00470  -0.00497   0.02505   0.00025
  82        7PZ        -0.00019   0.00068   0.00466  -0.00595   0.00118
  83        8D 0       -0.00011   0.00039   0.00084  -0.00107   0.00016
  84        8D+1        0.00017  -0.00061  -0.00001   0.00026  -0.00012
  85        8D-1       -0.00008   0.00036   0.00029   0.00007   0.00004
  86        8D+2        0.00096  -0.00005   0.00093   0.00196   0.00037
  87        8D-2        0.00037   0.00064   0.00191  -0.00062   0.00046
  88        9D 0        0.00015  -0.00056   0.00092  -0.00118  -0.00006
  89        9D+1        0.00000  -0.00291   0.00221  -0.00200  -0.00070
  90        9D-1       -0.00170   0.00122  -0.00036   0.00187  -0.00084
  91        9D+2        0.00116   0.00115   0.00277   0.00049   0.00111
  92        9D-2        0.00116  -0.00113  -0.00029   0.00269   0.00014
  93 4   H  1S          0.04758   0.04791   0.14994   0.02151   0.04653
  94        2S          0.04306   0.04335   0.15282   0.02192   0.04584
  95        3S         -0.04042  -0.04070  -0.11826  -0.01696  -0.00521
  96        4S          0.00414   0.00417  -0.01721  -0.00247  -0.00107
  97        5PX        -0.00398  -0.00252  -0.01031  -0.00369  -0.00316
  98        5PY        -0.00058  -0.00316  -0.00667   0.00287  -0.00169
  99        5PZ        -0.00001  -0.00001   0.00277   0.00040  -0.00018
 100        6PX         0.00155   0.00724   0.01055  -0.00536   0.00462
 101        6PY         0.00745  -0.00233   0.00385   0.01246   0.00312
 102        6PZ         0.00185   0.00186  -0.00040  -0.00006   0.00116
 103        7PX         0.00533   0.01185   0.03999  -0.00101   0.00816
 104        7PY         0.01057  -0.00060   0.02089   0.01469   0.00505
 105        7PZ        -0.00050  -0.00050  -0.00749  -0.00108  -0.00290
 106        8D 0       -0.00029  -0.00029  -0.00134  -0.00019  -0.00040
 107        8D+1       -0.00045  -0.00044  -0.00019  -0.00019  -0.00025
 108        8D-1       -0.00025  -0.00027  -0.00016   0.00025  -0.00015
 109        8D+2        0.00086  -0.00043   0.00068   0.00206   0.00031
 110        8D-2        0.00000   0.00074   0.00181  -0.00087   0.00042
 111        9D 0        0.00041   0.00041  -0.00148  -0.00021   0.00015
 112        9D+1       -0.00144  -0.00253   0.00298  -0.00008  -0.00034
 113        9D-1       -0.00208  -0.00022   0.00156   0.00110  -0.00034
 114        9D+2        0.00044  -0.00157  -0.00167   0.00227  -0.00043
 115        9D-2       -0.00157  -0.00041  -0.00207  -0.00175  -0.00098
 116 5   Cl 1S          0.00000   0.00000   0.00000   0.00000   0.00000
 117        2S          0.00000   0.00000   0.00000   0.00000   0.00000
 118        3S          0.00000   0.00000   0.00000   0.00000   0.00000
 119        4S          0.00000   0.00000   0.00000   0.00000   0.00000
 120        5S          0.00000   0.00000   0.00000   0.00000   0.00000
 121        6S          0.00000   0.00000   0.00000   0.00000   0.00000
 122        7PX        -0.00228  -0.00863  -0.04044   0.01620   0.18078
 123        7PY        -0.00863   0.00228  -0.01620  -0.04044   0.13163
 124        7PZ         0.00000   0.00000   0.00001   0.00001  -0.00009
 125        8PX         0.00540   0.02043   0.09558  -0.03829  -0.41363
 126        8PY         0.02043  -0.00540   0.03829   0.09558  -0.30118
 127        8PZ        -0.00001   0.00000  -0.00003  -0.00003   0.00021
 128        9PX         0.00251   0.00948   0.04421  -0.01771  -0.19980
 129        9PY         0.00948  -0.00251   0.01771   0.04421  -0.14548
 130        9PZ         0.00000   0.00000  -0.00002  -0.00002   0.00010
 131       10PX         0.00271   0.01025   0.05175  -0.02073  -0.29714
 132       10PY         0.01025  -0.00271   0.02073   0.05175  -0.21636
 133       10PZ         0.00000   0.00000  -0.00002  -0.00002   0.00015
 134       11PX         0.00053   0.00201   0.00314  -0.00126  -0.05000
 135       11PY         0.00201  -0.00053   0.00126   0.00314  -0.03641
 136       11PZ         0.00000   0.00000   0.00000   0.00000   0.00003
 137       12D 0        0.00000   0.00000   0.00000   0.00000   0.00000
 138       12D+1       -0.00049  -0.00184  -0.00573   0.00230   0.00018
 139       12D-1       -0.00184   0.00049  -0.00230  -0.00573   0.00013
 140       12D+2        0.00011  -0.00003   0.00020   0.00051   0.00014
 141       12D-2        0.00003   0.00011   0.00050  -0.00020   0.00020
 142       13D 0        0.00000   0.00000   0.00001   0.00001   0.00000
 143       13D+1       -0.00075  -0.00284  -0.01018   0.00408   0.00055
 144       13D-1       -0.00284   0.00075  -0.00408  -0.01018   0.00040
 145       13D+2        0.00031  -0.00008   0.00024   0.00060   0.00033
 146       13D-2        0.00008   0.00031   0.00059  -0.00024   0.00045
 147       14D 0        0.00000   0.00000   0.00000   0.00000   0.00000
 148       14D+1        0.00001   0.00003   0.00001   0.00000   0.00271
 149       14D-1        0.00003  -0.00001   0.00000   0.00001   0.00197
 150       14D+2       -0.00064   0.00017  -0.00003  -0.00006   0.00004
 151       14D-2       -0.00017  -0.00064  -0.00006   0.00003   0.00005
 152       15F 0        0.00000   0.00000   0.00000   0.00000   0.00000
 153       15F+1        0.00023   0.00086   0.00244  -0.00098  -0.00115
 154       15F-1        0.00086  -0.00023   0.00098   0.00243  -0.00083
 155       15F+2       -0.00011   0.00003  -0.00013  -0.00032  -0.00006
 156       15F-2       -0.00003  -0.00011  -0.00031   0.00013  -0.00008
 157       15F+3        0.00000   0.00000   0.00000   0.00000   0.00000
 158       15F-3        0.00000   0.00000   0.00000   0.00000   0.00000
 159       16F 0        0.00000   0.00000   0.00000   0.00000   0.00000
 160       16F+1        0.00015   0.00059   0.00189  -0.00076  -0.00146
 161       16F-1        0.00059  -0.00015   0.00076   0.00189  -0.00106
 162       16F+2        0.00003  -0.00001   0.00007   0.00017  -0.00012
 163       16F-2        0.00001   0.00003   0.00017  -0.00007  -0.00016
 164       16F+3        0.00000   0.00000   0.00000   0.00000   0.00000
 165       16F-3        0.00000   0.00000   0.00000   0.00000   0.00000
 166 6   F  1S          0.00000   0.00000   0.00000   0.00000   0.00000
 167        2S          0.00000   0.00000   0.00000   0.00000   0.00000
 168        3S          0.00000   0.00000   0.00000   0.00000   0.00000
 169        4S          0.00000   0.00000   0.00000   0.00000   0.00000
 170        5S          0.00000   0.00000   0.00000   0.00000   0.00000
 171        6PX         0.08487   0.32099  -0.15059   0.06032  -0.01813
 172        6PY         0.32099  -0.08487  -0.06032  -0.15059  -0.01320
 173        6PZ        -0.00016  -0.00002   0.00005   0.00006  -0.00001
 174        7PX         0.10124   0.38287  -0.17856   0.07153  -0.02146
 175        7PY         0.38287  -0.10124  -0.07153  -0.17856  -0.01563
 176        7PZ        -0.00019  -0.00002   0.00006   0.00007  -0.00001
 177        8PX         0.08186   0.30959  -0.15006   0.06011  -0.01837
 178        8PY         0.30959  -0.08186  -0.06011  -0.15006  -0.01337
 179        8PZ        -0.00016  -0.00001   0.00005   0.00006  -0.00001
 180        9PX         0.02582   0.09765  -0.05297   0.02122  -0.00893
 181        9PY         0.09765  -0.02582  -0.02122  -0.05297  -0.00651
 182        9PZ        -0.00005   0.00000   0.00002   0.00002   0.00000
 183       10D 0        0.00000   0.00000   0.00000   0.00000   0.00000
 184       10D+1        0.00015   0.00057   0.00008  -0.00003   0.00009
 185       10D-1        0.00057  -0.00015   0.00003   0.00008   0.00007
 186       10D+2        0.00002  -0.00001   0.00001   0.00003   0.00001
 187       10D-2        0.00001   0.00002   0.00003  -0.00001   0.00001
 188       11D 0        0.00000   0.00000   0.00000   0.00000   0.00000
 189       11D+1        0.00061   0.00230   0.00112  -0.00045   0.00048
 190       11D-1        0.00230  -0.00061   0.00045   0.00112   0.00035
 191       11D+2        0.00005  -0.00001   0.00009   0.00023   0.00010
 192       11D-2        0.00001   0.00005   0.00023  -0.00009   0.00014
 193       12D 0        0.00000   0.00000   0.00000   0.00000   0.00000
 194       12D+1        0.00150   0.00568  -0.00328   0.00131   0.00025
 195       12D-1        0.00568  -0.00150  -0.00131  -0.00328   0.00018
 196       12D+2        0.00002   0.00000  -0.00010  -0.00025  -0.00021
 197       12D-2        0.00001   0.00003  -0.00026   0.00010  -0.00029
 198       13F 0        0.00000   0.00000   0.00000   0.00000   0.00000
 199       13F+1        0.00005   0.00020   0.00023  -0.00009   0.00005
 200       13F-1        0.00020  -0.00005   0.00009   0.00023   0.00004
 201       13F+2        0.00005  -0.00001   0.00004   0.00010   0.00004
 202       13F-2        0.00001   0.00005   0.00010  -0.00004   0.00005
 203       13F+3        0.00000   0.00000   0.00000   0.00000   0.00000
 204       13F-3        0.00000   0.00000   0.00000   0.00000   0.00000
 205       14F 0        0.00000   0.00000   0.00000   0.00000   0.00000
 206       14F+1        0.00037   0.00140  -0.00079   0.00031   0.00001
 207       14F-1        0.00139  -0.00037  -0.00031  -0.00079   0.00001
 208       14F+2       -0.00012   0.00003  -0.00009  -0.00021  -0.00009
 209       14F-2       -0.00003  -0.00012  -0.00022   0.00009  -0.00013
 210       14F+3        0.00000   0.00000   0.00000   0.00000   0.00000
 211       14F-3        0.00000   0.00000   0.00000   0.00000   0.00000
                          16        17        18        19        20
     Eigenvalues --     1.94911   1.94889   1.93518   0.06026   0.02497
   1 1   C  1S          0.00001   0.05322  -0.01559  -0.02429   0.00000
   2        2S         -0.00002  -0.15144   0.05040   0.06741  -0.00001
   3        3S         -0.00001  -0.03575   0.01663   0.02455  -0.00001
   4        4S         -0.00004  -0.28847   0.08620  -0.22725   0.00003
   5        5S         -0.00001  -0.05713   0.03862  -0.02980   0.00000
   6        6PX         0.04003  -0.00001  -0.00002   0.00005   0.02227
   7        6PY        -0.05497  -0.00001  -0.00006   0.00012   0.15167
   8        6PZ         0.00001  -0.04450  -0.12925   0.27916  -0.00007
   9        7PX         0.05562  -0.00002  -0.00003   0.00008   0.04140
  10        7PY        -0.07638  -0.00001  -0.00008   0.00019   0.28202
  11        7PZ         0.00001  -0.06311  -0.18138   0.44349  -0.00013
  12        8PX         0.04272  -0.00001  -0.00001   0.00004   0.01910
  13        8PY        -0.05867  -0.00002  -0.00003   0.00009   0.13010
  14        8PZ         0.00001  -0.06352  -0.07740   0.20006  -0.00006
  15        9PX         0.00718   0.00000   0.00000   0.00000   0.00421
  16        9PY        -0.00986   0.00000   0.00000   0.00000   0.02867
  17        9PZ         0.00000  -0.00123  -0.00173  -0.00014  -0.00001
  18       10D 0        0.00000   0.00926  -0.01102  -0.00892  -0.00002
  19       10D+1       -0.00220   0.00000   0.00000   0.00000   0.00365
  20       10D-1        0.00302   0.00001  -0.00001  -0.00001   0.02485
  21       10D+2       -0.00406   0.00000   0.00000   0.00000   0.00390
  22       10D-2        0.00296   0.00000   0.00000   0.00000   0.00058
  23       11D 0        0.00000   0.04925  -0.04552   0.06723  -0.00005
  24       11D+1       -0.00912   0.00002  -0.00001   0.00002   0.00850
  25       11D-1        0.01251   0.00004  -0.00003   0.00005   0.05801
  26       11D+2       -0.01379   0.00000   0.00000   0.00000   0.06953
  27       11D-2        0.01004   0.00000   0.00000   0.00000   0.01020
  28       12D 0        0.00000   0.02770  -0.00380  -0.01608  -0.00001
  29       12D+1        0.00069   0.00001   0.00000   0.00000   0.00271
  30       12D-1       -0.00095   0.00002   0.00000  -0.00001   0.01848
  31       12D+2       -0.00814   0.00000   0.00000   0.00000   0.01483
  32       12D-2        0.00593   0.00000   0.00000   0.00000   0.00218
  33       13F 0        0.00000  -0.00196  -0.00329  -0.00571   0.00001
  34       13F+1       -0.00131   0.00000   0.00000   0.00000  -0.00139
  35       13F-1        0.00180   0.00000   0.00000  -0.00001  -0.00943
  36       13F+2        0.00027   0.00000   0.00000   0.00000   0.00300
  37       13F-2       -0.00020   0.00000   0.00000   0.00000   0.00043
  38       13F+3        0.00000   0.00000   0.00000   0.00000   0.00000
  39       13F-3        0.00000  -0.00305   0.00114  -0.00056   0.00000
  40       14F 0       -0.00001  -0.00535  -0.00089   0.01110   0.00000
  41       14F+1       -0.00427   0.00000   0.00000   0.00000  -0.00037
  42       14F-1        0.00587  -0.00001   0.00000   0.00001  -0.00250
  43       14F+2        0.00261   0.00001   0.00000   0.00002  -0.00235
  44       14F-2       -0.00191   0.00000   0.00000   0.00001  -0.00035
  45       14F+3        0.00000  -0.00001   0.00000  -0.00001   0.00000
  46       14F-3        0.00000  -0.01491   0.00911  -0.03793   0.00000
  47 2   H  1S          0.03782  -0.03369   0.02873  -0.00658   0.03942
  48        2S          0.03726  -0.00353   0.02280   0.08110   0.25415
  49        3S         -0.00424   0.02127   0.02012   0.06992   0.16461
  50        4S         -0.00087   0.00011   0.00189   0.00721   0.07197
  51        5PX         0.00062   0.00000   0.00000   0.00000   0.00039
  52        5PY         0.00291  -0.00216   0.00248  -0.00195  -0.00863
  53        5PZ        -0.00015  -0.00265  -0.00323   0.01426  -0.01188
  54        6PX         0.00220   0.00000   0.00000   0.00001   0.00111
  55        6PY        -0.00452   0.00540  -0.00151   0.00994   0.05837
  56        6PZ         0.00095  -0.00101  -0.01033   0.02832  -0.00598
  57        7PX         0.00164   0.00000   0.00000   0.00000  -0.00019
  58        7PY        -0.00779   0.01088  -0.00161   0.01297   0.05040
  59        7PZ        -0.00235   0.00798   0.00324  -0.01378   0.00496
  60        8D 0       -0.00033   0.00017  -0.00084   0.00057   0.00253
  61        8D+1       -0.00002   0.00000   0.00000   0.00000   0.00026
  62        8D-1        0.00024  -0.00019  -0.00171   0.00677  -0.00395
  63        8D+2       -0.00042   0.00053  -0.00060   0.00187   0.00251
  64        8D-2        0.00035   0.00000   0.00000   0.00000   0.00030
  65        9D 0        0.00012   0.00085  -0.00281   0.00585  -0.00305
  66        9D+1       -0.00070   0.00000   0.00000   0.00000   0.00065
  67        9D-1        0.00038   0.00201  -0.00055  -0.00583   0.01497
  68        9D+2        0.00087   0.00105   0.00035  -0.00104  -0.00937
  69        9D-2        0.00066   0.00000   0.00000   0.00000   0.00018
  70 3   H  1S         -0.04277  -0.03368   0.02873  -0.00657  -0.01470
  71        2S         -0.04213  -0.00352   0.02280   0.08110  -0.09480
  72        3S          0.00480   0.02127   0.02012   0.06991  -0.06140
  73        4S          0.00099   0.00011   0.00189   0.00721  -0.02684
  74        5PX        -0.00307  -0.00187   0.00215  -0.00169   0.00406
  75        5PY         0.00127   0.00108  -0.00124   0.00098   0.00060
  76        5PZ         0.00016  -0.00265  -0.00323   0.01426   0.00443
  77        6PX         0.00367   0.00467  -0.00130   0.00860  -0.01533
  78        6PY        -0.00387  -0.00270   0.00075  -0.00495   0.01699
  79        6PZ        -0.00107  -0.00100  -0.01033   0.02832   0.00221
  80        7PX         0.00707   0.00942  -0.00140   0.01123  -0.01693
  81        7PY        -0.00539  -0.00544   0.00081  -0.00650   0.00828
  82        7PZ         0.00266   0.00798   0.00324  -0.01377  -0.00186
  83        8D 0        0.00037   0.00017  -0.00085   0.00057  -0.00094
  84        8D+1       -0.00023  -0.00017  -0.00148   0.00586   0.00210
  85        8D-1        0.00015   0.00010   0.00086  -0.00338   0.00069
  86        8D+2       -0.00045  -0.00026   0.00030  -0.00093   0.00215
  87        8D-2        0.00029   0.00046  -0.00052   0.00162   0.00016
  88        9D 0       -0.00013   0.00086  -0.00281   0.00584   0.00113
  89        9D+1       -0.00013   0.00174  -0.00047  -0.00505  -0.00276
  90        9D-1        0.00063  -0.00100   0.00027   0.00292   0.00639
  91        9D+2        0.00009  -0.00053  -0.00018   0.00052  -0.00077
  92        9D-2       -0.00108   0.00091   0.00030  -0.00090   0.00359
  93 4   H  1S          0.00494  -0.03368   0.02873  -0.00657  -0.02471
  94        2S          0.00487  -0.00352   0.02280   0.08110  -0.15936
  95        3S         -0.00055   0.02127   0.02012   0.06992  -0.10322
  96        4S         -0.00011   0.00011   0.00189   0.00721  -0.04513
  97        5PX         0.00020   0.00187  -0.00215   0.00169  -0.00576
  98        5PY        -0.00110   0.00108  -0.00124   0.00098  -0.00084
  99        5PZ        -0.00002  -0.00265  -0.00323   0.01426   0.00745
 100        6PX         0.00237  -0.00467   0.00130  -0.00859   0.02873
 101        6PY        -0.00293  -0.00270   0.00075  -0.00495   0.02345
 102        6PZ         0.00012  -0.00100  -0.01033   0.02833   0.00371
 103        7PX         0.00227  -0.00942   0.00140  -0.01124   0.02792
 104        7PY        -0.00189  -0.00543   0.00081  -0.00649   0.01485
 105        7PZ        -0.00031   0.00799   0.00324  -0.01377  -0.00314
 106        8D 0       -0.00004   0.00017  -0.00085   0.00058  -0.00158
 107        8D+1       -0.00004   0.00017   0.00148  -0.00586  -0.00284
 108        8D-1        0.00001   0.00010   0.00086  -0.00338  -0.00003
 109        8D+2       -0.00049  -0.00026   0.00030  -0.00094   0.00221
 110        8D-2        0.00035  -0.00046   0.00052  -0.00162   0.00054
 111        9D 0        0.00002   0.00086  -0.00281   0.00584   0.00190
 112        9D+1       -0.00063  -0.00174   0.00047   0.00505   0.00639
 113        9D-1        0.00099  -0.00100   0.00027   0.00292   0.00773
 114        9D+2       -0.00102  -0.00053  -0.00018   0.00052  -0.00211
 115        9D-2        0.00046  -0.00091  -0.00030   0.00091  -0.00556
 116 5   Cl 1S          0.00000   0.01017   0.00054  -0.01680   0.00000
 117        2S         -0.00001  -0.03883  -0.00183   0.05625   0.00000
 118        3S          0.00001   0.08019   0.01160  -0.15696   0.00000
 119        4S          0.00000   0.01236   0.00459  -0.03982   0.00000
 120        5S          0.00001   0.06877   0.01273  -0.04558   0.00000
 121        6S          0.00000   0.02042  -0.01229   0.01641   0.00000
 122        7PX         0.13163   0.00000  -0.00004  -0.00003   0.00301
 123        7PY        -0.18078   0.00004  -0.00009  -0.00007   0.02048
 124        7PZ         0.00006   0.02713  -0.20995  -0.16388  -0.00001
 125        8PX        -0.30118   0.00001   0.00008   0.00006  -0.00468
 126        8PY         0.41363  -0.00010   0.00020   0.00016  -0.03191
 127        8PZ        -0.00014  -0.06328   0.46414   0.36165   0.00001
 128        9PX        -0.14548   0.00000   0.00004   0.00004  -0.00500
 129        9PY         0.19980  -0.00005   0.00009   0.00009  -0.03404
 130        9PZ        -0.00007  -0.03152   0.21802   0.20701   0.00001
 131       10PX        -0.21636   0.00000   0.00006   0.00001   0.00238
 132       10PY         0.29714  -0.00009   0.00014   0.00001   0.01624
 133       10PZ        -0.00010  -0.07278   0.31698   0.02851  -0.00001
 134       11PX        -0.03641   0.00000   0.00001   0.00000   0.00089
 135       11PY         0.05000  -0.00002   0.00002   0.00000   0.00608
 136       11PZ        -0.00002  -0.02399   0.04575   0.00715   0.00000
 137       12D 0        0.00000  -0.00464  -0.01247   0.06741   0.00004
 138       12D+1        0.00013   0.00000   0.00000   0.00002  -0.00823
 139       12D-1       -0.00018   0.00000  -0.00001   0.00005  -0.05604
 140       12D+2       -0.00020   0.00000   0.00000   0.00000   0.00095
 141       12D-2        0.00014   0.00000   0.00000   0.00000   0.00012
 142       13D 0        0.00000  -0.00742  -0.01952   0.09802   0.00006
 143       13D+1        0.00040   0.00000  -0.00001   0.00003  -0.01228
 144       13D-1       -0.00055  -0.00001  -0.00001   0.00007  -0.08365
 145       13D+2       -0.00045   0.00000   0.00000   0.00000   0.00150
 146       13D-2        0.00033   0.00000   0.00000   0.00000   0.00019
 147       14D 0        0.00000   0.00157  -0.01327   0.03050   0.00001
 148       14D+1        0.00197   0.00000   0.00000   0.00001  -0.00134
 149       14D-1       -0.00271   0.00000  -0.00001   0.00002  -0.00910
 150       14D+2       -0.00005   0.00000   0.00000   0.00000   0.00035
 151       14D-2        0.00004   0.00000   0.00000   0.00000   0.00005
 152       15F 0        0.00000   0.00096   0.00462  -0.00354  -0.00001
 153       15F+1       -0.00083   0.00000   0.00000   0.00000   0.00071
 154       15F-1        0.00115   0.00000   0.00000   0.00000   0.00483
 155       15F+2        0.00008   0.00000   0.00000   0.00000  -0.00019
 156       15F-2       -0.00006   0.00000   0.00000   0.00000  -0.00003
 157       15F+3        0.00000   0.00000   0.00000   0.00000   0.00000
 158       15F-3        0.00000  -0.00007   0.00004   0.00004   0.00000
 159       16F 0        0.00000   0.00135   0.00404   0.00158   0.00000
 160       16F+1       -0.00106   0.00000   0.00000   0.00000   0.00004
 161       16F-1        0.00146   0.00000   0.00000   0.00000   0.00026
 162       16F+2        0.00016   0.00000   0.00000   0.00000   0.00087
 163       16F-2       -0.00012   0.00000   0.00000   0.00000   0.00013
 164       16F+3        0.00000   0.00000   0.00000   0.00000   0.00000
 165       16F-3        0.00000   0.00014  -0.00014   0.00033   0.00000
 166 6   F  1S          0.00000  -0.01170   0.01213  -0.02170   0.00000
 167        2S          0.00000   0.02575  -0.03285   0.06369   0.00000
 168        3S          0.00000   0.00785  -0.01091   0.03253   0.00000
 169        4S          0.00000   0.01670  -0.03355   0.01337   0.00000
 170        5S          0.00000   0.00498  -0.01592  -0.00048   0.00000
[...]
  79        6PZ        -0.33548  -0.03315  -0.00221  -0.16374  -0.06812
  80        7PX         1.00492  -7.76519  -6.05668  -1.74863  -4.20856
  81        7PY        -0.58961   5.62423  -8.70133   1.01016  -1.28994
  82        7PZ        -1.51280  -3.36778  -0.30917   0.04731  -0.32688
  83        8D 0       -0.03559   0.01125   0.00111   0.02582   0.00756
  84        8D+1        0.01027  -0.01877  -0.02336   0.00808   0.00789
  85        8D-1       -0.00593   0.01546  -0.03584  -0.00462   0.00138
  86        8D+2        0.06239  -0.01323   0.10273   0.02374   0.01510
  87        8D-2       -0.10796   0.00063   0.06012  -0.04114   0.02748
  88        9D 0       -0.49027   0.47192   0.04418  -0.14830   0.10690
  89        9D+1       -0.22393  -0.19394   0.18057  -0.03456  -0.13808
  90        9D-1        0.12904   0.06936   0.34853   0.01943  -0.01798
  91        9D+2       -0.12325  -0.52264  -1.64739  -0.35765  -0.51206
  92        9D-2        0.21089   1.24808  -0.80553   0.61987  -0.16862
  93 4   H  1S         -0.03406  -0.00461  -0.00997  -0.00869   0.01569
  94        2S          0.18546   1.44134   3.14008  -0.55304  -1.30656
  95        3S          7.15145  11.72475  25.52765  -3.30233 -15.33688
  96        4S          1.55459  -0.76375  -1.66755  -1.95913  -6.60578
  97        5PX        -0.02847   0.08662   0.06268  -0.08061  -0.08118
  98        5PY        -0.01629  -0.06043   0.08686  -0.04652   0.00188
  99        5PZ         0.06021   0.00428   0.00910   0.03076   0.00640
 100        6PX        -0.54049  -1.52921  -1.57350   0.61712   0.88466
 101        6PY        -0.31377   0.65582  -1.61435   0.35619   0.02467
 102        6PZ        -0.33532   0.01341   0.03097  -0.16395  -0.10051
 103        7PX        -0.99931  -8.28205  -5.32699   1.74865   5.23411
 104        7PY        -0.58985   6.35374  -8.18393   1.00971  -0.25605
 105        7PZ        -1.51442   1.40750   3.07737   0.04679  -0.48285
 106        8D 0       -0.03557  -0.00477  -0.01026   0.02582   0.01112
 107        8D+1       -0.01030  -0.02822  -0.01002  -0.00807  -0.01008
 108        8D-1       -0.00597   0.02869  -0.02643  -0.00463  -0.00058
 109        8D+2        0.06248  -0.09252   0.04647   0.02376   0.00851
 110        8D-2        0.10791   0.05706  -0.01927   0.04112  -0.03249
 111        9D 0       -0.49017  -0.19808  -0.43080  -0.14832   0.15686
 112        9D+1        0.22375   0.10558  -0.24287   0.03459   0.17832
 113        9D-1        0.12924  -0.35169   0.04940   0.01963   0.01668
 114        9D+2       -0.12417   1.72731  -0.05088  -0.35793  -0.48330
 115        9D-2       -0.21112  -0.34861   1.44420  -0.61966   0.09286
 116 5   Cl 1S          0.02001   0.00002  -0.00001   0.01173   0.00000
 117        2S          0.27594   0.00024  -0.00017   0.16307   0.00000
 118        3S          0.77140   0.00065  -0.00047   0.45825   0.00000
 119        4S         -0.03869  -0.00004   0.00003  -0.01452   0.00000
 120        5S         -4.31137  -0.00364   0.00262  -3.00706   0.00003
 121        6S         -9.77139  -0.00791   0.00571 -13.23574   0.00003
 122        7PX         0.00000   0.00070   0.00050   0.00000  -0.00033
 123        7PY         0.00000  -0.00050   0.00070  -0.00001  -0.00301
 124        7PZ        -0.00458   0.00000   0.00000  -0.02279   0.00000
 125        8PX        -0.00002   0.01573   0.01116  -0.00005  -0.00651
 126        8PY        -0.00002  -0.01116   0.01574  -0.00014  -0.05934
 127        8PZ        -0.06444  -0.00004   0.00002  -0.31865   0.00003
 128        9PX         0.00000  -0.00340  -0.00241   0.00001   0.00111
 129        9PY         0.00000   0.00242  -0.00340   0.00004   0.01011
 130        9PZ         0.00185   0.00000   0.00000   0.07980   0.00000
 131       10PX         0.00106  -0.05227  -0.03708   0.00090   0.04622
 132       10PY         0.00253   0.03708  -0.05226   0.00220   0.42112
 133       10PZ         5.88256   0.00485  -0.00348   5.07463  -0.00021
 134       11PX         0.00052  -0.93419  -0.66272   0.00059  -0.02759
 135       11PY        -0.00078   0.66271  -0.93414   0.00149  -0.25134
 136       11PZ         0.78344   0.00046   0.00010   3.36704   0.00012
 137       12D 0        0.06831   0.00006  -0.00007   0.00155   0.00000
 138       12D+1        0.00001   0.02516   0.01785   0.00000  -0.00039
 139       12D-1        0.00008  -0.01784   0.02515   0.00000  -0.00349
 140       12D+2       -0.00001   0.00471  -0.00664   0.00000   0.01200
 141       12D-2        0.00000  -0.00662  -0.00469   0.00000   0.00131
 142       13D 0       -0.38865  -0.00035   0.00033  -0.06912  -0.00002
 143       13D+1       -0.00008  -0.09272  -0.06578  -0.00002   0.00273
 144       13D-1       -0.00040   0.06576  -0.09271  -0.00005   0.02481
 145       13D+2        0.00002  -0.01094   0.01539   0.00000  -0.04342
 146       13D-2       -0.00001   0.01533   0.01085   0.00000  -0.00474
 147       14D 0       -1.38876  -0.00108   0.00058  -1.24583   0.00025
 148       14D+1       -0.00053   0.25045   0.17769  -0.00038  -0.03540
 149       14D-1       -0.00075  -0.17763   0.25040  -0.00094  -0.32201
 150       14D+2       -0.00006   0.03826  -0.05387   0.00000   0.20060
 151       14D-2        0.00002  -0.05374  -0.03802   0.00000   0.02185
 152       15F 0       -0.04367  -0.00003   0.00002   0.00096   0.00002
 153       15F+1       -0.00002   0.00402   0.00285   0.00000  -0.00201
 154       15F-1       -0.00004  -0.00284   0.00401   0.00000  -0.01830
 155       15F+2        0.00000   0.00552  -0.00779  -0.00001   0.01033
 156       15F-2        0.00000  -0.00779  -0.00552  -0.00001   0.00112
 157       15F+3        0.00000   0.00000   0.00000   0.00001   0.00000
 158       15F-3       -0.00910  -0.00001   0.00000   0.02316   0.00001
 159       16F 0        0.23500   0.00019  -0.00012   0.08967  -0.00007
 160       16F+1        0.00011  -0.01311  -0.00932   0.00004   0.00688
 161       16F-1        0.00023   0.00926  -0.01307   0.00009   0.06248
 162       16F+2        0.00003  -0.02644   0.03729   0.00002  -0.04223
 163       16F-2       -0.00002   0.03729   0.02643   0.00001  -0.00459
 164       16F+3        0.00001  -0.00002   0.00000  -0.00002  -0.00001
 165       16F-3        0.01897   0.00001   0.00001  -0.04334  -0.00002
 166 6   F  1S          0.04077   0.00004  -0.00003  -0.02175   0.00000
 167        2S          0.14410   0.00012  -0.00009  -0.08224   0.00000
 168        3S         -0.07225  -0.00006   0.00004   0.03563   0.00000
 169        4S         -0.39526  -0.00035   0.00025  -0.02728   0.00001
 170        5S          0.01046   0.00006  -0.00004  -5.85026   0.00003
 171        6PX         0.00000  -0.00596  -0.00423   0.00000   0.00018
 172        6PY        -0.00001   0.00423  -0.00596   0.00000   0.00167
 173        6PZ         0.00539   0.00000   0.00000   0.00221   0.00000
 174        7PX        -0.00002   0.03073   0.02180   0.00000  -0.00067
 175        7PY         0.00001  -0.02180   0.03073   0.00000  -0.00606
 176        7PZ        -0.06370  -0.00005   0.00002   0.00301   0.00000
 177        8PX         0.00020  -0.21343  -0.15141  -0.00004   0.00022
 178        8PY         0.00002   0.15140  -0.21341  -0.00012   0.00199
 179        8PZ         0.61368   0.00049  -0.00025  -0.25307   0.00001
 180        9PX         0.00012  -0.67356  -0.47783  -0.00042  -0.02529
 181        9PY        -0.00114   0.47782  -0.67353  -0.00111  -0.23040
 182        9PZ        -0.82526  -0.00074   0.00085  -2.46538   0.00012
 183       10D 0        0.01177   0.00001   0.00000  -0.00795   0.00000
 184       10D+1        0.00001  -0.01207  -0.00856   0.00000   0.00023
 185       10D-1       -0.00001   0.00856  -0.01207  -0.00001   0.00209
 186       10D+2        0.00001  -0.00298   0.00420   0.00000   0.00285
 187       10D-2        0.00000   0.00419   0.00297   0.00000   0.00031
 188       11D 0       -0.04341  -0.00003  -0.00001   0.01578   0.00000
 189       11D+1       -0.00003   0.03876   0.02750   0.00000  -0.00039
 190       11D-1        0.00001  -0.02748   0.03875   0.00001  -0.00356
 191       11D+2       -0.00002   0.01010  -0.01424   0.00000  -0.01004
 192       11D-2        0.00001  -0.01420  -0.01006   0.00000  -0.00110
 193       12D 0        0.41513   0.00033  -0.00014  -0.01364   0.00003
 194       12D+1        0.00017  -0.11394  -0.08084   0.00000  -0.00343
 195       12D-1        0.00018   0.08079  -0.11389  -0.00002  -0.03118
 196       12D+2        0.00007  -0.03688   0.05199   0.00000   0.01921
 197       12D-2       -0.00002   0.05190   0.03676   0.00000   0.00209
 198       13F 0       -0.02828  -0.00003   0.00004  -0.00801  -0.00001
 199       13F+1       -0.00001  -0.01486  -0.01054   0.00000   0.00087
 200       13F-1       -0.00005   0.01055  -0.01487  -0.00001   0.00790
 201       13F+2       -0.00002   0.00531  -0.00751   0.00000   0.00264
 202       13F-2        0.00000  -0.00752  -0.00534   0.00000   0.00029
 203       13F+3        0.00000   0.00001   0.00000   0.00000   0.00000
 204       13F-3        0.01261   0.00001  -0.00001  -0.00163   0.00000
 205       14F 0        0.06994   0.00007  -0.00009   0.01264   0.00002
 206       14F+1        0.00002   0.03204   0.02272   0.00001  -0.00193
 207       14F-1        0.00011  -0.02275   0.03206   0.00001  -0.01762
 208       14F+2        0.00003  -0.01457   0.02058   0.00000  -0.00630
 209       14F-2        0.00000   0.02061   0.01462   0.00000  -0.00070
 210       14F+3       -0.00001  -0.00002  -0.00001   0.00000   0.00000
 211       14F-3       -0.01696  -0.00002   0.00002   0.00301   0.00000
                         211
     Eigenvalues --     0.00000
   1 1   C  1S          0.00000
   2        2S          0.00000
   3        3S          0.00000
   4        4S          0.00002
   5        5S          0.00006
   6        6PX         0.00727
   7        6PY        -0.00080
   8        6PZ         0.00000
   9        7PX        -1.52085
  10        7PY         0.16691
  11        7PZ         0.00020
  12        8PX       -17.25885
  13        8PY         1.89421
  14        8PZ         0.00225
  15        9PX        -7.84648
  16        9PY         0.86119
  17        9PZ         0.00102
  18       10D 0        0.00000
  19       10D+1        0.00176
  20       10D-1       -0.00019
  21       10D+2        0.00238
  22       10D-2       -0.02174
  23       11D 0       -0.00005
  24       11D+1        0.20384
  25       11D-1       -0.02226
  26       11D+2        0.04404
  27       11D-2       -0.40222
  28       12D 0       -0.00031
  29       12D+1        1.27970
  30       12D-1       -0.14061
  31       12D+2       -0.06376
  32       12D-2        0.58617
  33       13F 0        0.00001
  34       13F+1       -0.03844
  35       13F-1        0.00422
  36       13F+2        0.00104
  37       13F-2       -0.00965
  38       13F+3        0.00001
  39       13F-3        0.00000
  40       14F 0       -0.00013
  41       14F+1        0.40405
  42       14F-1       -0.04438
  43       14F+2       -0.00814
  44       14F-2        0.07600
  45       14F+3       -0.00005
  46       14F-3        0.00001
  47 2   H  1S         -0.00289
  48        2S          0.24074
  49        3S          2.82591
  50        4S          1.21719
  51        5PX        -0.05203
  52        5PY        -0.01278
  53        5PZ        -0.00116
  54        6PX         0.51879
  55        6PY         0.14339
  56        6PZ         0.01833
  57        7PX         3.49859
  58        7PY         0.81131
  59        7PZ         0.08786
  60        8D 0       -0.00205
  61        8D+1       -0.00557
  62        8D-1       -0.00166
  63        8D+2       -0.00441
  64        8D-2       -0.02911
  65        9D 0       -0.02896
  66        9D+1        0.09166
  67        9D-1        0.02984
  68        9D+2       -0.02959
  69        9D-2        0.57316
  70 3   H  1S          0.02428
  71        2S         -2.02225
  72        3S        -23.73808
  73        4S        -10.22436
  74        5PX         0.08244
  75        5PY        -0.07195
  76        5PZ         0.00990
  77        6PX        -0.93844
  78        6PY         0.78455
  79        6PZ        -0.15547
  80        7PX        -5.19600
  81        7PY         4.63684
  82        7PZ        -0.74721
  83        8D 0        0.01721
  84        8D+1        0.01098
  85        8D-1       -0.00896
  86        8D+2       -0.02868
  87        8D-2        0.02611
  88        9D 0        0.24281
  89        9D+1       -0.19961
  90        9D-1        0.15838
  91        9D+2        0.07610
  92        9D-2        0.33237
  93 4   H  1S         -0.02139
  94        2S          1.78153
  95        3S         20.91206
  96        4S          9.00714
  97        5PX         0.06645
  98        5PY         0.07409
  99        5PZ        -0.00875
 100        6PX        -0.76510
 101        6PY        -0.79792
 102        6PZ         0.13730
 103        7PX        -4.16181
 104        7PY        -4.80510
 105        7PZ         0.66013
 106        8D 0       -0.01517
 107        8D+1        0.00900
 108        8D-1        0.00904
 109        8D+2        0.03128
 110        8D-2        0.01953
 111        9D 0       -0.21378
 112        9D+1       -0.16506
 113        9D-1       -0.15860
 114        9D+2       -0.18510
 115        9D-2        0.36105
 116 5   Cl 1S          0.00000
 117        2S          0.00000
 118        3S          0.00000
 119        4S          0.00000
 120        5S          0.00001
 121        6S          0.00001
 122        7PX         0.00301
 123        7PY        -0.00033
 124        7PZ         0.00000
 125        8PX         0.05934
 126        8PY        -0.00651
 127        8PZ        -0.00001
 128        9PX        -0.01011
 129        9PY         0.00111
 130        9PZ         0.00000
 131       10PX        -0.42111
 132       10PY         0.04622
 133       10PZ         0.00004
 134       11PX         0.25133
 135       11PY        -0.02758
 136       11PZ        -0.00003
 137       12D 0        0.00000
 138       12D+1        0.00350
 139       12D-1       -0.00038
 140       12D+2        0.00131
 141       12D-2       -0.01200
 142       13D 0        0.00001
 143       13D+1       -0.02484
 144       13D-1        0.00271
 145       13D+2       -0.00475
 146       13D-2        0.04341
 147       14D 0       -0.00007
 148       14D+1        0.32218
 149       14D-1       -0.03531
 150       14D+2        0.02200
 151       14D-2       -0.20033
 152       15F 0       -0.00001
 153       15F+1        0.01832
 154       15F-1       -0.00201
 155       15F+2        0.00113
 156       15F-2       -0.01030
 157       15F+3        0.00001
 158       15F-3        0.00000
 159       16F 0        0.00002
 160       16F+1       -0.06254
 161       16F-1        0.00685
 162       16F+2       -0.00464
 163       16F-2        0.04214
 164       16F+3       -0.00002
 165       16F-3        0.00001
 166 6   F  1S          0.00000
 167        2S          0.00000
 168        3S          0.00000
 169        4S          0.00000
 170        5S          0.00001
 171        6PX        -0.00167
 172        6PY         0.00018
 173        6PZ         0.00000
 174        7PX         0.00606
 175        7PY        -0.00066
 176        7PZ         0.00000
 177        8PX        -0.00199
 178        8PY         0.00022
 179        8PZ         0.00000
 180        9PX         0.23040
 181        9PY        -0.02529
 182        9PZ        -0.00002
 183       10D 0        0.00000
 184       10D+1       -0.00209
 185       10D-1        0.00023
 186       10D+2        0.00031
 187       10D-2       -0.00285
 188       11D 0        0.00000
 189       11D+1        0.00355
 190       11D-1       -0.00039
 191       11D+2       -0.00110
 192       11D-2        0.01004
 193       12D 0       -0.00001
 194       12D+1        0.03119
 195       12D-1       -0.00342
 196       12D+2        0.00211
 197       12D-2       -0.01918
 198       13F 0        0.00000
 199       13F+1       -0.00789
 200       13F-1        0.00087
 201       13F+2        0.00029
 202       13F-2       -0.00266
 203       13F+3        0.00000
 204       13F-3        0.00000
 205       14F 0       -0.00001
 206       14F+1        0.01761
 207       14F-1       -0.00194
 208       14F+2       -0.00068
 209       14F-2        0.00633
 210       14F+3        0.00000
 211       14F-3        0.00000
          Condensed to atoms (all electrons):
              1          2          3          4          5          6
     1  C    7.001327  -0.007408  -0.007412  -0.007412  -0.047971  -0.097207
     2  H   -0.007408   0.546036   0.019615   0.019615  -0.018794   0.004193
     3  H   -0.007412   0.019615   0.546038   0.019615  -0.018793   0.004198
     4  H   -0.007412   0.019615   0.019615   0.546038  -0.018793   0.004196
     5  Cl  -0.047971  -0.018794  -0.018793  -0.018793  17.704470   0.025916
     6  F   -0.097207   0.004193   0.004198   0.004196   0.025916   9.908978
 Mulliken atomic charges:
              1
     1  C   -0.833916
     2  H    0.436744
     3  H    0.436739
     4  H    0.436742
     5  Cl  -0.626035
     6  F   -0.850273
 Sum of Mulliken atomic charges =  -1.00000
 Mulliken charges with hydrogens summed into heavy atoms:
              1
     1  C    0.476309
     5  Cl  -0.626035
     6  F   -0.850273
 Sum of Mulliken charges with hydrogens summed into heavy atoms =  -1.00000
 Electronic spatial extent (au):  <R**2>=            492.1536
 Charge=             -1.0000 electrons
 Dipole moment (field-independent basis, Debye):
    X=             -0.0006    Y=              0.0007    Z=              4.1620  Tot=              4.1620
 Quadrupole moment (field-independent basis, Debye-Ang):
   XX=            -28.1784   YY=            -28.1784   ZZ=            -63.0552
   XY=              0.0000   XZ=             -0.0050   YZ=             -0.0145
 Traceless Quadrupole moment (field-independent basis, Debye-Ang):
   XX=             11.6256   YY=             11.6256   ZZ=            -23.2512
   XY=              0.0000   XZ=             -0.0050   YZ=             -0.0145
 Octapole moment (field-independent basis, Debye-Ang**2):
  XXX=             -0.0243  YYY=             -0.9765  ZZZ=             51.1417  XYY=             -0.0086
  XXY=              0.9425  XXZ=             -4.1159  XZZ=             -0.0065  YZZ=              0.0114
  YYZ=             -4.1151  XYZ=             -0.0002
 Hexadecapole moment (field-independent basis, Debye-Ang**3):
 XXXX=            -41.2499 YYYY=            -41.2498 ZZZZ=           -766.9427 XXXY=              0.0004
 XXXZ=             -0.0507 YYYX=             -0.0002 YYYZ=              0.5147 ZZZX=             -0.0658
 ZZZY=             -0.1899 XXYY=            -13.7501 XXZZ=           -103.7686 YYZZ=           -103.7697
 XXYZ=             -0.6779 YYXZ=             -0.0166 ZZXY=              0.0002
 N-N= 8.484953192321D+01 E-N=-1.603897062854D+03  KE= 5.991913140239D+02
 1\1\GINC-TRAPISTA\SP\RQCISD-FC\Aug-CC-pVTZ\C1H3Cl1F1(1-)\BRUNS\10-Aug-
 2021\0\\# QCISD aug-cc-pvtz nosymm density=current output=wfn\\title l
 ine\\-1,1\C,0,0.000175,0.000029,-0.497709\H,0,0.000019,-1.05257,-0.620
 726\H,0,-0.911312,0.526365,-0.621245\H,0,0.91175,0.526132,-0.62157\Cl,
 0,0.000555,0.000962,1.644718\F,0,-0.000186,-0.000921,-2.60346\\Version
 =EM64L-G09RevB.01\HF=-598.6171201\MP2=-599.2911553\MP3=-599.3098687\MP
 4D=-599.3247657\MP4DQ=-599.3103379\MP4SDQ=-599.3197009\QCISD=-599.3190
 894\RMSD=9.430e-09\Dipole=0.000276,0.0007352,1.6201432\Quadrupole=8.64
 33407,8.6433397,-17.2866803,-0.0000022,-0.0036908,-0.010777\PG=C01 [X(
 C1H3Cl1F1)]\\@

 Writing a WFN file to GAUSSIAN-ZF_6.wfn.


 TELEVISION IS CALLED A MEDIUM BECAUSE IT ISN'T
 RARE, AND IT ISN'T WELL DONE.
 Job cpu time:  0 days  5 hours 24 minutes 30.2 seconds.
 File lengths (MBytes):  RWF=  29002 Int=      0 D2E=      0 Chk=      4 Scr=      1
 Normal termination of Gaussian 09 at Tue Aug 10 19:00:15 2021.
