 Entering Gaussian System, Link 0=/home/bruns/programas/chemistry/gaussian/g09/g09
 Input=GAUSSIAN+XCl_5.com
 Output=GAUSSIAN+XCl_5.log
 Initial command:
 /home/bruns/programas/chemistry/gaussian/g09/l1.exe /home/bruns/programas/chemistry/gaussian/work/Gau-40612.inp -scrdir=/home/bruns/programas/chemistry/gaussian/work/
 Entering Link 1 = /home/bruns/programas/chemistry/gaussian/g09/l1.exe PID=     40614.
  
 Copyright (c) 1988,1990,1992,1993,1995,1998,2003,2009,2010,
            Gaussian, Inc.  All Rights Reserved.
  
 This is part of the Gaussian(R) 09 program.  It is based on
 the Gaussian(R) 03 system (copyright 2003, Gaussian, Inc.),
 the Gaussian(R) 98 system (copyright 1998, Gaussian, Inc.),
 the Gaussian(R) 94 system (copyright 1995, Gaussian, Inc.),
 the Gaussian 92(TM) system (copyright 1992, Gaussian, Inc.),
 the Gaussian 90(TM) system (copyright 1990, Gaussian, Inc.),
 the Gaussian 88(TM) system (copyright 1988, Gaussian, Inc.),
 the Gaussian 86(TM) system (copyright 1986, Carnegie Mellon
 University), and the Gaussian 82(TM) system (copyright 1983,
 Carnegie Mellon University). Gaussian is a federally registered
 trademark of Gaussian, Inc.
  
 This software contains proprietary and confidential information,
 including trade secrets, belonging to Gaussian, Inc.
  
 This software is provided under written license and may be
 used, copied, transmitted, or stored only in accord with that
 written license.
  
 The following legend is applicable only to US Government
 contracts under FAR:
  
                    RESTRICTED RIGHTS LEGEND
  
 Use, reproduction and disclosure by the US Government is
 subject to restrictions as set forth in subparagraphs (a)
 and (c) of the Commercial Computer Software - Restricted
 Rights clause in FAR 52.227-19.
  
 Gaussian, Inc.
 340 Quinnipiac St., Bldg. 40, Wallingford CT 06492
  
  
 ---------------------------------------------------------------
 Warning -- This program may not be used in any manner that
 competes with the business of Gaussian, Inc. or will provide
 assistance to any competitor of Gaussian, Inc.  The licensee
 of this program is prohibited from giving any competitor of
 Gaussian, Inc. access to this program.  By using this program,
 the user acknowledges that Gaussian, Inc. is engaged in the
 business of creating and licensing software in the field of
 computational chemistry and represents and warrants to the
 licensee that it is not a competitor of Gaussian, Inc. and that
 it will not use this program in any manner prohibited above.
 ---------------------------------------------------------------
  

 Cite this work as:
 Gaussian 09, Revision B.01,
 M. J. Frisch, G. W. Trucks, H. B. Schlegel, G. E. Scuseria, 
 M. A. Robb, J. R. Cheeseman, G. Scalmani, V. Barone, B. Mennucci, 
 G. A. Petersson, H. Nakatsuji, M. Caricato, X. Li, H. P. Hratchian, 
 A. F. Izmaylov, J. Bloino, G. Zheng, J. L. Sonnenberg, M. Hada, 
 M. Ehara, K. Toyota, R. Fukuda, J. Hasegawa, M. Ishida, T. Nakajima, 
 Y. Honda, O. Kitao, H. Nakai, T. Vreven, J. A. Montgomery, Jr., 
 J. E. Peralta, F. Ogliaro, M. Bearpark, J. J. Heyd, E. Brothers, 
 K. N. Kudin, V. N. Staroverov, T. Keith, R. Kobayashi, J. Normand, 
 K. Raghavachari, A. Rendell, J. C. Burant, S. S. Iyengar, J. Tomasi, 
 M. Cossi, N. Rega, J. M. Millam, M. Klene, J. E. Knox, J. B. Cross, 
 V. Bakken, C. Adamo, J. Jaramillo, R. Gomperts, R. E. Stratmann, 
 O. Yazyev, A. J. Austin, R. Cammi, C. Pomelli, J. W. Ochterski, 
 R. L. Martin, K. Morokuma, V. G. Zakrzewski, G. A. Voth, 
 P. Salvador, J. J. Dannenberg, S. Dapprich, A. D. Daniels, 
 O. Farkas, J. B. Foresman, J. V. Ortiz, J. Cioslowski, 
 and D. J. Fox, Gaussian, Inc., Wallingford CT, 2010.
 
 ******************************************
 Gaussian 09:  EM64L-G09RevB.01 12-Aug-2010
                12-Aug-2021 
 ******************************************
 %nproc=8
 Will use up to    8 processors via shared memory.
 %mem=8GB
 -----------------------------------------------------
 # QCISD aug-cc-pvtz nosymm density=current output=wfn
 -----------------------------------------------------
 1/30=1,38=1/1;
 2/12=2,15=1,17=6,18=5,40=1/2;
 3/5=16,6=1,7=10,11=9,16=1,25=1,30=1,71=1/1,2,3;
 4//1;
 5/5=2,38=5/2;
 8/6=4,9=120000,10=1/1,4;
 9/5=8,15=1/13;
 11/28=-7,31=1,32=3,42=3/11;
 10/5=6,13=10,31=1/2;
 6/7=2,8=2,9=2,10=2,22=-1,31=1/1;
 99/5=1,6=1100,9=1/99;
 ----------
 title line
 ----------
 Symbolic Z-matrix:
 Charge = -1 Multiplicity = 1
 C                     0.00018   0.00003  -0.49771 
 H                     0.00002  -1.05257  -0.62073 
 H                    -0.91131   0.52637  -0.62125 
 H                     0.91175   0.52613  -0.62157 
 Cl                    0.01056   0.00096   1.64472 
 F                    -0.00019  -0.00092  -2.59346 
 
                          Input orientation:                          
 ---------------------------------------------------------------------
 Center     Atomic      Atomic             Coordinates (Angstroms)
 Number     Number       Type             X           Y           Z
 ---------------------------------------------------------------------
      1          6           0        0.000175    0.000029   -0.497709
      2          1           0        0.000019   -1.052570   -0.620726
      3          1           0       -0.911312    0.526365   -0.621245
      4          1           0        0.911750    0.526132   -0.621570
      5         17           0        0.010555    0.000962    1.644718
      6          9           0       -0.000186   -0.000921   -2.593460
 ---------------------------------------------------------------------
                    Distance matrix (angstroms):
                    1          2          3          4          5
     1  C    0.000000
     2  H    1.059763   0.000000
     3  H    1.059764   1.823063   0.000000
     4  H    1.059762   1.823062   1.823062   0.000000
     5  Cl   2.142452   2.498455   2.502094   2.494798   0.000000
     6  F    2.095751   2.235541   2.235579   2.235568   4.238192
                    6
     6  F    0.000000
 Symmetry turned off by external request.
 This structure is nearly, but not quite of a higher symmetry.
 Consider Symm=Loose if the higher symmetry is desired.
 Stoichiometry    CH3ClF(1-)
 Framework group  C1[X(CH3ClF)]
 Deg. of freedom    12
 Full point group                 C1      NOp   1
 Rotational constants (GHZ):    150.8671725      2.2147138      2.2147112
 Standard basis: Aug-CC-pVTZ (5D, 7F)
 Integral buffers will be    131072 words long.
 Raffenetti 1 integral format.
 Two-electron integral symmetry is turned off.
   211 basis functions,   339 primitive gaussians,   244 cartesian basis functions
    18 alpha electrons       18 beta electrons
       nuclear repulsion energy        84.9839615390 Hartrees.
 NAtoms=    6 NActive=    6 NUniq=    6 SFac= 1.00D+00 NAtFMM=   50 NAOKFM=F Big=F
 One-electron integrals computed using PRISM.
 NBasis=   211 RedAO= T  NBF=   211
 NBsUse=   211 1.00D-06 NBFU=   211
 Harris functional with IExCor=  205 diagonalized for initial guess.
 ExpMin= 2.53D-02 ExpMax= 4.56D+05 ExpMxC= 1.44D+03 IAcc=3 IRadAn=         0 AccDes= 0.00D+00
 HarFok:  IExCor=  205 AccDes= 0.00D+00 IRadAn=         0 IDoV= 1
 ScaDFX=  1.000000  1.000000  1.000000  1.000000
 FoFCou: FMM=F IPFlag=           0 FMFlag=      100000 FMFlg1=           0
         NFxFlg=           0 DoJE=T BraDBF=F KetDBF=T FulRan=T
         Omega=  0.000000  0.000000  1.000000  0.000000  0.000000 ICntrl=     500 IOpCl=  0
         NMat0=    1 NMatS0=    1 NMatT0=    0 NMatD0=    1 NMtDS0=    0 NMtDT0=    0
         I1Cent=           4 NGrid=           0.
 Symmetry not used in FoFCou.
 Requested convergence on RMS density matrix=1.00D-08 within 128 cycles.
 Requested convergence on MAX density matrix=1.00D-06.
 Requested convergence on             energy=1.00D-06.
 No special actions if energy rises.
 Keep R1 ints in memory in canonical form, NReq=454274131.
 SCF Done:  E(RHF) =  -598.617121867     A.U. after   12 cycles
             Convg  =    0.9412D-08             -V/T =  2.0001
 ExpMin= 2.53D-02 ExpMax= 4.56D+05 ExpMxC= 1.44D+03 IAcc=3 IRadAn=         5 AccDes= 0.00D+00
 HarFok:  IExCor=  205 AccDes= 0.00D+00 IRadAn=         5 IDoV=-2
 ScaDFX=  1.000000  1.000000  1.000000  1.000000
 DSYEVD returned Info=         101 IAlg= 4 N=    50 NDim=    50 NE2=    21472034 trying DSYEV.
 DSYEVD returned Info=          93 IAlg= 4 N=    46 NDim=    46 NE2=    21472034 trying DSYEV.
 Range of M.O.s used for correlation:     8   211
 NBasis=   211 NAE=    18 NBE=    18 NFC=     7 NFV=     0
 NROrb=    204 NOA=    11 NOB=    11 NVA=   193 NVB=   193

 **** Warning!!: The largest alpha MO coefficient is  0.35240322D+02

 Semi-Direct transformation.
 ModeAB=           2 MOrb=            11 LenV=    1072528222
 LASXX=     44979418 LTotXX=    44979418 LenRXX=    44979418
 LTotAB=    45631872 MaxLAS=    67073160 LenRXY=    67073160
 NonZer=    89958836 LenScr=   135708672 LnRSAI=           0
 LnScr1=           0 LExtra=           0 Total=    247761250
 MaxDsk=          -1 SrtSym=           F ITran=            4
 JobTyp=0 Pass  1:  I=   1 to  11.
 (rs|ai) integrals will be sorted in core.
 Spin components of T(2) and E(2):
     alpha-alpha T2 =       0.2567357591D-01 E2=     -0.8208208223D-01
     alpha-beta  T2 =       0.1452559881D+00 E2=     -0.5099783710D+00
     beta-beta   T2 =       0.2567357591D-01 E2=     -0.8208208223D-01
 ANorm=    0.1093893569D+01
 E2 =    -0.6741425354D+00 EUMP2 =    -0.59929126440214D+03
 R2 and R3 integrals will be kept in memory, NReq=   900794930.
 Iterations=  50 Convergence= 0.100D-07
 Iteration Nr.   1
 **********************
 DD1Dir will call FoFMem   1 times, MxPair=       132
 NAB=    66 NAA=     0 NBB=     0.
 MP4(R+Q)=  0.14438912D-01
 E3=       -0.18700988D-01        EUMP3=      -0.59930996539D+03
 E4(DQ)=   -0.45152286D-03        UMP4(DQ)=   -0.59931041691D+03
 E4(SDQ)=  -0.98178646D-02        UMP4(SDQ)=  -0.59931978325D+03
 DE(Corr)= -0.67840461     E(Corr)=     -599.29552648    
 NORM(A)=   0.10996850D+01
 Iteration Nr.   2
 **********************
 DD1Dir will call FoFMem   1 times, MxPair=       132
 NAB=    66 NAA=     0 NBB=     0.
 DE(Corr)= -0.70060462     E(CORR)=     -599.31772648     Delta=-2.22D-02
 NORM(A)=   0.11070394D+01
 Iteration Nr.   3
 **********************
 DD1Dir will call FoFMem   1 times, MxPair=       132
 NAB=    66 NAA=     0 NBB=     0.
 DE(Corr)= -0.69820761     E(CORR)=     -599.31532947     Delta= 2.40D-03
 NORM(A)=   0.11110246D+01
 Iteration Nr.   4
 **********************
 DD1Dir will call FoFMem   1 times, MxPair=       132
 NAB=    66 NAA=     0 NBB=     0.
 DE(Corr)= -0.70126675     E(CORR)=     -599.31838862     Delta=-3.06D-03
 NORM(A)=   0.11131285D+01
 Iteration Nr.   5
 **********************
 DD1Dir will call FoFMem   1 times, MxPair=       132
 NAB=    66 NAA=     0 NBB=     0.
 DE(Corr)= -0.70186174     E(CORR)=     -599.31898361     Delta=-5.95D-04
 NORM(A)=   0.11141596D+01
 Iteration Nr.   6
 **********************
 DD1Dir will call FoFMem   1 times, MxPair=       132
 NAB=    66 NAA=     0 NBB=     0.
 DE(Corr)= -0.70200854     E(CORR)=     -599.31913040     Delta=-1.47D-04
 NORM(A)=   0.11144855D+01
 Iteration Nr.   7
 **********************
 DD1Dir will call FoFMem   1 times, MxPair=       132
 NAB=    66 NAA=     0 NBB=     0.
 DE(Corr)= -0.70203826     E(CORR)=     -599.31916012     Delta=-2.97D-05
 NORM(A)=   0.11145165D+01
 Iteration Nr.   8
 **********************
 DD1Dir will call FoFMem   1 times, MxPair=       132
 NAB=    66 NAA=     0 NBB=     0.
 DE(Corr)= -0.70205214     E(CORR)=     -599.31917400     Delta=-1.39D-05
 NORM(A)=   0.11145343D+01
 Iteration Nr.   9
 **********************
 DD1Dir will call FoFMem   1 times, MxPair=       132
 NAB=    66 NAA=     0 NBB=     0.
 DE(Corr)= -0.70202892     E(CORR)=     -599.31915079     Delta= 2.32D-05
 NORM(A)=   0.11145375D+01
 Iteration Nr.  10
 **********************
 DD1Dir will call FoFMem   1 times, MxPair=       132
 NAB=    66 NAA=     0 NBB=     0.
 DE(Corr)= -0.70204822     E(CORR)=     -599.31917009     Delta=-1.93D-05
 NORM(A)=   0.11145377D+01
 Iteration Nr.  11
 **********************
 DD1Dir will call FoFMem   1 times, MxPair=       132
 NAB=    66 NAA=     0 NBB=     0.
 DE(Corr)= -0.70203903     E(CORR)=     -599.31916089     Delta= 9.19D-06
 NORM(A)=   0.11145406D+01
 Iteration Nr.  12
 **********************
 DD1Dir will call FoFMem   1 times, MxPair=       132
 NAB=    66 NAA=     0 NBB=     0.
 DE(Corr)= -0.70204278     E(CORR)=     -599.31916465     Delta=-3.75D-06
 NORM(A)=   0.11145411D+01
 Iteration Nr.  13
 **********************
 DD1Dir will call FoFMem   1 times, MxPair=       132
 NAB=    66 NAA=     0 NBB=     0.
 DE(Corr)= -0.70204335     E(CORR)=     -599.31916521     Delta=-5.66D-07
 NORM(A)=   0.11145417D+01
 Iteration Nr.  14
 **********************
 DD1Dir will call FoFMem   1 times, MxPair=       132
 NAB=    66 NAA=     0 NBB=     0.
 DE(Corr)= -0.70204357     E(CORR)=     -599.31916544     Delta=-2.24D-07
 NORM(A)=   0.11145418D+01
 Iteration Nr.  15
 **********************
 DD1Dir will call FoFMem   1 times, MxPair=       132
 NAB=    66 NAA=     0 NBB=     0.
 DE(Corr)= -0.70204348     E(CORR)=     -599.31916535     Delta= 9.05D-08
 NORM(A)=   0.11145418D+01
 Iteration Nr.  16
 **********************
 DD1Dir will call FoFMem   1 times, MxPair=       132
 NAB=    66 NAA=     0 NBB=     0.
 DE(Corr)= -0.70204368     E(CORR)=     -599.31916555     Delta=-2.03D-07
 NORM(A)=   0.11145416D+01
 Iteration Nr.  17
 **********************
 DD1Dir will call FoFMem   1 times, MxPair=       132
 NAB=    66 NAA=     0 NBB=     0.
 DE(Corr)= -0.70204355     E(CORR)=     -599.31916542     Delta= 1.30D-07
 NORM(A)=   0.11145415D+01
 Iteration Nr.  18
 **********************
 DD1Dir will call FoFMem   1 times, MxPair=       132
 NAB=    66 NAA=     0 NBB=     0.
 DE(Corr)= -0.70204359     E(CORR)=     -599.31916546     Delta=-3.66D-08
 NORM(A)=   0.11145414D+01
 Iteration Nr.  19
 **********************
 DD1Dir will call FoFMem   1 times, MxPair=       132
 NAB=    66 NAA=     0 NBB=     0.
 DE(Corr)= -0.70204354     E(CORR)=     -599.31916540     Delta= 5.27D-08
 NORM(A)=   0.11145413D+01
 Iteration Nr.  20
 **********************
 DD1Dir will call FoFMem   1 times, MxPair=       132
 NAB=    66 NAA=     0 NBB=     0.
 DE(Corr)= -0.70204354     E(CORR)=     -599.31916541     Delta=-2.62D-09
 NORM(A)=   0.11145412D+01
 Iteration Nr.  21
 **********************
 DD1Dir will call FoFMem   1 times, MxPair=       132
 NAB=    66 NAA=     0 NBB=     0.
 DE(Corr)= -0.70204352     E(CORR)=     -599.31916539     Delta= 1.91D-08
 NORM(A)=   0.11145412D+01
 Iteration Nr.  22
 **********************
 DD1Dir will call FoFMem   1 times, MxPair=       132
 NAB=    66 NAA=     0 NBB=     0.
 DE(Corr)= -0.70204352     E(CORR)=     -599.31916538     Delta= 3.33D-09
 NORM(A)=   0.11145412D+01
 Iteration Nr.  23
 **********************
 DD1Dir will call FoFMem   1 times, MxPair=       132
 NAB=    66 NAA=     0 NBB=     0.
 DE(Corr)= -0.70204351     E(CORR)=     -599.31916538     Delta= 5.00D-09
 NORM(A)=   0.11145412D+01
 Iteration Nr.  24
 **********************
 DD1Dir will call FoFMem   1 times, MxPair=       132
 NAB=    66 NAA=     0 NBB=     0.
 DE(Corr)= -0.70204351     E(CORR)=     -599.31916538     Delta=-1.44D-09
 NORM(A)=   0.11145412D+01
 Iteration Nr.  25
 **********************
 DD1Dir will call FoFMem   1 times, MxPair=       132
 NAB=    66 NAA=     0 NBB=     0.
 DE(Corr)= -0.70204351     E(CORR)=     -599.31916538     Delta= 4.62D-09
 NORM(A)=   0.11145412D+01
 Iteration Nr.  26
 **********************
 DD1Dir will call FoFMem   1 times, MxPair=       132
 NAB=    66 NAA=     0 NBB=     0.
 DE(Corr)= -0.70204351     E(CORR)=     -599.31916538     Delta=-4.61D-09
 NORM(A)=   0.11145412D+01
 Iteration Nr.  27
 **********************
 DD1Dir will call FoFMem   1 times, MxPair=       132
 NAB=    66 NAA=     0 NBB=     0.
 DE(Corr)= -0.70204351     E(CORR)=     -599.31916538     Delta= 6.47D-10
 NORM(A)=   0.11145412D+01
 Largest amplitude= 6.61D-02

 Z-AMPLITUDE ITERATIONS

 Iteration Nr.   1
 **********************
 DD1Dir will call FoFMem   1 times, MxPair=       132
 NAB=    66 NAA=     0 NBB=     0.
 DE(Z)  -0.68265131D+00          E(Z)=    -0.59929977318D+03
 NORM(A)=   0.11141895D+01
 Iteration Nr.   2
 **********************
 DD1Dir will call FoFMem   1 times, MxPair=       132
 NAB=    66 NAA=     0 NBB=     0.
 DE(Z)  -0.68261267D+00          E(Z)=    -0.59929973454D+03
 NORM(A)=   0.11146623D+01
 Iteration Nr.   3
 **********************
 DD1Dir will call FoFMem   1 times, MxPair=       132
 NAB=    66 NAA=     0 NBB=     0.
 DE(Z)  -0.68266283D+00          E(Z)=    -0.59929978470D+03
 NORM(A)=   0.11140872D+01
 Iteration Nr.   4
 **********************
 DD1Dir will call FoFMem   1 times, MxPair=       132
 NAB=    66 NAA=     0 NBB=     0.
 DE(Z)  -0.68260590D+00          E(Z)=    -0.59929972777D+03
 NORM(A)=   0.11149779D+01
 Iteration Nr.   5
 **********************
 DD1Dir will call FoFMem   1 times, MxPair=       132
 NAB=    66 NAA=     0 NBB=     0.
 DE(Z)  -0.68269387D+00          E(Z)=    -0.59929981574D+03
 NORM(A)=   0.11078855D+01
 Iteration Nr.   6
 **********************
 DD1Dir will call FoFMem   1 times, MxPair=       132
 NAB=    66 NAA=     0 NBB=     0.
 DE(Z)  -0.68198222D+00          E(Z)=    -0.59929910409D+03
 NORM(A)=   0.11078788D+01
 Iteration Nr.   7
 **********************
 DD1Dir will call FoFMem   1 times, MxPair=       132
 NAB=    66 NAA=     0 NBB=     0.
 DE(Z)  -0.68198482D+00          E(Z)=    -0.59929910669D+03
 NORM(A)=   0.11078745D+01
 Iteration Nr.   8
 **********************
 DD1Dir will call FoFMem   1 times, MxPair=       132
 NAB=    66 NAA=     0 NBB=     0.
 DE(Z)  -0.68198231D+00          E(Z)=    -0.59929910417D+03
 NORM(A)=   0.11078715D+01
 Iteration Nr.   9
 **********************
 DD1Dir will call FoFMem   1 times, MxPair=       132
 NAB=    66 NAA=     0 NBB=     0.
 DE(Z)  -0.68198269D+00          E(Z)=    -0.59929910455D+03
 NORM(A)=   0.11078704D+01
 Iteration Nr.  10
 **********************
 DD1Dir will call FoFMem   1 times, MxPair=       132
 NAB=    66 NAA=     0 NBB=     0.
 DE(Z)  -0.68198250D+00          E(Z)=    -0.59929910437D+03
 NORM(A)=   0.11078700D+01
 Iteration Nr.  11
 **********************
 DD1Dir will call FoFMem   1 times, MxPair=       132
 NAB=    66 NAA=     0 NBB=     0.
 DE(Z)  -0.68198248D+00          E(Z)=    -0.59929910435D+03
 NORM(A)=   0.11078699D+01
 Iteration Nr.  12
 **********************
 DD1Dir will call FoFMem   1 times, MxPair=       132
 NAB=    66 NAA=     0 NBB=     0.
 DE(Z)  -0.68198253D+00          E(Z)=    -0.59929910439D+03
 NORM(A)=   0.11078700D+01
 Iteration Nr.  13
 **********************
 DD1Dir will call FoFMem   1 times, MxPair=       132
 NAB=    66 NAA=     0 NBB=     0.
 DE(Z)  -0.68198256D+00          E(Z)=    -0.59929910443D+03
 NORM(A)=   0.11078700D+01
 Iteration Nr.  14
 **********************
 DD1Dir will call FoFMem   1 times, MxPair=       132
 NAB=    66 NAA=     0 NBB=     0.
 DE(Z)  -0.68198254D+00          E(Z)=    -0.59929910440D+03
 NORM(A)=   0.11078700D+01
 Iteration Nr.  15
 **********************
 DD1Dir will call FoFMem   1 times, MxPair=       132
 NAB=    66 NAA=     0 NBB=     0.
 DE(Z)  -0.68198257D+00          E(Z)=    -0.59929910443D+03
 NORM(A)=   0.11078700D+01
 Iteration Nr.  16
 **********************
 DD1Dir will call FoFMem   1 times, MxPair=       132
 NAB=    66 NAA=     0 NBB=     0.
 DE(Z)  -0.68198256D+00          E(Z)=    -0.59929910443D+03
 NORM(A)=   0.11078700D+01
 Iteration Nr.  17
 **********************
 DD1Dir will call FoFMem   1 times, MxPair=       132
 NAB=    66 NAA=     0 NBB=     0.
 DE(Z)  -0.68198256D+00          E(Z)=    -0.59929910443D+03
 NORM(A)=   0.11078700D+01
 Iteration Nr.  18
 **********************
 DD1Dir will call FoFMem   1 times, MxPair=       132
 NAB=    66 NAA=     0 NBB=     0.
 DE(Z)  -0.68198256D+00          E(Z)=    -0.59929910443D+03
 NORM(A)=   0.11078700D+01
 Iteration Nr.  19
 **********************
 DD1Dir will call FoFMem   1 times, MxPair=       132
 NAB=    66 NAA=     0 NBB=     0.
 DE(Z)  -0.68198256D+00          E(Z)=    -0.59929910443D+03
 NORM(A)=   0.11078700D+01
 Discarding MO integrals.
          Differentiating once with respect to electric field.
                with respect to dipole field.
          Electric field/nuclear overlap derivatives assumed to be zero.
          Keep R1 ints in memory in canonical form, NReq=448662239.
          There are     1 degrees of freedom in the 1st order CPHF.  IDoFFX=0.
 LinEq1:  Iter=  0 NonCon=     1 RMS=3.11D-03 Max=1.20D-01
 AX will form     1 AO Fock derivatives at one time.
 LinEq1:  Iter=  1 NonCon=     1 RMS=6.94D-04 Max=9.46D-03
 LinEq1:  Iter=  2 NonCon=     1 RMS=2.30D-04 Max=5.72D-03
 LinEq1:  Iter=  3 NonCon=     1 RMS=9.49D-05 Max=1.45D-03
 LinEq1:  Iter=  4 NonCon=     1 RMS=3.84D-05 Max=4.10D-04
 LinEq1:  Iter=  5 NonCon=     1 RMS=1.06D-05 Max=2.26D-04
 LinEq1:  Iter=  6 NonCon=     1 RMS=2.42D-06 Max=4.24D-05
 LinEq1:  Iter=  7 NonCon=     1 RMS=6.06D-07 Max=9.14D-06
 LinEq1:  Iter=  8 NonCon=     1 RMS=1.49D-07 Max=1.80D-06
 LinEq1:  Iter=  9 NonCon=     1 RMS=3.03D-08 Max=7.47D-07
 LinEq1:  Iter= 10 NonCon=     1 RMS=6.54D-09 Max=8.90D-08
 LinEq1:  Iter= 11 NonCon=     1 RMS=1.05D-09 Max=1.16D-08
 LinEq1:  Iter= 12 NonCon=     1 RMS=1.68D-10 Max=2.85D-09
 LinEq1:  Iter= 13 NonCon=     0 RMS=2.40D-11 Max=3.21D-10
 Linear equations converged to 1.000D-10 1.000D-09 after    13 iterations.
 End of Minotr Frequency-dependent properties file   721 does not exist.
 End of Minotr Frequency-dependent properties file   722 does not exist.

 **********************************************************************

            Population analysis using the QCI/CC density.

 **********************************************************************

     Natural Orbital Coefficients:
                           1         2         3         4         5
     Eigenvalues --     2.00003   2.00003   2.00002   2.00001   2.00001
   1 1   C  1S         -0.00010   0.00009  -0.04328   0.08033   0.97619
   2        2S          0.00000   0.00000   0.00131   0.00050  -0.01332
   3        3S         -0.00001   0.00001  -0.00132   0.00400   0.03985
   4        4S          0.00013  -0.00013  -0.01265  -0.02360   0.00311
   5        5S          0.00003  -0.00003  -0.00120  -0.00062  -0.00061
   6        6PX         0.00004  -0.00004   0.00000   0.00000   0.00000
   7        6PY         0.00004   0.00004   0.00000   0.00000   0.00000
   8        6PZ         0.00000   0.00000   0.00053   0.00168   0.00087
   9        7PX         0.00060  -0.00060   0.00001   0.00002   0.00001
  10        7PY         0.00059   0.00060   0.00000   0.00000   0.00000
  11        7PZ         0.00000   0.00000   0.00142   0.00304  -0.00091
  12        8PX         0.00323  -0.00322  -0.00003  -0.00004   0.00000
  13        8PY         0.00321   0.00324   0.00000   0.00000   0.00000
  14        8PZ         0.00001  -0.00001  -0.00373  -0.00410  -0.00309
  15        9PX         0.00030  -0.00030   0.00000   0.00000   0.00000
  16        9PY         0.00030   0.00030   0.00000   0.00000   0.00000
  17        9PZ         0.00000   0.00000   0.00021   0.00017  -0.00049
  18       10D 0        0.00000   0.00000   0.00011   0.00033  -0.00057
  19       10D+1       -0.00011   0.00011   0.00000   0.00000   0.00000
  20       10D-1       -0.00011  -0.00011   0.00000   0.00000   0.00000
  21       10D+2        0.00003   0.00003   0.00000   0.00000   0.00000
  22       10D-2        0.00003  -0.00003   0.00000   0.00000   0.00000
  23       11D 0       -0.00001   0.00001   0.00022  -0.00009  -0.00029
  24       11D+1        0.00018  -0.00018  -0.00001  -0.00002  -0.00001
  25       11D-1        0.00018   0.00018   0.00000   0.00000   0.00000
  26       11D+2        0.00071   0.00072   0.00000   0.00000   0.00000
  27       11D-2        0.00072  -0.00071   0.00000   0.00001   0.00001
  28       12D 0        0.00002  -0.00002  -0.00078   0.00122  -0.00236
  29       12D+1       -0.00092   0.00093  -0.00001  -0.00001   0.00000
  30       12D-1       -0.00091  -0.00093   0.00000   0.00000   0.00000
  31       12D+2        0.00114   0.00115   0.00000   0.00000   0.00000
  32       12D-2        0.00115  -0.00115  -0.00001  -0.00001   0.00000
  33       13F 0        0.00000   0.00000   0.00001   0.00003   0.00019
  34       13F+1       -0.00013   0.00013   0.00000   0.00000   0.00000
  35       13F-1       -0.00013  -0.00014   0.00000   0.00000   0.00000
  36       13F+2        0.00001   0.00001   0.00000   0.00000   0.00000
  37       13F-2        0.00001  -0.00001   0.00000   0.00000   0.00000
  38       13F+3        0.00000   0.00000   0.00000   0.00000   0.00000
  39       13F-3        0.00000   0.00000  -0.00006   0.00007   0.00090
  40       14F 0        0.00000   0.00000  -0.00113  -0.00215  -0.00019
  41       14F+1        0.00041  -0.00041  -0.00001  -0.00002  -0.00001
  42       14F-1        0.00040   0.00041   0.00000   0.00000   0.00000
  43       14F+2        0.00025   0.00023   0.00000   0.00000   0.00000
  44       14F-2        0.00025  -0.00023   0.00000   0.00000   0.00000
  45       14F+3        0.00000   0.00000   0.00000   0.00000   0.00000
  46       14F-3        0.00001  -0.00001  -0.00086  -0.00136  -0.00191
  47 2   H  1S         -0.00011  -0.00011  -0.00002  -0.00035  -0.00135
  48        2S          0.00081   0.00088   0.00245   0.00333  -0.00067
  49        3S          0.00611   0.00620   0.00182   0.00529  -0.00434
  50        4S         -0.00019  -0.00019   0.00011   0.00009  -0.00013
  51        5PX         0.00000   0.00000   0.00000   0.00000   0.00000
  52        5PY         0.00002   0.00002   0.00004  -0.00003  -0.00048
  53        5PZ         0.00001   0.00001   0.00001   0.00002  -0.00009
  54        6PX         0.00014  -0.00013   0.00000   0.00000   0.00000
  55        6PY         0.00046   0.00048   0.00046   0.00070  -0.00080
  56        6PZ         0.00044   0.00044  -0.00001  -0.00010   0.00024
  57        7PX         0.00065  -0.00065   0.00000   0.00000   0.00000
  58        7PY         0.00147   0.00150   0.00054   0.00135  -0.00102
  59        7PZ         0.00019   0.00019   0.00047   0.00092  -0.00006
  60        8D 0        0.00003   0.00003   0.00001   0.00007   0.00014
  61        8D+1       -0.00001   0.00001   0.00000   0.00000   0.00000
  62        8D-1        0.00007   0.00007   0.00002   0.00005  -0.00004
  63        8D+2       -0.00003  -0.00003  -0.00004  -0.00005   0.00028
  64        8D-2        0.00001  -0.00001   0.00000   0.00000   0.00000
  65        9D 0        0.00027   0.00028   0.00015   0.00025   0.00063
  66        9D+1        0.00018  -0.00017   0.00000   0.00000   0.00000
  67        9D-1        0.00009   0.00009  -0.00014  -0.00025   0.00001
  68        9D+2       -0.00009  -0.00009   0.00001   0.00003  -0.00010
  69        9D-2        0.00008  -0.00008   0.00000   0.00000   0.00000
  70 3   H  1S         -0.00004   0.00015  -0.00002  -0.00035  -0.00135
  71        2S          0.00028  -0.00113   0.00245   0.00334  -0.00065
  72        3S          0.00226  -0.00839   0.00180   0.00525  -0.00433
  73        4S         -0.00007   0.00026   0.00011   0.00009  -0.00013
  74        5PX         0.00001  -0.00003   0.00004  -0.00002  -0.00042
  75        5PY         0.00000   0.00002  -0.00002   0.00001   0.00024
  76        5PZ         0.00000  -0.00001   0.00001   0.00001  -0.00009
  77        6PX         0.00024  -0.00053   0.00040   0.00061  -0.00069
  78        6PY         0.00008   0.00036  -0.00023  -0.00035   0.00040
  79        6PZ         0.00016  -0.00059  -0.00001  -0.00010   0.00024
  80        7PX         0.00092  -0.00163   0.00046   0.00117  -0.00088
  81        7PY         0.00050   0.00122  -0.00027  -0.00067   0.00051
  82        7PZ         0.00007  -0.00025   0.00047   0.00091  -0.00006
  83        8D 0        0.00001  -0.00004   0.00001   0.00006   0.00014
  84        8D+1        0.00001  -0.00008   0.00002   0.00004  -0.00003
  85        8D-1       -0.00002   0.00004  -0.00001  -0.00002   0.00002
  86        8D+2        0.00001  -0.00002   0.00002   0.00003  -0.00014
  87        8D-2       -0.00001   0.00004  -0.00004  -0.00005   0.00024
  88        9D 0        0.00010  -0.00037   0.00015   0.00025   0.00063
  89        9D+1        0.00015  -0.00007  -0.00012  -0.00022   0.00001
  90        9D-1        0.00019   0.00012   0.00007   0.00013   0.00000
  91        9D+2        0.00011  -0.00004   0.00000  -0.00001   0.00005
  92        9D-2        0.00003   0.00012   0.00001   0.00002  -0.00008
  93 4   H  1S          0.00015  -0.00004  -0.00002  -0.00035  -0.00135
  94        2S         -0.00118   0.00034   0.00245   0.00331  -0.00068
  95        3S         -0.00842   0.00224   0.00185   0.00534  -0.00435
  96        4S          0.00026  -0.00007   0.00011   0.00010  -0.00013
  97        5PX         0.00003  -0.00001  -0.00004   0.00002   0.00042
  98        5PY         0.00002   0.00000  -0.00002   0.00001   0.00024
  99        5PZ        -0.00001   0.00000   0.00001   0.00002  -0.00009
 100        6PX         0.00053  -0.00024  -0.00039  -0.00060   0.00070
 101        6PY         0.00036   0.00007  -0.00023  -0.00034   0.00040
 102        6PZ        -0.00061   0.00016  -0.00001  -0.00009   0.00024
 103        7PX         0.00164  -0.00091  -0.00047  -0.00117   0.00088
 104        7PY         0.00122   0.00050  -0.00027  -0.00068   0.00051
 105        7PZ        -0.00028   0.00007   0.00048   0.00093  -0.00006
 106        8D 0       -0.00004   0.00001   0.00001   0.00007   0.00014
 107        8D+1        0.00008  -0.00001  -0.00002  -0.00004   0.00003
 108        8D-1        0.00004  -0.00003  -0.00001  -0.00002   0.00002
 109        8D+2       -0.00002   0.00001   0.00002   0.00003  -0.00014
 110        8D-2       -0.00004   0.00001   0.00004   0.00005  -0.00024
 111        9D 0       -0.00038   0.00010   0.00015   0.00025   0.00063
 112        9D+1        0.00007  -0.00015   0.00012   0.00022  -0.00001
 113        9D-1        0.00012   0.00019   0.00007   0.00013   0.00000
 114        9D+2       -0.00004   0.00011   0.00000  -0.00001   0.00005
 115        9D-2       -0.00012  -0.00003  -0.00001  -0.00002   0.00009
 116 5   Cl 1S         -0.00005   0.00005  -0.25059   0.14801  -0.02283
 117        2S          0.00016  -0.00016   0.84589  -0.50031   0.07825
 118        3S          0.00000   0.00000  -0.02309   0.00933  -0.00239
 119        4S          0.00001  -0.00001   0.06655  -0.04076   0.00643
 120        5S         -0.00002   0.00002  -0.00211   0.00777   0.00351
 121        6S          0.00000   0.00000  -0.00154  -0.00213   0.00300
 122        7PX         0.69453  -0.68975   0.00333   0.00602  -0.00022
 123        7PY         0.68977   0.69455   0.00022   0.00036  -0.00002
 124        7PZ        -0.00519   0.00456   0.50089   0.83585  -0.04717
 125        8PX        -0.01359   0.01349  -0.00006  -0.00009   0.00000
 126        8PY        -0.01349  -0.01359   0.00000  -0.00001   0.00000
 127        8PZ         0.00011  -0.00009  -0.00878  -0.01404   0.00011
 128        9PX         0.03713  -0.03688   0.00019   0.00035  -0.00001
 129        9PY         0.03688   0.03713   0.00001   0.00002   0.00000
 130        9PZ        -0.00028   0.00025   0.02844   0.04954  -0.00268
 131       10PX        -0.00410   0.00407  -0.00003  -0.00002  -0.00003
 132       10PY        -0.00407  -0.00410   0.00000   0.00000   0.00000
 133       10PZ         0.00004  -0.00004  -0.00435  -0.00275  -0.00347
 134       11PX        -0.00152   0.00151   0.00000   0.00000   0.00000
 135       11PY        -0.00151  -0.00152   0.00000   0.00000   0.00000
 136       11PZ         0.00001  -0.00001  -0.00036  -0.00015  -0.00053
 137       12D 0        0.00000   0.00000   0.00001  -0.00051  -0.00017
 138       12D+1       -0.00023   0.00022   0.00000   0.00000   0.00000
 139       12D-1       -0.00022  -0.00023   0.00000   0.00000   0.00000
 140       12D+2        0.00000   0.00001   0.00000   0.00000   0.00000
 141       12D-2        0.00000  -0.00001   0.00000   0.00000   0.00000
 142       13D 0       -0.00001   0.00001   0.00088   0.00244   0.00042
 143       13D+1        0.00057  -0.00057   0.00001   0.00002   0.00000
 144       13D-1        0.00057   0.00057   0.00000   0.00000   0.00000
 145       13D+2       -0.00001  -0.00002   0.00000   0.00000   0.00000
 146       13D-2       -0.00001   0.00002   0.00000   0.00000   0.00000
 147       14D 0        0.00000   0.00000   0.00058  -0.00018   0.00080
 148       14D+1       -0.00051   0.00050   0.00001   0.00000   0.00001
 149       14D-1       -0.00050  -0.00051   0.00000   0.00000   0.00000
 150       14D+2        0.00002   0.00002   0.00000   0.00000   0.00000
 151       14D-2        0.00002  -0.00002   0.00000   0.00000   0.00000
 152       15F 0        0.00000   0.00000   0.00001  -0.00007  -0.00003
 153       15F+1        0.00000   0.00000   0.00000   0.00000   0.00000
 154       15F-1        0.00000   0.00000   0.00000   0.00000   0.00000
 155       15F+2        0.00002   0.00002   0.00000   0.00000   0.00000
 156       15F-2        0.00002  -0.00002   0.00000   0.00000   0.00000
 157       15F+3        0.00000   0.00000   0.00000   0.00000   0.00000
 158       15F-3        0.00000   0.00000   0.00001   0.00003   0.00000
 159       16F 0        0.00000   0.00000  -0.00031  -0.00058  -0.00031
 160       16F+1       -0.00016   0.00016  -0.00001  -0.00001   0.00000
 161       16F-1       -0.00016  -0.00016   0.00000   0.00000   0.00000
 162       16F+2       -0.00003  -0.00002   0.00000   0.00000   0.00000
 163       16F-2       -0.00003   0.00002   0.00000   0.00000   0.00000
 164       16F+3        0.00000   0.00000   0.00000   0.00000   0.00000
 165       16F-3        0.00000   0.00000  -0.00002  -0.00005   0.00002
 166 6   F  1S          0.00001  -0.00001  -0.00144  -0.01041  -0.04976
 167        2S          0.00000   0.00000   0.00020   0.00043   0.00080
 168        3S          0.00000   0.00000  -0.00007  -0.00045  -0.00202
 169        4S         -0.00001   0.00001  -0.00055  -0.00105   0.00056
 170        5S         -0.00003   0.00003   0.00010  -0.00168   0.00178
 171        6PX        -0.00003   0.00003   0.00000   0.00000   0.00000
 172        6PY        -0.00003  -0.00003   0.00000   0.00000   0.00000
 173        6PZ         0.00000   0.00000   0.00058   0.00111   0.00011
 174        7PX        -0.00001   0.00000   0.00000   0.00000   0.00000
 175        7PY        -0.00001   0.00000   0.00000   0.00000   0.00000
 176        7PZ         0.00000   0.00000   0.00069   0.00132   0.00002
 177        8PX        -0.00017   0.00017   0.00000   0.00000   0.00000
 178        8PY        -0.00017  -0.00017   0.00000   0.00000   0.00000
 179        8PZ        -0.00001   0.00001   0.00008   0.00017   0.00048
 180        9PX        -0.00025   0.00025   0.00000   0.00000   0.00000
 181        9PY        -0.00025  -0.00025   0.00000   0.00000   0.00000
 182        9PZ        -0.00001   0.00001   0.00017  -0.00009   0.00071
 183       10D 0        0.00000   0.00000   0.00001   0.00001  -0.00002
 184       10D+1        0.00000   0.00000   0.00000   0.00000   0.00000
 185       10D-1        0.00000   0.00000   0.00000   0.00000   0.00000
 186       10D+2        0.00000   0.00000   0.00000   0.00000   0.00000
 187       10D-2        0.00000   0.00000   0.00000   0.00000   0.00000
 188       11D 0        0.00000   0.00000  -0.00003  -0.00010   0.00001
 189       11D+1        0.00003  -0.00003   0.00000   0.00000   0.00000
 190       11D-1        0.00003   0.00003   0.00000   0.00000   0.00000
 191       11D+2       -0.00002  -0.00002   0.00000   0.00000   0.00000
 192       11D-2       -0.00002   0.00002   0.00000   0.00000   0.00000
 193       12D 0        0.00000   0.00000  -0.00019  -0.00012   0.00011
 194       12D+1       -0.00016   0.00016   0.00000   0.00000   0.00000
 195       12D-1       -0.00016  -0.00016   0.00000   0.00000   0.00000
 196       12D+2        0.00008   0.00008   0.00000   0.00000   0.00000
 197       12D-2        0.00008  -0.00008   0.00000   0.00000   0.00000
 198       13F 0        0.00000   0.00000   0.00001  -0.00001  -0.00004
 199       13F+1        0.00001  -0.00001   0.00000   0.00000   0.00000
 200       13F-1        0.00001   0.00001   0.00000   0.00000   0.00000
 201       13F+2       -0.00001  -0.00001   0.00000   0.00000   0.00000
 202       13F-2       -0.00001   0.00001   0.00000   0.00000   0.00000
 203       13F+3        0.00000   0.00000   0.00000   0.00000   0.00000
 204       13F-3        0.00000   0.00000   0.00000   0.00000   0.00000
 205       14F 0        0.00000   0.00000  -0.00004   0.00002   0.00013
 206       14F+1       -0.00004   0.00004   0.00000   0.00000   0.00000
 207       14F-1       -0.00004  -0.00004   0.00000   0.00000   0.00000
 208       14F+2        0.00003   0.00003   0.00000   0.00000   0.00000
 209       14F-2        0.00003  -0.00003   0.00000   0.00000   0.00000
 210       14F+3        0.00000   0.00000   0.00000   0.00000   0.00000
 211       14F-3        0.00000   0.00000   0.00000   0.00000  -0.00001
                           6         7         8         9        10
     Eigenvalues --     2.00000   2.00000   1.98361   1.97543   1.96949
   1 1   C  1S          0.05039  -0.00046   0.01542  -0.07338  -0.14372
   2        2S         -0.00012  -0.00001  -0.04201   0.19910   0.39728
   3        3S          0.00230  -0.00003  -0.01040   0.04619   0.09614
   4        4S         -0.00699   0.00016   0.00556   0.07907   0.19079
   5        5S         -0.00016   0.00010   0.00785  -0.00690  -0.02889
   6        6PX         0.00000   0.00000  -0.00001   0.00018  -0.00014
   7        6PY         0.00000   0.00000   0.00000   0.00000  -0.00001
   8        6PZ         0.00004   0.00000   0.00646   0.01034  -0.02723
   9        7PX         0.00000   0.00000   0.00000   0.00021  -0.00017
  10        7PY         0.00000   0.00000   0.00000   0.00001  -0.00001
  11        7PZ        -0.00075   0.00000   0.00706   0.01790  -0.03246
  12        8PX         0.00001   0.00000   0.00008   0.00002  -0.00023
  13        8PY         0.00000   0.00000   0.00001   0.00000  -0.00001
  14        8PZ         0.00519   0.00009   0.01660   0.00589  -0.02271
  15        9PX         0.00000   0.00000   0.00000   0.00000  -0.00006
  16        9PY         0.00000   0.00000   0.00000   0.00000   0.00000
  17        9PZ         0.00011   0.00001  -0.00071   0.00033  -0.00407
  18       10D 0        0.00004   0.00000   0.00051  -0.00214  -0.00956
  19       10D+1        0.00000   0.00000   0.00000   0.00002   0.00000
  20       10D-1        0.00000   0.00000   0.00000   0.00000  -0.00001
  21       10D+2        0.00000   0.00000   0.00000   0.00000   0.00000
  22       10D-2        0.00000   0.00000   0.00000   0.00001  -0.00001
  23       11D 0       -0.00023  -0.00002  -0.00529   0.00462  -0.01876
  24       11D+1        0.00000   0.00000   0.00000   0.00010  -0.00002
  25       11D-1        0.00000   0.00000   0.00000   0.00000  -0.00001
  26       11D+2        0.00000   0.00000   0.00000   0.00000   0.00000
  27       11D-2        0.00000   0.00000   0.00001   0.00000  -0.00002
  28       12D 0        0.00027   0.00008   0.00206  -0.00841  -0.01668
  29       12D+1        0.00000   0.00000   0.00002  -0.00002  -0.00006
  30       12D-1        0.00000   0.00000   0.00000  -0.00001  -0.00001
  31       12D+2        0.00000   0.00000   0.00000   0.00000   0.00000
  32       12D-2        0.00000   0.00000   0.00002  -0.00001   0.00000
  33       13F 0       -0.00007   0.00000   0.00000   0.00242   0.00064
  34       13F+1        0.00000   0.00000   0.00000   0.00002   0.00000
  35       13F-1        0.00000   0.00000   0.00000   0.00000   0.00000
  36       13F+2        0.00000   0.00000   0.00000   0.00000   0.00000
  37       13F-2        0.00000   0.00000   0.00000   0.00000   0.00000
  38       13F+3        0.00000   0.00000   0.00000   0.00000   0.00000
  39       13F-3        0.00001   0.00000  -0.00014   0.00194   0.00397
  40       14F 0        0.00127  -0.00001   0.00471   0.00261  -0.00198
  41       14F+1        0.00000   0.00000   0.00001   0.00002  -0.00002
  42       14F-1        0.00000   0.00000   0.00001   0.00000   0.00000
  43       14F+2        0.00000   0.00000   0.00000   0.00000   0.00000
  44       14F-2        0.00000   0.00000   0.00000   0.00002   0.00001
  45       14F+3        0.00000   0.00000   0.00000   0.00000   0.00000
  46       14F-3       -0.00044   0.00003   0.00188  -0.00100   0.00404
  47 2   H  1S         -0.00008   0.00000  -0.00858   0.03717   0.08052
  48        2S          0.00098  -0.00006  -0.01531   0.04377   0.08371
  49        3S          0.00181   0.00004  -0.00090  -0.00491  -0.01204
  50        4S          0.00003   0.00000  -0.00047   0.00051   0.00039
  51        5PX         0.00000   0.00000   0.00000   0.00000   0.00000
  52        5PY         0.00001   0.00000  -0.00109   0.00399   0.00863
  53        5PZ        -0.00004   0.00000   0.00028   0.00095   0.00034
  54        6PX         0.00000   0.00000   0.00000   0.00001  -0.00001
  55        6PY         0.00008   0.00000  -0.00073   0.00080   0.00121
  56        6PZ         0.00032  -0.00001   0.00008   0.00243  -0.00051
  57        7PX         0.00000   0.00000   0.00001  -0.00001   0.00001
  58        7PY         0.00043   0.00001   0.00135  -0.00496  -0.01033
  59        7PZ        -0.00055   0.00001  -0.00280  -0.00173  -0.00131
  60        8D 0        0.00006   0.00000   0.00014  -0.00035  -0.00091
  61        8D+1        0.00000   0.00000   0.00000   0.00000   0.00000
  62        8D-1       -0.00001   0.00000  -0.00015   0.00049   0.00023
  63        8D+2       -0.00002   0.00000   0.00003  -0.00054  -0.00137
  64        8D-2        0.00000   0.00000   0.00000   0.00000   0.00000
  65        9D 0        0.00009  -0.00001  -0.00006   0.00122   0.00101
  66        9D+1        0.00000   0.00000   0.00000   0.00000   0.00000
  67        9D-1        0.00014   0.00000  -0.00006   0.00004  -0.00038
  68        9D+2        0.00004   0.00000  -0.00098   0.00225   0.00415
  69        9D-2        0.00000   0.00000   0.00000   0.00000   0.00000
  70 3   H  1S         -0.00008   0.00000  -0.00857   0.03708   0.08061
  71        2S          0.00098  -0.00006  -0.01528   0.04364   0.08381
  72        3S          0.00181   0.00004  -0.00081  -0.00491  -0.01208
  73        4S          0.00003   0.00000  -0.00047   0.00050   0.00036
  74        5PX         0.00001   0.00000  -0.00094   0.00345   0.00748
  75        5PY        -0.00001   0.00000   0.00054  -0.00199  -0.00432
  76        5PZ        -0.00004   0.00000   0.00028   0.00095   0.00035
  77        6PX         0.00007   0.00000  -0.00063   0.00069   0.00105
  78        6PY        -0.00004   0.00000   0.00036  -0.00039  -0.00061
  79        6PZ         0.00032  -0.00001   0.00008   0.00245  -0.00050
  80        7PX         0.00038   0.00001   0.00119  -0.00429  -0.00896
  81        7PY        -0.00022   0.00000  -0.00068   0.00247   0.00518
  82        7PZ        -0.00055   0.00001  -0.00279  -0.00173  -0.00131
  83        8D 0        0.00006   0.00000   0.00014  -0.00035  -0.00091
  84        8D+1       -0.00001   0.00000  -0.00013   0.00043   0.00020
  85        8D-1        0.00000   0.00000   0.00007  -0.00025  -0.00012
  86        8D+2        0.00001   0.00000  -0.00002   0.00027   0.00069
  87        8D-2       -0.00001   0.00000   0.00003  -0.00047  -0.00119
  88        9D 0        0.00009  -0.00001  -0.00006   0.00123   0.00101
  89        9D+1        0.00012   0.00000  -0.00005   0.00004  -0.00033
  90        9D-1       -0.00007   0.00000   0.00003  -0.00002   0.00019
  91        9D+2       -0.00002   0.00000   0.00049  -0.00113  -0.00208
  92        9D-2        0.00003   0.00000  -0.00085   0.00195   0.00360
  93 4   H  1S         -0.00008   0.00000  -0.00858   0.03726   0.08044
  94        2S          0.00097  -0.00006  -0.01534   0.04391   0.08362
  95        3S          0.00180   0.00004  -0.00100  -0.00490  -0.01200
  96        4S          0.00003   0.00000  -0.00047   0.00051   0.00043
  97        5PX        -0.00001   0.00000   0.00094  -0.00346  -0.00747
  98        5PY        -0.00001   0.00000   0.00054  -0.00200  -0.00431
  99        5PZ        -0.00004   0.00000   0.00028   0.00096   0.00035
 100        6PX        -0.00006   0.00000   0.00064  -0.00070  -0.00105
 101        6PY        -0.00004   0.00000   0.00037  -0.00041  -0.00060
 102        6PZ         0.00032  -0.00001   0.00008   0.00240  -0.00053
 103        7PX        -0.00037  -0.00001  -0.00115   0.00430   0.00892
 104        7PY        -0.00022   0.00000  -0.00067   0.00249   0.00515
 105        7PZ        -0.00055   0.00001  -0.00281  -0.00174  -0.00133
 106        8D 0        0.00006   0.00000   0.00014  -0.00035  -0.00091
 107        8D+1        0.00001   0.00000   0.00013  -0.00043  -0.00020
 108        8D-1        0.00000   0.00000   0.00007  -0.00025  -0.00012
 109        8D+2        0.00001   0.00000  -0.00002   0.00027   0.00069
 110        8D-2        0.00001   0.00000  -0.00003   0.00047   0.00118
 111        9D 0        0.00009  -0.00001  -0.00006   0.00122   0.00100
 112        9D+1       -0.00012   0.00000   0.00005  -0.00002   0.00033
 113        9D-1       -0.00007   0.00000   0.00003  -0.00001   0.00019
 114        9D+2       -0.00002   0.00000   0.00049  -0.00113  -0.00208
 115        9D-2       -0.00003   0.00000   0.00085  -0.00195  -0.00360
 116 5   Cl 1S          0.00007   0.99708  -0.00064   0.06648  -0.03479
 117        2S         -0.00007   0.01040   0.00292  -0.25193   0.13076
 118        3S          0.00005   0.00017  -0.00391   0.52472  -0.27821
 119        4S          0.00008   0.00026  -0.00025   0.06428  -0.03748
 120        5S         -0.00181  -0.00020  -0.01230   0.35096  -0.17054
 121        6S         -0.00050  -0.00011  -0.00461   0.02452   0.01130
 122        7PX         0.00005   0.00000   0.00001   0.00000   0.00010
 123        7PY         0.00000   0.00000   0.00000   0.00000   0.00001
 124        7PZ         0.00732   0.00016   0.00152   0.00459   0.02880
 125        8PX         0.00000   0.00000  -0.00002   0.00004  -0.00026
 126        8PY         0.00000   0.00000   0.00000   0.00000  -0.00003
 127        8PZ         0.00051  -0.00003  -0.00227  -0.00602  -0.07208
 128        9PX         0.00000   0.00000  -0.00002   0.00003  -0.00011
 129        9PY         0.00000   0.00000   0.00000   0.00000  -0.00001
 130        9PZ         0.00032   0.00003  -0.00264   0.00068  -0.03141
 131       10PX         0.00001   0.00000   0.00004   0.00003  -0.00024
 132       10PY         0.00000   0.00000   0.00000   0.00000  -0.00002
 133       10PZ         0.00096   0.00015   0.00271   0.00302  -0.05237
 134       11PX         0.00000   0.00000   0.00000   0.00001  -0.00004
 135       11PY         0.00000   0.00000   0.00000   0.00000   0.00000
 136       11PZ         0.00002   0.00002  -0.00040   0.00263  -0.00875
 137       12D 0       -0.00003   0.00001  -0.00035   0.00448   0.00453
 138       12D+1        0.00000   0.00000   0.00000   0.00003   0.00003
 139       12D-1        0.00000   0.00000   0.00000   0.00000   0.00000
 140       12D+2        0.00000   0.00000   0.00000   0.00000   0.00000
 141       12D-2        0.00000   0.00000   0.00000   0.00000   0.00000
 142       13D 0       -0.00022   0.00000  -0.00163   0.00820   0.00969
 143       13D+1       -0.00001   0.00000  -0.00002   0.00007   0.00009
 144       13D-1        0.00000   0.00000   0.00000   0.00001   0.00001
 145       13D+2        0.00000   0.00000   0.00000   0.00000   0.00000
 146       13D-2        0.00000   0.00000   0.00000   0.00000   0.00000
 147       14D 0       -0.00014  -0.00004  -0.00184  -0.00018   0.00538
 148       14D+1       -0.00001   0.00000  -0.00003   0.00000   0.00008
 149       14D-1        0.00000   0.00000   0.00000   0.00000   0.00000
 150       14D+2        0.00000   0.00000   0.00000   0.00000   0.00000
 151       14D-2        0.00000   0.00000   0.00000   0.00000   0.00000
 152       15F 0        0.00005   0.00000   0.00023  -0.00180  -0.00191
 153       15F+1        0.00000   0.00000   0.00000  -0.00002  -0.00002
 154       15F-1        0.00000   0.00000   0.00000   0.00000   0.00000
 155       15F+2        0.00000   0.00000   0.00000   0.00000   0.00000
 156       15F-2        0.00000   0.00000   0.00000   0.00000   0.00000
 157       15F+3        0.00000   0.00000   0.00000   0.00000   0.00000
 158       15F-3       -0.00001   0.00000  -0.00001   0.00002   0.00009
 159       16F 0       -0.00005   0.00001   0.00005  -0.00093  -0.00171
 160       16F+1        0.00000   0.00000   0.00001  -0.00002  -0.00003
 161       16F-1        0.00000   0.00000   0.00000   0.00000   0.00000
 162       16F+2        0.00000   0.00000   0.00000   0.00000   0.00000
 163       16F-2        0.00000   0.00000   0.00000   0.00000   0.00000
 164       16F+3        0.00000   0.00000   0.00000   0.00000   0.00000
 165       16F-3        0.00003   0.00000   0.00002  -0.00001  -0.00021
 166 6   F  1S          0.97743  -0.00002   0.21189   0.01315   0.02162
 167        2S         -0.01503   0.00000  -0.53161  -0.03405  -0.05732
 168        3S          0.04206   0.00000  -0.16471  -0.01081  -0.01853
 169        4S          0.00193  -0.00001  -0.36876  -0.02363  -0.04391
 170        5S         -0.00083  -0.00006  -0.04529   0.00420   0.00781
 171        6PX         0.00000   0.00000  -0.00004   0.00003   0.00007
 172        6PY         0.00000   0.00000   0.00001   0.00001   0.00004
 173        6PZ         0.00048   0.00000   0.01352   0.01270   0.08749
 174        7PX         0.00000   0.00000  -0.00005   0.00003   0.00008
 175        7PY         0.00000   0.00000   0.00001   0.00001   0.00004
 176        7PZ        -0.00012   0.00000   0.01475   0.01551   0.10527
 177        8PX         0.00000   0.00000  -0.00004   0.00002   0.00007
 178        8PY         0.00000   0.00000   0.00001   0.00001   0.00004
 179        8PZ         0.00240  -0.00001   0.01247   0.01225   0.08373
 180        9PX         0.00000   0.00000  -0.00001   0.00000   0.00002
 181        9PY         0.00000   0.00000   0.00000   0.00000   0.00001
 182        9PZ        -0.00008  -0.00002   0.00220   0.00316   0.02424
 183       10D 0       -0.00002   0.00000  -0.00013   0.00017   0.00060
 184       10D+1        0.00000   0.00000   0.00000   0.00000   0.00000
 185       10D-1        0.00000   0.00000   0.00000   0.00000   0.00000
 186       10D+2        0.00000   0.00000   0.00000   0.00000   0.00000
 187       10D-2        0.00000   0.00000   0.00000   0.00000   0.00000
 188       11D 0       -0.00003   0.00000  -0.00104   0.00091   0.00275
 189       11D+1        0.00000   0.00000   0.00000   0.00000   0.00000
 190       11D-1        0.00000   0.00000   0.00000   0.00000   0.00000
 191       11D+2        0.00000   0.00000   0.00000   0.00000   0.00000
 192       11D-2        0.00000   0.00000   0.00000   0.00000   0.00000
 193       12D 0        0.00080   0.00000  -0.00055   0.00035   0.00386
 194       12D+1        0.00000   0.00000   0.00000   0.00000   0.00001
 195       12D-1        0.00000   0.00000   0.00000   0.00000   0.00000
 196       12D+2        0.00000   0.00000   0.00000   0.00000   0.00000
 197       12D-2        0.00000   0.00000   0.00000   0.00000   0.00000
 198       13F 0       -0.00006   0.00000  -0.00002   0.00013   0.00027
 199       13F+1        0.00000   0.00000   0.00000   0.00000   0.00000
 200       13F-1        0.00000   0.00000   0.00000   0.00000   0.00000
 201       13F+2        0.00000   0.00000   0.00000   0.00000   0.00000
 202       13F-2        0.00000   0.00000   0.00000   0.00000   0.00000
 203       13F+3        0.00000   0.00000   0.00000   0.00000   0.00000
 204       13F-3        0.00001   0.00000   0.00001   0.00002   0.00003
 205       14F 0        0.00020   0.00000  -0.00040  -0.00006   0.00063
 206       14F+1        0.00000   0.00000   0.00000   0.00000   0.00000
 207       14F-1        0.00000   0.00000   0.00000   0.00000   0.00000
 208       14F+2        0.00000   0.00000   0.00000   0.00000   0.00000
 209       14F-2        0.00000   0.00000   0.00000   0.00000   0.00000
 210       14F+3        0.00000   0.00000   0.00000   0.00000   0.00000
 211       14F-3       -0.00001   0.00000  -0.00007  -0.00006  -0.00009
                          11        12        13        14        15
     Eigenvalues --     1.96437   1.96437   1.95923   1.95923   1.94911
   1 1   C  1S          0.00004   0.00005  -0.00002  -0.00002  -0.00022
   2        2S         -0.00012  -0.00013   0.00004   0.00004   0.00064
   3        3S         -0.00003  -0.00003   0.00001   0.00001   0.00014
   4        4S         -0.00007  -0.00007   0.00008   0.00007   0.00200
   5        5S         -0.00008  -0.00008   0.00009   0.00009   0.00030
   6        6PX         0.06752   0.07081   0.16377   0.16298  -0.04796
   7        6PY         0.07084  -0.06749   0.16293  -0.16382   0.04799
   8        6PZ        -0.00011  -0.00005  -0.00019  -0.00005   0.00028
   9        7PX         0.09046   0.09488   0.21708   0.21601  -0.06666
  10        7PY         0.09492  -0.09042   0.21597  -0.21712   0.06671
  11        7PZ        -0.00015  -0.00007  -0.00024  -0.00005   0.00039
  12        8PX         0.06624   0.06944   0.16768   0.16665  -0.05129
  13        8PY         0.06951  -0.06618   0.16682  -0.16750   0.05133
  14        8PZ        -0.00012  -0.00006  -0.00027  -0.00012   0.00033
  15        9PX        -0.00149  -0.00160   0.01343   0.01337  -0.00866
  16        9PY        -0.00157   0.00153   0.01336  -0.01344   0.00867
  17        9PZ         0.00000   0.00000  -0.00003  -0.00002   0.00002
  18       10D 0        0.00001   0.00001   0.00000   0.00000  -0.00006
  19       10D+1       -0.00187  -0.00196  -0.00091  -0.00090   0.00264
  20       10D-1       -0.00196   0.00186  -0.00089   0.00089  -0.00264
  21       10D+2        0.00451  -0.00430   0.01045  -0.01051   0.00356
  22       10D-2        0.00430   0.00452   0.01050   0.01047  -0.00356
  23       11D 0        0.00003   0.00001  -0.00002  -0.00001  -0.00037
  24       11D+1       -0.00879  -0.00922   0.00541   0.00537   0.01094
  25       11D-1       -0.00921   0.00878   0.00541  -0.00543  -0.01094
  26       11D+2        0.01496  -0.01424   0.03201  -0.03210   0.01212
  27       11D-2        0.01423   0.01494   0.03215   0.03197  -0.01211
  28       12D 0        0.00000   0.00000  -0.00001   0.00000  -0.00018
  29       12D+1       -0.00423  -0.00440   0.00402   0.00400  -0.00086
  30       12D-1       -0.00442   0.00418   0.00402  -0.00404   0.00087
  31       12D+2        0.01454  -0.01385   0.02544  -0.02546   0.00715
  32       12D-2        0.01384   0.01454   0.02555   0.02535  -0.00715
  33       13F 0        0.00000   0.00000   0.00000   0.00000   0.00000
  34       13F+1        0.00017   0.00018  -0.00143  -0.00142   0.00158
  35       13F-1        0.00018  -0.00017  -0.00142   0.00142  -0.00158
  36       13F+2       -0.00046   0.00044  -0.00008   0.00009  -0.00023
  37       13F-2       -0.00044  -0.00046  -0.00008  -0.00009   0.00023
  38       13F+3        0.00000   0.00000   0.00000   0.00000   0.00000
  39       13F-3        0.00000   0.00000   0.00000   0.00000   0.00002
  40       14F 0       -0.00001  -0.00001  -0.00001  -0.00002  -0.00001
  41       14F+1        0.00027   0.00028  -0.00413  -0.00412   0.00514
  42       14F-1        0.00027  -0.00026  -0.00411   0.00414  -0.00515
  43       14F+2       -0.00279   0.00267  -0.00007   0.00011  -0.00226
  44       14F-2       -0.00265  -0.00281  -0.00007  -0.00011   0.00227
  45       14F+3        0.00000   0.00000   0.00001  -0.00001   0.00000
  46       14F-3        0.00000   0.00000   0.00000   0.00000   0.00012
  47 2   H  1S         -0.04876   0.04640  -0.10688   0.10747  -0.03289
  48        2S         -0.04398   0.04186  -0.10885   0.10955  -0.03264
  49        3S          0.04194  -0.03993   0.08435  -0.08441   0.00350
  50        4S         -0.00417   0.00401   0.01225  -0.01233   0.00077
  51        5PX         0.00144   0.00151   0.00310   0.00308  -0.00074
  52        5PY        -0.00383   0.00364  -0.00874   0.00879  -0.00254
  53        5PZ         0.00002  -0.00002  -0.00197   0.00198   0.00014
  54        6PX         0.00555   0.00581   0.00968   0.00959  -0.00263
  55        6PY         0.00522  -0.00497   0.00794  -0.00796   0.00391
  56        6PZ        -0.00201   0.00192   0.00029  -0.00026  -0.00082
  57        7PX         0.00639   0.00671   0.00951   0.00938  -0.00199
  58        7PY         0.01018  -0.00970   0.03220  -0.03230   0.00676
  59        7PZ         0.00046  -0.00046   0.00536  -0.00537   0.00204
  60        8D 0        0.00030  -0.00028   0.00096  -0.00096   0.00029
  61        8D+1        0.00001   0.00001   0.00022   0.00022   0.00002
  62        8D-1       -0.00054   0.00052  -0.00017   0.00017  -0.00021
  63        8D+2        0.00044  -0.00041   0.00136  -0.00136   0.00037
  64        8D-2        0.00073   0.00076   0.00159   0.00158  -0.00042
  65        9D 0       -0.00039   0.00037   0.00103  -0.00104  -0.00012
  66        9D+1       -0.00106  -0.00112   0.00071   0.00069   0.00083
  67        9D-1       -0.00241   0.00230   0.00241  -0.00242  -0.00034
  68        9D+2       -0.00116   0.00111  -0.00188   0.00189  -0.00077
  69        9D-2        0.00114   0.00119   0.00205   0.00203  -0.00080
  70 3   H  1S         -0.01587  -0.06544  -0.03956  -0.14633   0.04533
  71        2S         -0.01432  -0.05904  -0.04030  -0.14917   0.04433
  72        3S          0.01363   0.05621   0.03121   0.11491  -0.00535
  73        4S         -0.00135  -0.00564   0.00453   0.01678  -0.00108
  74        5PX        -0.00006  -0.00469  -0.00069  -0.01093   0.00315
  75        5PY         0.00238   0.00214   0.00527   0.00499  -0.00150
  76        5PZ         0.00000   0.00002  -0.00074  -0.00270  -0.00015
  77        6PX         0.00538   0.00512   0.00913   0.00762  -0.00427
  78        6PY         0.00591  -0.00514   0.00993  -0.00850   0.00358
  79        6PZ        -0.00066  -0.00271   0.00010   0.00036   0.00113
  80        7PX         0.00737   0.01074   0.01679   0.03634  -0.00783
  81        7PY         0.00614  -0.00872   0.00524  -0.02499   0.00536
  82        7PZ         0.00015   0.00067   0.00199   0.00734  -0.00295
  83        8D 0        0.00010   0.00040   0.00035   0.00131  -0.00039
  84        8D+1       -0.00014  -0.00063   0.00010  -0.00025   0.00024
  85        8D-1        0.00010   0.00036   0.00030   0.00005  -0.00015
  86        8D+2        0.00081  -0.00051   0.00163  -0.00143   0.00039
  87        8D-2        0.00063   0.00038   0.00152   0.00131  -0.00036
  88        9D 0       -0.00013  -0.00053   0.00038   0.00143   0.00016
  89        9D+1       -0.00142  -0.00262   0.00126   0.00274   0.00022
  90        9D-1       -0.00090   0.00193   0.00040  -0.00187  -0.00048
  91        9D+2        0.00158   0.00045   0.00276   0.00064  -0.00026
  92        9D-2        0.00047  -0.00155   0.00079  -0.00260   0.00103
  93 4   H  1S          0.06456   0.01896   0.14648   0.03889  -0.01191
  94        2S          0.05823   0.01710   0.14918   0.03965  -0.01200
  95        3S         -0.05562  -0.01634  -0.11563  -0.03055   0.00112
  96        4S          0.00552   0.00164  -0.01680  -0.00446   0.00027
  97        5PX        -0.00468  -0.00029  -0.01093  -0.00064   0.00029
  98        5PY        -0.00202  -0.00248  -0.00501  -0.00525   0.00134
  99        5PZ        -0.00003  -0.00001   0.00271   0.00072   0.00006
 100        6PX         0.00485   0.00561   0.00766   0.00907  -0.00301
 101        6PY         0.00542  -0.00566   0.00847  -0.00996   0.00242
 102        6PZ         0.00265   0.00078  -0.00041  -0.00009  -0.00030
 103        7PX         0.01038   0.00788   0.03650   0.01656  -0.00345
 104        7PY         0.00901  -0.00571   0.02504  -0.00531   0.00115
 105        7PZ        -0.00061  -0.00019  -0.00739  -0.00195   0.00070
 106        8D 0       -0.00039  -0.00012  -0.00131  -0.00035   0.00011
 107        8D+1       -0.00062  -0.00017  -0.00024   0.00010   0.00008
 108        8D-1       -0.00035  -0.00012  -0.00005  -0.00030   0.00001
 109        8D+2        0.00055  -0.00079   0.00143  -0.00163   0.00043
 110        8D-2        0.00035   0.00065   0.00132   0.00151  -0.00040
 111        9D 0        0.00052   0.00015  -0.00141  -0.00037  -0.00004
 112        9D+1       -0.00255  -0.00155   0.00273   0.00123   0.00069
 113        9D-1       -0.00197   0.00081   0.00187  -0.00039  -0.00092
 114        9D+2       -0.00037  -0.00160  -0.00065  -0.00274   0.00109
 115        9D-2       -0.00157   0.00040  -0.00260   0.00080  -0.00030
 116 5   Cl 1S         -0.00002  -0.00002  -0.00006  -0.00006  -0.00004
 117        2S          0.00007   0.00007   0.00022   0.00021   0.00015
 118        3S         -0.00015  -0.00015  -0.00045  -0.00044  -0.00030
 119        4S         -0.00002  -0.00002  -0.00007  -0.00007  -0.00004
 120        5S         -0.00013  -0.00013  -0.00042  -0.00041  -0.00020
 121        6S          0.00004   0.00004  -0.00009  -0.00008  -0.00005
 122        7PX        -0.00608  -0.00636  -0.03097  -0.03069  -0.15804
 123        7PY        -0.00638   0.00606  -0.03081   0.03085   0.15817
 124        7PZ         0.00007   0.00006   0.00032   0.00029   0.00068
 125        8PX         0.01441   0.01505   0.07317   0.07253   0.36155
 126        8PY         0.01511  -0.01434   0.07280  -0.07291  -0.36183
 127        8PZ        -0.00014  -0.00014  -0.00074  -0.00067  -0.00157
 128        9PX         0.00669   0.00698   0.03385   0.03354   0.17465
 129        9PY         0.00701  -0.00665   0.03368  -0.03372  -0.17479
 130        9PZ        -0.00007  -0.00007  -0.00035  -0.00032  -0.00076
 131       10PX         0.00719   0.00751   0.03961   0.03927   0.25988
 132       10PY         0.00754  -0.00715   0.03941  -0.03948  -0.26008
 133       10PZ        -0.00007  -0.00007  -0.00032  -0.00028  -0.00104
 134       11PX         0.00146   0.00154   0.00241   0.00238   0.04392
 135       11PY         0.00154  -0.00146   0.00240  -0.00239  -0.04396
 136       11PZ        -0.00002  -0.00002   0.00001   0.00002  -0.00014
 137       12D 0        0.00002   0.00002   0.00008   0.00007   0.00001
 138       12D+1       -0.00131  -0.00136  -0.00439  -0.00435  -0.00016
 139       12D-1       -0.00137   0.00130  -0.00437   0.00437   0.00016
 140       12D+2        0.00008  -0.00008   0.00037  -0.00041   0.00017
 141       12D-2        0.00007   0.00009   0.00036   0.00040  -0.00017
 142       13D 0        0.00003   0.00003   0.00011   0.00010   0.00002
 143       13D+1       -0.00201  -0.00210  -0.00777  -0.00772  -0.00050
 144       13D-1       -0.00211   0.00200  -0.00773   0.00776   0.00050
 145       13D+2        0.00022  -0.00023   0.00042  -0.00050   0.00040
 146       13D-2        0.00021   0.00024   0.00042   0.00049  -0.00040
 147       14D 0        0.00000   0.00000   0.00001   0.00001  -0.00001
 148       14D+1        0.00004   0.00005   0.00004   0.00003  -0.00238
 149       14D-1        0.00004  -0.00005   0.00004  -0.00003   0.00238
 150       14D+2       -0.00047   0.00046  -0.00004   0.00006   0.00004
 151       14D-2       -0.00045  -0.00048  -0.00005  -0.00006  -0.00004
 152       15F 0       -0.00001  -0.00001  -0.00003  -0.00003  -0.00002
 153       15F+1        0.00061   0.00064   0.00186   0.00185   0.00100
 154       15F-1        0.00064  -0.00061   0.00186  -0.00186  -0.00100
 155       15F+2       -0.00008   0.00008  -0.00023   0.00026  -0.00006
 156       15F-2       -0.00007  -0.00009  -0.00022  -0.00025   0.00006
 157       15F+3        0.00000   0.00000   0.00000   0.00000   0.00000
 158       15F-3        0.00000   0.00000   0.00000   0.00000   0.00000
 159       16F 0        0.00000   0.00000  -0.00002  -0.00002  -0.00002
 160       16F+1        0.00041   0.00043   0.00142   0.00142   0.00127
 161       16F-1        0.00043  -0.00041   0.00141  -0.00143  -0.00127
 162       16F+2        0.00001  -0.00001   0.00014  -0.00012  -0.00013
 163       16F-2        0.00001   0.00001   0.00014   0.00012   0.00013
 164       16F+3        0.00000   0.00000   0.00000   0.00000   0.00000
 165       16F-3        0.00000   0.00000   0.00000   0.00000   0.00000
 166 6   F  1S          0.00001   0.00001   0.00001   0.00001   0.00006
 167        2S         -0.00002  -0.00002  -0.00001  -0.00001  -0.00012
 168        3S         -0.00001  -0.00001   0.00000  -0.00001  -0.00004
 169        4S         -0.00001  -0.00002  -0.00004  -0.00004  -0.00008
 170        5S         -0.00001  -0.00001  -0.00006  -0.00006  -0.00006
 171        6PX         0.22918   0.24050  -0.11484  -0.11422   0.01597
 172        6PY         0.24048  -0.22920  -0.11425   0.11480  -0.01599
 173        6PZ         0.00007   0.00030  -0.00004  -0.00014  -0.00197
 174        7PX         0.27338   0.28688  -0.13616  -0.13543   0.01891
 175        7PY         0.28686  -0.27341  -0.13547   0.13613  -0.01892
 176        7PZ         0.00008   0.00035  -0.00005  -0.00017  -0.00234
 177        8PX         0.22102   0.23194  -0.11454  -0.11392   0.01619
 178        8PY         0.23192  -0.22104  -0.11396   0.11451  -0.01620
 179        8PZ         0.00006   0.00028  -0.00007  -0.00017  -0.00195
 180        9PX         0.06948   0.07291  -0.04039  -0.04018   0.00788
 181        9PY         0.07290  -0.06948  -0.04018   0.04038  -0.00789
 182        9PZ         0.00002   0.00009  -0.00003  -0.00007  -0.00061
 183       10D 0        0.00000   0.00000   0.00000   0.00000  -0.00001
 184       10D+1        0.00042   0.00044   0.00007   0.00007  -0.00008
 185       10D-1        0.00044  -0.00042   0.00007  -0.00007   0.00008
 186       10D+2        0.00002  -0.00002   0.00003  -0.00003   0.00001
 187       10D-2        0.00002   0.00002   0.00003   0.00003  -0.00001
 188       11D 0        0.00000   0.00000   0.00000   0.00000  -0.00001
 189       11D+1        0.00167   0.00175   0.00086   0.00086  -0.00042
 190       11D-1        0.00175  -0.00167   0.00086  -0.00086   0.00042
 191       11D+2        0.00003  -0.00003   0.00018  -0.00018   0.00012
 192       11D-2        0.00003   0.00004   0.00018   0.00018  -0.00012
 193       12D 0        0.00000   0.00001  -0.00001  -0.00001  -0.00007
 194       12D+1        0.00409   0.00430  -0.00252  -0.00251  -0.00022
 195       12D-1        0.00430  -0.00409  -0.00251   0.00252   0.00022
 196       12D+2        0.00002  -0.00002  -0.00019   0.00020  -0.00026
 197       12D-2        0.00002   0.00003  -0.00020  -0.00020   0.00026
 198       13F 0        0.00000   0.00000   0.00000   0.00000   0.00000
 199       13F+1        0.00015   0.00016   0.00018   0.00018  -0.00004
 200       13F-1        0.00016  -0.00015   0.00018  -0.00018   0.00004
 201       13F+2        0.00004  -0.00004   0.00008  -0.00008   0.00004
 202       13F-2        0.00004   0.00004   0.00008   0.00008  -0.00004
 203       13F+3        0.00000   0.00000   0.00000   0.00000   0.00000
 204       13F-3        0.00000   0.00000   0.00000   0.00000   0.00000
 205       14F 0        0.00000   0.00000   0.00000   0.00000  -0.00001
 206       14F+1        0.00101   0.00105  -0.00062  -0.00061  -0.00001
 207       14F-1        0.00105  -0.00100  -0.00062   0.00062   0.00001
 208       14F+2       -0.00010   0.00009  -0.00017   0.00017  -0.00011
 209       14F-2       -0.00009  -0.00009  -0.00017  -0.00017   0.00011
 210       14F+3        0.00000   0.00000   0.00000   0.00000   0.00000
 211       14F-3        0.00000   0.00000   0.00000   0.00000   0.00000
                          16        17        18        19        20
     Eigenvalues --     1.94911   1.94879   1.93535   0.06018   0.02494
   1 1   C  1S          0.00022   0.05334  -0.01580  -0.02406  -0.00003
   2        2S         -0.00062  -0.15185   0.05098   0.06679   0.00014
   3        3S         -0.00014  -0.03584   0.01676   0.02431   0.00008
   4        4S         -0.00197  -0.29232   0.08712  -0.22162  -0.00107
   5        5S         -0.00029  -0.05764   0.03919  -0.02903  -0.00025
   6        6PX         0.04821  -0.00058   0.00015   0.00011  -0.09045
   7        6PY         0.04818  -0.00001  -0.00006   0.00012   0.12531
   8        6PZ        -0.00032  -0.04569  -0.12871   0.27936  -0.00001
   9        7PX         0.06699  -0.00085   0.00021   0.00010  -0.16779
  10        7PY         0.06694  -0.00002  -0.00008   0.00019   0.23250
  11        7PZ        -0.00044  -0.06474  -0.18058   0.44329  -0.00003
  12        8PX         0.05153  -0.00087   0.00045  -0.00013  -0.07665
  13        8PY         0.05150  -0.00002  -0.00003   0.00009   0.10638
  14        8PZ        -0.00037  -0.06421  -0.07659   0.20175  -0.00027
  15        9PX         0.00867  -0.00013   0.00012  -0.00008  -0.01721
  16        9PY         0.00866   0.00000   0.00000   0.00000   0.02386
  17        9PZ        -0.00002  -0.00123  -0.00166  -0.00006   0.00006
  18       10D 0        0.00006   0.00935  -0.01106  -0.00881   0.00000
  19       10D+1       -0.00264   0.00005  -0.00006  -0.00004  -0.01494
  20       10D-1       -0.00264   0.00001  -0.00001  -0.00001   0.02070
  21       10D+2        0.00355   0.00000   0.00000   0.00000   0.00316
  22       10D-2        0.00354  -0.00005   0.00002   0.00002  -0.00228
  23       11D 0        0.00038   0.04984  -0.04570   0.06670   0.00005
  24       11D+1       -0.01095   0.00021  -0.00018   0.00050  -0.03498
  25       11D-1       -0.01093   0.00004  -0.00003   0.00005   0.04855
  26       11D+2        0.01204   0.00000   0.00000   0.00000   0.05668
  27       11D-2        0.01203  -0.00020   0.00009  -0.00001  -0.04089
  28       12D 0        0.00018   0.02816  -0.00380  -0.01697  -0.00003
  29       12D+1        0.00081   0.00002   0.00002   0.00001  -0.01087
  30       12D-1        0.00081   0.00002   0.00000  -0.00001   0.01517
  31       12D+2        0.00715   0.00000   0.00000   0.00000   0.01167
  32       12D-2        0.00715  -0.00019   0.00006   0.00000  -0.00835
  33       13F 0        0.00000  -0.00208  -0.00328  -0.00586   0.00001
  34       13F+1       -0.00158   0.00002  -0.00004   0.00002   0.00560
  35       13F-1       -0.00158   0.00000   0.00000  -0.00001  -0.00777
  36       13F+2       -0.00024   0.00000   0.00000   0.00000   0.00254
  37       13F-2       -0.00024   0.00001   0.00000   0.00002  -0.00182
  38       13F+3        0.00000   0.00000   0.00000   0.00000   0.00000
  39       13F-3       -0.00002  -0.00308   0.00115  -0.00053   0.00000
  40       14F 0        0.00002  -0.00547  -0.00087   0.01161  -0.00005
  41       14F+1       -0.00512   0.00005  -0.00003   0.00018   0.00146
  42       14F-1       -0.00512  -0.00001   0.00000   0.00001  -0.00204
  43       14F+2       -0.00232   0.00001   0.00000   0.00002  -0.00181
  44       14F-2       -0.00233   0.00003  -0.00001   0.00018   0.00135
  45       14F+3        0.00000  -0.00001   0.00000  -0.00001   0.00001
  46       14F-3       -0.00012  -0.01509   0.00917  -0.03771  -0.00008
  47 2   H  1S         -0.03329  -0.03380   0.02884  -0.00683   0.03282
  48        2S         -0.03252  -0.00312   0.02282   0.07999   0.20935
  49        3S          0.00408   0.02198   0.02032   0.06877   0.13310
  50        4S          0.00077   0.00012   0.00193   0.00722   0.05837
  51        5PX         0.00075  -0.00001   0.00000   0.00000  -0.00164
  52        5PY        -0.00256  -0.00215   0.00248  -0.00201  -0.00710
  53        5PZ         0.00011  -0.00267  -0.00321   0.01430  -0.00990
  54        6PX         0.00266  -0.00004   0.00001   0.00005  -0.00435
  55        6PY         0.00402   0.00552  -0.00154   0.00982   0.04788
  56        6PZ        -0.00084  -0.00100  -0.01029   0.02820  -0.00469
  57        7PX         0.00201  -0.00008   0.00003   0.00003   0.00112
  58        7PY         0.00699   0.01110  -0.00164   0.01272   0.04099
  59        7PZ         0.00213   0.00807   0.00317  -0.01401   0.00417
  60        8D 0        0.00029   0.00014  -0.00085   0.00060   0.00208
  61        8D+1       -0.00002   0.00000   0.00000   0.00000  -0.00105
  62        8D-1       -0.00021  -0.00020  -0.00171   0.00673  -0.00324
  63        8D+2        0.00037   0.00052  -0.00061   0.00186   0.00209
  64        8D-2        0.00043  -0.00001   0.00000   0.00001  -0.00123
  65        9D 0       -0.00010   0.00083  -0.00283   0.00597  -0.00267
  66        9D+1       -0.00084   0.00001   0.00001   0.00002  -0.00259
  67        9D-1       -0.00031   0.00202  -0.00055  -0.00588   0.01251
  68        9D+2       -0.00076   0.00108   0.00035  -0.00113  -0.00768
  69        9D-2        0.00080  -0.00002   0.00000   0.00001  -0.00066
  70 3   H  1S         -0.01231  -0.03344   0.02870  -0.00707  -0.03699
  71        2S         -0.01185  -0.00285   0.02267   0.07945  -0.23507
  72        3S          0.00164   0.02168   0.02031   0.06863  -0.14933
  73        4S          0.00029   0.00013   0.00196   0.00714  -0.06564
  74        5PX        -0.00030  -0.00184   0.00215  -0.00176   0.00750
  75        5PY         0.00136   0.00105  -0.00124   0.00103  -0.00301
  76        5PZ         0.00003  -0.00268  -0.00321   0.01429   0.01112
  77        6PX         0.00312   0.00471  -0.00130   0.00843  -0.04503
  78        6PY         0.00239  -0.00274   0.00075  -0.00483   0.02954
  79        6PZ        -0.00031  -0.00101  -0.01028   0.02847   0.00527
  80        7PX         0.00364   0.00947  -0.00135   0.01101  -0.04021
  81        7PY         0.00106  -0.00552   0.00080  -0.00634   0.02238
  82        7PZ         0.00083   0.00803   0.00313  -0.01387  -0.00467
  83        8D 0        0.00010   0.00014  -0.00084   0.00063  -0.00233
  84        8D+1       -0.00008  -0.00018  -0.00148   0.00585   0.00353
  85        8D-1        0.00001   0.00010   0.00085  -0.00338  -0.00119
  86        8D+2        0.00044  -0.00026   0.00030  -0.00093   0.00193
  87        8D-2        0.00041   0.00045  -0.00052   0.00162  -0.00161
  88        9D 0       -0.00003   0.00084  -0.00282   0.00604   0.00298
  89        9D+1       -0.00066   0.00176  -0.00047  -0.00503  -0.01129
  90        9D-1       -0.00094  -0.00101   0.00028   0.00292   0.00863
  91        9D+2        0.00108  -0.00056  -0.00017   0.00057  -0.00391
  92        9D-2        0.00031   0.00095   0.00030  -0.00098   0.00772
  93 4   H  1S          0.04508  -0.03415   0.02899  -0.00659   0.00410
  94        2S          0.04468  -0.00338   0.02297   0.08053   0.02632
  95        3S         -0.00500   0.02229   0.02033   0.06888   0.01662
  96        4S         -0.00102   0.00011   0.00190   0.00730   0.00730
  97        5PX        -0.00315   0.00187  -0.00216   0.00172  -0.00062
  98        5PY        -0.00150   0.00109  -0.00125   0.00100   0.00284
  99        5PZ        -0.00019  -0.00267  -0.00322   0.01430  -0.00124
 100        6PX         0.00415  -0.00486   0.00135  -0.00855  -0.00892
 101        6PY         0.00352  -0.00278   0.00077  -0.00495   0.00341
 102        6PZ         0.00113  -0.00098  -0.01030   0.02793  -0.00062
 103        7PX         0.00771  -0.00975   0.00148  -0.01103  -0.00353
 104        7PY         0.00530  -0.00558   0.00084  -0.00639  -0.00418
 105        7PZ        -0.00276   0.00813   0.00321  -0.01414   0.00048
 106        8D 0       -0.00040   0.00015  -0.00085   0.00058   0.00026
 107        8D+1       -0.00024   0.00018   0.00148  -0.00580  -0.00054
 108        8D-1       -0.00015   0.00010   0.00085  -0.00335   0.00176
 109        8D+2        0.00039  -0.00026   0.00030  -0.00093   0.00168
 110        8D-2        0.00036  -0.00046   0.00053  -0.00161  -0.00127
 111        9D 0        0.00013   0.00083  -0.00283   0.00590  -0.00033
 112        9D+1       -0.00024  -0.00174   0.00047   0.00516  -0.00355
 113        9D-1       -0.00049  -0.00101   0.00026   0.00297   0.00304
 114        9D+2       -0.00028  -0.00053  -0.00018   0.00056   0.00146
 115        9D-2       -0.00106  -0.00093  -0.00031   0.00099   0.00026
 116 5   Cl 1S          0.00004   0.01021   0.00050  -0.01679   0.00001
 117        2S         -0.00014  -0.03897  -0.00167   0.05629  -0.00004
 118        3S          0.00029   0.08054   0.01125  -0.15673   0.00002
 119        4S          0.00004   0.01243   0.00452  -0.03985   0.00001
 120        5S          0.00020   0.06906   0.01221  -0.04599   0.00031
 121        6S          0.00005   0.02044  -0.01254   0.01585   0.00020
 122        7PX         0.15814  -0.00163  -0.00118  -0.00102  -0.01233
 123        7PY         0.15803   0.00003  -0.00009  -0.00007   0.01707
 124        7PZ        -0.00082   0.02664  -0.21012  -0.16340   0.00011
 125        8PX        -0.36178   0.00373   0.00261   0.00222   0.01925
 126        8PY        -0.36153  -0.00006   0.00020   0.00016  -0.02662
 127        8PZ         0.00189  -0.06220   0.46462   0.36064  -0.00028
 128        9PX        -0.17476   0.00179   0.00121   0.00128   0.02049
 129        9PY        -0.17464  -0.00003   0.00009   0.00009  -0.02837
 130        9PZ         0.00091  -0.03102   0.21829   0.20646  -0.00016
 131       10PX        -0.26006   0.00256   0.00171   0.00016  -0.00996
 132       10PY        -0.25988  -0.00006   0.00014   0.00001   0.01371
 133       10PZ         0.00127  -0.07222   0.31777   0.02931  -0.00019
 134       11PX        -0.04397   0.00039   0.00019   0.00005  -0.00347
 135       11PY        -0.04394  -0.00001   0.00002   0.00000   0.00481
 136       11PZ         0.00018  -0.02401   0.04619   0.00728  -0.00007
 137       12D 0       -0.00001  -0.00472  -0.01240   0.06747  -0.00051
 138       12D+1        0.00015  -0.00003  -0.00015   0.00065   0.03389
 139       12D-1        0.00015   0.00000  -0.00001   0.00005  -0.04695
 140       12D+2        0.00018   0.00000   0.00000   0.00000   0.00101
 141       12D-2        0.00018  -0.00001   0.00000   0.00001  -0.00083
 142       13D 0       -0.00002  -0.00754  -0.01943   0.09788  -0.00071
 143       13D+1        0.00047  -0.00007  -0.00024   0.00104   0.05061
 144       13D-1        0.00047  -0.00001  -0.00001   0.00007  -0.07010
 145       13D+2        0.00039   0.00000   0.00000   0.00000   0.00158
 146       13D-2        0.00039   0.00000   0.00000   0.00000  -0.00130
 147       14D 0        0.00001   0.00153  -0.01323   0.03014  -0.00003
 148       14D+1        0.00236   0.00000  -0.00015   0.00030   0.00558
 149       14D-1        0.00236   0.00000  -0.00001   0.00002  -0.00769
 150       14D+2        0.00006   0.00000   0.00000   0.00000   0.00031
 151       14D-2        0.00006   0.00000   0.00000   0.00001  -0.00024
 152       15F 0        0.00002   0.00098   0.00459  -0.00358   0.00004
 153       15F+1       -0.00099   0.00003   0.00007  -0.00004  -0.00290
 154       15F-1       -0.00099   0.00000   0.00000   0.00000   0.00402
 155       15F+2       -0.00008   0.00000   0.00000   0.00000  -0.00020
 156       15F-2       -0.00008   0.00000   0.00000  -0.00001   0.00016
 157       15F+3        0.00000   0.00000   0.00000   0.00000   0.00000
 158       15F-3        0.00000  -0.00007   0.00004   0.00004   0.00000
 159       16F 0        0.00002   0.00137   0.00401   0.00164   0.00002
 160       16F+1       -0.00127   0.00003   0.00007  -0.00003  -0.00018
 161       16F-1       -0.00127   0.00000   0.00000   0.00000   0.00023
 162       16F+2       -0.00015   0.00000   0.00000   0.00000   0.00075
 163       16F-2       -0.00016  -0.00001   0.00000   0.00002  -0.00053
 164       16F+3        0.00000   0.00000   0.00000   0.00000   0.00001
[...]
  81        7PY        -0.58427   7.02970   7.65419   0.97671   2.83713
  82        7PZ        -1.61480  -3.16484   0.81290   0.02418   0.03588
  83        8D 0       -0.03672   0.01110  -0.00441   0.02462  -0.00078
  84        8D+1        0.00932  -0.01542   0.02664   0.00806  -0.00360
  85        8D-1       -0.00660   0.02195   0.03233  -0.00455  -0.00472
  86        8D+2        0.06613  -0.03285  -0.09729   0.02526  -0.02441
  87        8D-2       -0.10899  -0.00630  -0.06349  -0.04360  -0.01637
  88        9D 0       -0.46871   0.49023  -0.13902  -0.15132  -0.01545
  89        9D+1       -0.22108  -0.21107  -0.15072  -0.03668   0.05821
  90        9D-1        0.13687   0.00562  -0.34516   0.01971   0.07473
  91        9D+2       -0.18357  -0.23728   1.71223  -0.36059   0.50001
  92        9D-2        0.23991   1.37356   0.59798   0.62116   0.27454
  93 4   H  1S         -0.03501  -0.00135   0.00982  -0.00856  -0.02260
  94        2S          0.34625   0.89284  -3.34229  -0.54527   1.87596
  95        3S          8.40041   7.05215 -26.85556  -3.28268  21.78948
  96        4S          1.44072  -0.54217   1.82150  -2.04450   9.36342
  97        5PX        -0.02189   0.07588  -0.07733  -0.08099   0.09904
  98        5PY        -0.01451  -0.07264  -0.07533  -0.04708   0.02441
  99        5PZ         0.06030   0.00101  -0.00788   0.03077  -0.00869
 100        6PX        -0.66512  -1.22799   1.79841   0.61346  -1.10452
 101        6PY        -0.35461   0.91581   1.46723   0.35672  -0.31117
 102        6PZ        -0.33527   0.01753  -0.04174  -0.16408   0.13855
 103        7PX        -1.49167  -7.21514   6.59550   1.73937  -6.36488
 104        7PY        -0.65295   7.54755   6.97960   1.02229  -1.47726
 105        7PZ        -1.43024   0.90496  -3.29469   0.01567   0.69044
 106        8D 0       -0.03754  -0.00134   0.00977   0.02543  -0.01581
 107        8D+1       -0.01137  -0.02581   0.01502  -0.00858   0.01235
 108        8D-1       -0.00541   0.03262   0.02122  -0.00497   0.00372
 109        8D+2        0.06149  -0.10134  -0.02765   0.02373   0.00381
 110        8D-2        0.11147   0.05572   0.01316   0.04126   0.03813
 111        9D 0       -0.52251  -0.11048   0.44000  -0.14596  -0.22323
 112        9D+1        0.22390   0.13945   0.22215   0.03862  -0.22297
 113        9D-1        0.12015  -0.35887   0.01020   0.02280  -0.07083
 114        9D+2       -0.06174   1.71413  -0.25067  -0.35595   0.38298
 115        9D-2       -0.17483  -0.56994  -1.37635  -0.62031   0.04106
 116 5   Cl 1S          0.02030  -0.00056   0.00061   0.01177   0.00003
 117        2S          0.28083  -0.00776   0.00839   0.16374   0.00056
 118        3S          0.78302  -0.02163   0.02335   0.46004   0.00142
 119        4S         -0.04217   0.00116  -0.00129  -0.01472  -0.00024
 120        5S         -4.35972   0.12464  -0.13417  -3.02602  -0.01156
 121        6S         -9.82278   0.24308  -0.26154 -13.25273  -0.02365
 122        7PX        -0.00005   0.00056  -0.00055  -0.00013   0.00133
 123        7PY         0.00000  -0.00056  -0.00055  -0.00001   0.00264
 124        7PZ        -0.00459   0.00003  -0.00003  -0.02274  -0.00006
 125        8PX        -0.00070   0.01317  -0.01282  -0.00269   0.02664
 126        8PY        -0.00003  -0.01311  -0.01283  -0.00014   0.05266
 127        8PZ        -0.06475   0.00025  -0.00025  -0.31759  -0.00062
 128        9PX         0.00006  -0.00276   0.00275   0.00040  -0.00447
 129        9PY         0.00000   0.00275   0.00276   0.00003  -0.00887
 130        9PZ         0.00190   0.00032  -0.00035   0.07964   0.00024
 131       10PX         0.03076  -0.05155   0.04284   0.03976  -0.19154
 132       10PY         0.00287   0.05045   0.04204   0.00220  -0.37622
 133       10PZ         5.91769  -0.15594   0.16783   5.08183   0.01112
 134       11PX        -0.03783  -0.81482   0.80923   0.02000   0.11273
 135       11PY        -0.00123   0.81337   0.81155   0.00153   0.22169
 136       11PZ         0.79313  -0.01427   0.01479   3.36042   0.00448
 137       12D 0        0.06817  -0.00204   0.00221   0.00182  -0.00008
 138       12D+1        0.00151   0.02163  -0.02184  -0.00007   0.00163
 139       12D-1        0.00010  -0.02160  -0.02192   0.00000   0.00321
 140       12D+2       -0.00002   0.00543   0.00546   0.00000  -0.01083
 141       12D-2        0.00026  -0.00543   0.00543   0.00008  -0.00550
 142       13D 0       -0.38847   0.01125  -0.01219  -0.07055   0.00022
 143       13D+1       -0.00634  -0.07961   0.08024  -0.00025  -0.01151
 144       13D-1       -0.00047   0.07955   0.08054  -0.00004  -0.02256
 145       13D+2        0.00004  -0.01242  -0.01234  -0.00001   0.03909
 146       13D-2       -0.00107   0.01242  -0.01226  -0.00026   0.01987
 147       14D 0       -1.39473   0.03444  -0.03688  -1.24203  -0.00213
 148       14D+1       -0.00675   0.21790  -0.21532  -0.02223   0.14708
 149       14D-1       -0.00073  -0.21697  -0.21542  -0.00095   0.28879
 150       14D+2        0.00002   0.04835   0.04321  -0.00006  -0.17956
 151       14D-2       -0.00129  -0.04832   0.04290   0.00071  -0.09081
 152       15F 0       -0.04306   0.00113  -0.00120   0.00123   0.00004
 153       15F+1       -0.00112   0.00328  -0.00328  -0.00074   0.00843
 154       15F-1       -0.00004  -0.00323  -0.00324   0.00000   0.01646
 155       15F+2        0.00001   0.00713   0.00654  -0.00002  -0.00922
 156       15F-2       -0.00037  -0.00715   0.00652  -0.00026  -0.00464
 157       15F+3        0.00000   0.00001   0.00001   0.00001  -0.00025
 158       15F-3       -0.00937  -0.00016   0.00014   0.02294  -0.00010
 159       16F 0        0.23349  -0.00596   0.00639   0.08901  -0.00008
 160       16F+1        0.00399  -0.01071   0.01086   0.00415  -0.02861
 161       16F-1        0.00022   0.01051   0.01071   0.00009  -0.05600
 162       16F+2        0.00001  -0.03339  -0.03147   0.00004   0.03774
 163       16F-2        0.00209   0.03345  -0.03134   0.00036   0.01901
 164       16F+3        0.00001  -0.00005  -0.00002  -0.00002   0.00065
 165       16F-3        0.01949   0.00047  -0.00045  -0.04285   0.00028
 166 6   F  1S          0.04018  -0.00122   0.00131  -0.02260   0.00002
 167        2S          0.14135  -0.00442   0.00473  -0.08582   0.00012
 168        3S         -0.07204   0.00208  -0.00223   0.03663   0.00002
 169        4S         -0.37934   0.01283  -0.01378  -0.02099  -0.00109
 170        5S         -0.05748   0.00262  -0.00203  -5.93543  -0.01788
 171        6PX        -0.00025  -0.00510   0.00520   0.00005  -0.00078
 172        6PY        -0.00001   0.00510   0.00522   0.00000  -0.00152
 173        6PZ         0.00539  -0.00014   0.00015   0.00222   0.00000
 174        7PX         0.00144   0.02643  -0.02680  -0.00019   0.00277
 175        7PY         0.00005  -0.02638  -0.02689   0.00000   0.00545
 176        7PZ        -0.06370   0.00171  -0.00183   0.00264   0.00007
 177        8PX        -0.01172  -0.18583   0.18601   0.00055  -0.00019
 178        8PY        -0.00016   0.18555   0.18662  -0.00012  -0.00087
 179        8PZ         0.62913  -0.01585   0.01705  -0.24691  -0.00175
 180        9PX        -0.04202  -0.59760   0.58845  -0.00261   0.10520
 181        9PY        -0.00137   0.59688   0.59049  -0.00113   0.20563
 182        9PZ        -0.86620   0.02295  -0.02472  -2.49221  -0.00785
 183       10D 0        0.01136  -0.00036   0.00037  -0.00797   0.00000
 184       10D+1       -0.00070  -0.01045   0.01043   0.00004  -0.00097
 185       10D-1       -0.00001   0.01044   0.01046  -0.00001  -0.00194
 186       10D+2        0.00001  -0.00345  -0.00353   0.00000  -0.00253
 187       10D-2        0.00014   0.00345  -0.00351  -0.00002  -0.00128
 188       11D 0       -0.04201   0.00132  -0.00137   0.01569  -0.00001
 189       11D+1        0.00226   0.03358  -0.03353  -0.00009   0.00164
 190       11D-1        0.00004  -0.03353  -0.03364   0.00001   0.00334
 191       11D+2       -0.00004   0.01164   0.01201   0.00000   0.00897
 192       11D-2       -0.00035  -0.01165   0.01194   0.00006   0.00455
 193       12D 0        0.41643  -0.01129   0.01208  -0.01117  -0.00032
 194       12D+1       -0.00738  -0.09738   0.09754  -0.00019   0.01488
 195       12D-1        0.00010   0.09723   0.09786  -0.00002   0.02851
 196       12D+2        0.00015  -0.04355  -0.04485  -0.00001  -0.01699
 197       12D-2        0.00118   0.04358  -0.04462  -0.00035  -0.00858
 198       13F 0       -0.02738   0.00067  -0.00075  -0.00759  -0.00001
 199       13F+1       -0.00063  -0.01343   0.01298   0.00019  -0.00371
 200       13F-1       -0.00004   0.01342   0.01303  -0.00001  -0.00721
 201       13F+2       -0.00002   0.00639   0.00647   0.00000  -0.00235
 202       13F-2       -0.00033  -0.00642   0.00647   0.00017  -0.00118
 203       13F+3        0.00000   0.00012   0.00012   0.00000   0.00003
 204       13F-3        0.01271  -0.00037   0.00040  -0.00138   0.00002
 205       14F 0        0.06816  -0.00167   0.00187   0.01182  -0.00001
 206       14F+1        0.00123   0.02896  -0.02811  -0.00035   0.00824
 207       14F-1        0.00011  -0.02893  -0.02822   0.00001   0.01599
 208       14F+2        0.00005  -0.01782  -0.01787   0.00000   0.00571
 209       14F-2        0.00099   0.01790  -0.01784  -0.00033   0.00290
 210       14F+3       -0.00001  -0.00018  -0.00016   0.00000  -0.00005
 211       14F-3       -0.01713   0.00049  -0.00054   0.00261  -0.00002
                         211
     Eigenvalues --     0.00000
   1 1   C  1S         -0.00174
   2        2S         -0.00993
   3        3S         -0.00102
   4        4S         -0.08661
   5        5S         -0.09742
   6        6PX        -0.00659
   7        6PY         0.00326
   8        6PZ        -0.00004
   9        7PX         1.36484
  10        7PY        -0.69069
  11        7PZ        -0.00009
  12        8PX        15.45446
  13        8PY        -7.85569
  14        8PZ        -0.01602
  15        9PX         7.02455
  16        9PY        -3.57737
  17        9PZ        -0.01299
  18       10D 0       -0.00015
  19       10D+1       -0.00140
  20       10D-1        0.00065
  21       10D+2       -0.00979
  22       10D-2        0.01940
  23       11D 0        0.00235
  24       11D+1       -0.18561
  25       11D-1        0.09358
  26       11D+2       -0.18063
  27       11D-2        0.36529
  28       12D 0       -0.03852
  29       12D+1       -1.14495
  30       12D-1        0.58505
  31       12D+2        0.25631
  32       12D-2       -0.50716
  33       13F 0       -0.00043
  34       13F+1        0.03447
  35       13F-1       -0.01777
  36       13F+2       -0.00399
  37       13F-2        0.00823
  38       13F+3        0.00006
  39       13F-3        0.00064
  40       14F 0        0.00311
  41       14F+1       -0.36081
  42       14F-1        0.18380
  43       14F+2        0.03275
  44       14F-2       -0.06880
  45       14F+3        0.00068
  46       14F-3       -0.00521
  47 2   H  1S          0.01202
  48        2S         -0.98793
  49        3S        -11.74892
  50        4S         -5.06151
  51        5PX         0.04623
  52        5PY         0.05277
  53        5PZ         0.00460
  54        6PX        -0.46083
  55        6PY        -0.59098
  56        6PZ        -0.07339
  57        7PX        -3.11397
  58        7PY        -3.36771
  59        7PZ        -0.35960
  60        8D 0        0.00816
  61        8D+1        0.00511
  62        8D-1        0.00690
  63        8D+2        0.01824
  64        8D-2        0.02604
  65        9D 0        0.12345
  66        9D+1       -0.08190
  67        9D-1       -0.12188
  68        9D+2        0.12032
  69        9D-2       -0.51036
  70 3   H  1S         -0.02643
  71        2S          2.21125
  72        3S         25.93585
  73        4S         11.16775
  74        5PX        -0.10039
  75        5PY         0.06111
  76        5PZ        -0.01080
  77        6PX         1.12976
  78        6PY        -0.68311
  79        6PZ         0.16977
  80        7PX         6.37243
  81        7PY        -3.89369
  82        7PZ         0.81979
  83        8D 0       -0.01883
  84        8D+1       -0.01368
  85        8D-1        0.00820
  86        8D+2        0.02108
  87        8D-2       -0.03354
  88        9D 0       -0.26467
  89        9D+1        0.23615
  90        9D-1       -0.14264
  91        9D+2        0.11582
  92        9D-2       -0.25858
  93 4   H  1S          0.01462
  94        2S         -1.20509
  95        3S        -14.13127
  96        4S         -6.07709
  97        5PX        -0.03308
  98        5PY        -0.06949
  99        5PZ         0.00556
 100        6PX         0.40273
 101        6PY         0.73544
 102        6PZ        -0.08883
 103        7PX         2.04447
 104        7PY         4.55736
 105        7PZ        -0.44308
 106        8D 0        0.01003
 107        8D+1       -0.00468
 108        8D-1       -0.00806
 109        8D+2       -0.03237
 110        8D-2       -0.00735
 111        9D 0        0.14663
 112        9D+1        0.08928
 113        9D-1        0.13985
 114        9D+2        0.34376
 115        9D-2       -0.36542
 116 5   Cl 1S         -0.00007
 117        2S         -0.00108
 118        3S         -0.00273
 119        4S          0.00047
 120        5S          0.02234
 121        6S          0.04522
 122        7PX        -0.00266
 123        7PY         0.00137
 124        7PZ         0.00011
 125        8PX        -0.05288
 126        8PY         0.02712
 127        8PZ         0.00113
 128        9PX         0.00894
 129        9PY        -0.00460
 130        9PZ        -0.00045
 131       10PX         0.37601
 132       10PY        -0.19168
 133       10PZ        -0.02090
 134       11PX        -0.22206
 135       11PY         0.11333
 136       11PZ        -0.00876
 137       12D 0        0.00015
 138       12D+1       -0.00323
 139       12D-1        0.00165
 140       12D+2       -0.00552
 141       12D-2        0.01083
 142       13D 0       -0.00040
 143       13D+1        0.02260
 144       13D-1       -0.01150
 145       13D+2        0.01992
 146       13D-2       -0.03910
 147       14D 0        0.00352
 148       14D+1       -0.28894
 149       14D-1        0.14724
 150       14D+2       -0.09216
 151       14D-2        0.17994
 152       15F 0       -0.00013
 153       15F+1       -0.01642
 154       15F-1        0.00832
 155       15F+2       -0.00476
 156       15F-2        0.00925
 157       15F+3       -0.00013
 158       15F-3        0.00018
 159       16F 0        0.00031
 160       16F+1        0.05596
 161       16F-1       -0.02843
 162       16F+2        0.01948
 163       16F-2       -0.03788
 164       16F+3        0.00036
 165       16F-3       -0.00049
 166 6   F  1S         -0.00004
 167        2S         -0.00022
 168        3S         -0.00005
 169        4S          0.00208
 170        5S          0.03462
 171        6PX         0.00151
 172        6PY        -0.00076
 173        6PZ         0.00000
 174        7PX        -0.00546
 175        7PY         0.00279
 176        7PZ        -0.00014
 177        8PX         0.00121
 178        8PY        -0.00087
 179        8PZ         0.00341
 180        9PX        -0.20501
 181        9PY         0.10400
 182        9PZ         0.01499
 183       10D 0        0.00001
 184       10D+1        0.00196
 185       10D-1       -0.00102
 186       10D+2       -0.00130
 187       10D-2        0.00254
 188       11D 0        0.00002
 189       11D+1       -0.00340
 190       11D-1        0.00179
 191       11D+2        0.00459
 192       11D-2       -0.00900
 193       12D 0        0.00057
 194       12D+1       -0.02804
 195       12D-1        0.01393
 196       12D+2       -0.00874
 197       12D-2        0.01703
 198       13F 0        0.00004
 199       13F+1        0.00716
 200       13F-1       -0.00361
 201       13F+2       -0.00124
 202       13F-2        0.00239
 203       13F+3        0.00001
 204       13F-3       -0.00004
 205       14F 0       -0.00002
 206       14F+1       -0.01585
 207       14F-1        0.00798
 208       14F+2        0.00294
 209       14F-2       -0.00576
 210       14F+3       -0.00002
 211       14F-3        0.00005
          Condensed to atoms (all electrons):
              1          2          3          4          5          6
     1  C    7.012162  -0.009252  -0.008250  -0.010256  -0.050895  -0.099838
     2  H   -0.009252   0.547063   0.019725   0.020416  -0.018742   0.004335
     3  H   -0.008250   0.019725   0.546709   0.020068  -0.018705   0.004176
     4  H   -0.010256   0.020416   0.020068   0.547416  -0.018778   0.004503
     5  Cl  -0.050895  -0.018742  -0.018705  -0.018778  17.709254   0.026400
     6  F   -0.099838   0.004335   0.004176   0.004503   0.026400   9.907585
 Mulliken atomic charges:
              1
     1  C   -0.833672
     2  H    0.436455
     3  H    0.436277
     4  H    0.436631
     5  Cl  -0.628533
     6  F   -0.847159
 Sum of Mulliken atomic charges =  -1.00000
 Mulliken charges with hydrogens summed into heavy atoms:
              1
     1  C    0.475692
     5  Cl  -0.628533
     6  F   -0.847159
 Sum of Mulliken charges with hydrogens summed into heavy atoms =  -1.00000
 Electronic spatial extent (au):  <R**2>=            490.3200
 Charge=             -1.0000 electrons
 Dipole moment (field-independent basis, Debye):
    X=             -0.0262    Y=              0.0007    Z=              4.0659  Tot=              4.0660
 Quadrupole moment (field-independent basis, Debye-Ang):
   XX=            -28.1817   YY=            -28.1814   ZZ=            -62.8201
   XY=             -0.0001   XZ=             -0.0479   YZ=             -0.0145
 Traceless Quadrupole moment (field-independent basis, Debye-Ang):
   XX=             11.5461   YY=             11.5463   ZZ=            -23.0924
   XY=             -0.0001   XZ=             -0.0479   YZ=             -0.0145
 Octapole moment (field-independent basis, Debye-Ang**2):
  XXX=             -0.4740  YYY=             -0.9747  ZZZ=             49.6853  XYY=             -0.1585
  XXY=              0.9406  XXZ=             -4.2369  XZZ=             -0.2051  YZZ=              0.0111
  YYZ=             -4.2357  XYZ=              0.0003
 Hexadecapole moment (field-independent basis, Debye-Ang**3):
 XXXX=            -41.2785 YYYY=            -41.2683 ZZZZ=           -761.6371 XXXY=              0.0016
 XXXZ=             -0.8059 YYYX=             -0.0010 YYYZ=              0.5143 ZZZX=             -0.8488
 ZZZY=             -0.1889 XXYY=            -13.7579 XXZZ=           -103.3868 YYZZ=           -103.3861
 XXYZ=             -0.6773 YYXZ=             -0.2683 ZZXY=             -0.0022
 N-N= 8.498396153902D+01 E-N=-1.604179931519D+03  KE= 5.991954487095D+02
 1\1\GINC-TRAPISTA\SP\RQCISD-FC\Aug-CC-pVTZ\C1H3Cl1F1(1-)\BRUNS\12-Aug-
 2021\0\\# QCISD aug-cc-pvtz nosymm density=current output=wfn\\title l
 ine\\-1,1\C,0,0.000175,0.000029,-0.497709\H,0,0.000019,-1.05257,-0.620
 726\H,0,-0.911312,0.526365,-0.621245\H,0,0.91175,0.526132,-0.62157\Cl,
 0,0.010555,0.000962,1.644718\F,0,-0.000186,-0.000921,-2.59346\\Version
 =EM64L-G09RevB.01\HF=-598.6171219\MP2=-599.2912644\MP3=-599.3099654\MP
 4D=-599.3248558\MP4DQ=-599.3104169\MP4SDQ=-599.3197833\QCISD=-599.3191
 654\RMSD=9.412e-09\Dipole=-0.0006155,0.0007245,1.5871951\Quadrupole=8.
 5842058,8.5843991,-17.168605,-0.000056,-0.0356144,-0.0107477\PG=C01 [X
 (C1H3Cl1F1)]\\@

 Writing a WFN file to GAUSSIAN+XCl_5.wfn.


 FROM AN ANONYMOUS WRITER, ON PERSPECTIVE:

 MAN, DESPITE HIS ARTISTIC PRETENSIONS, HIS SOPHISTICATION AND MANY 
 ACCOMPLISHMENTS, OWES THE FACT OF HIS EXISTENCE TO A SIX-INCH LAYER OF 
 TOPSOIL AND THE FACT THAT IT RAINS.
 Job cpu time:  0 days 15 hours 26 minutes 53.8 seconds.
 File lengths (MBytes):  RWF=  29002 Int=      0 D2E=      0 Chk=      4 Scr=      1
 Normal termination of Gaussian 09 at Thu Aug 12 17:05:30 2021.
