 title line
GAUSSIAN            211 MOL ORBITALS    339 PRIMITIVES        6 NUCLEI
  C    1    (CENTRE  1)   0.00033070  0.00005480 -0.94053370  CHARGE =  6.0
  H    2    (CENTRE  2)   0.00003590 -1.98906904 -1.17300214  CHARGE =  1.0
  H    3    (CENTRE  3)  -1.70323284  0.99468570 -1.17398291  CHARGE =  1.0
  H    4    (CENTRE  4)   1.72295780  0.99424539 -1.17459707  CHARGE =  1.0
  Cl   5    (CENTRE  5)   0.00104880  0.00181792  3.10806659  CHARGE = 17.0
  F    6    (CENTRE  6)  -0.00035149 -0.00174044 -4.90092914  CHARGE =  9.0
CENTRE ASSIGNMENTS    1  1  1  1  1  1  1  1  1  1  1  1  1  1  1  1  1  1  1  1
CENTRE ASSIGNMENTS    1  1  1  1  1  1  1  1  1  1  1  1  1  1  1  1  1  1  1  1
CENTRE ASSIGNMENTS    1  1  1  1  1  1  1  1  1  1  1  1  1  1  1  1  1  1  1  1
CENTRE ASSIGNMENTS    1  1  1  1  1  1  1  1  1  1  1  1  2  2  2  2  2  2  2  2
CENTRE ASSIGNMENTS    2  2  2  2  2  2  2  2  2  2  2  2  2  2  2  2  2  2  2  3
CENTRE ASSIGNMENTS    3  3  3  3  3  3  3  3  3  3  3  3  3  3  3  3  3  3  3  3
CENTRE ASSIGNMENTS    3  3  3  3  3  3  4  4  4  4  4  4  4  4  4  4  4  4  4  4
CENTRE ASSIGNMENTS    4  4  4  4  4  4  4  4  4  4  4  4  4  5  5  5  5  5  5  5
CENTRE ASSIGNMENTS    5  5  5  5  5  5  5  5  5  5  5  5  5  5  5  5  5  5  5  5
CENTRE ASSIGNMENTS    5  5  5  5  5  5  5  5  5  5  5  5  5  5  5  5  5  5  5  5
CENTRE ASSIGNMENTS    5  5  5  5  5  5  5  5  5  5  5  5  5  5  5  5  5  5  5  5
CENTRE ASSIGNMENTS    5  5  5  5  5  5  5  5  5  5  5  5  5  5  5  5  5  5  5  5
CENTRE ASSIGNMENTS    5  5  5  5  5  5  5  5  5  5  5  5  5  5  5  5  5  5  5  5
CENTRE ASSIGNMENTS    5  5  5  5  5  5  5  6  6  6  6  6  6  6  6  6  6  6  6  6
CENTRE ASSIGNMENTS    6  6  6  6  6  6  6  6  6  6  6  6  6  6  6  6  6  6  6  6
CENTRE ASSIGNMENTS    6  6  6  6  6  6  6  6  6  6  6  6  6  6  6  6  6  6  6  6
CENTRE ASSIGNMENTS    6  6  6  6  6  6  6  6  6  6  6  6  6  6  6  6  6  6  6
TYPE ASSIGNMENTS      1  1  1  1  1  1  1  1  1  1  1  1  1  1  1  1  2  2  2  3
TYPE ASSIGNMENTS      3  3  4  4  4  2  3  4  2  3  4  2  3  4  5  6  7  8  9 10
TYPE ASSIGNMENTS      5  6  7  8  9 10  5  6  7  8  9 10 11 12 13 17 14 15 18 19
TYPE ASSIGNMENTS     16 20 11 12 13 17 14 15 18 19 16 20  1  1  1  1  1  1  2  3
TYPE ASSIGNMENTS      4  2  3  4  2  3  4  5  6  7  8  9 10  5  6  7  8  9 10  1
TYPE ASSIGNMENTS      1  1  1  1  1  2  3  4  2  3  4  2  3  4  5  6  7  8  9 10
TYPE ASSIGNMENTS      5  6  7  8  9 10  1  1  1  1  1  1  2  3  4  2  3  4  2  3
TYPE ASSIGNMENTS      4  5  6  7  8  9 10  5  6  7  8  9 10  1  1  1  1  1  1  1
TYPE ASSIGNMENTS      1  1  1  1  1  1  1  1  1  1  1  1  1  1  1  1  1  1  1  1
TYPE ASSIGNMENTS      1  1  1  1  2  2  2  2  2  2  3  3  3  3  3  3  4  4  4  4
TYPE ASSIGNMENTS      4  4  2  2  2  2  2  2  3  3  3  3  3  3  4  4  4  4  4  4
TYPE ASSIGNMENTS      2  3  4  2  3  4  2  3  4  5  6  7  8  9 10  5  6  7  8  9
TYPE ASSIGNMENTS     10  5  6  7  8  9 10 11 12 13 17 14 15 18 19 16 20 11 12 13
TYPE ASSIGNMENTS     17 14 15 18 19 16 20  1  1  1  1  1  1  1  1  1  1  1  1  1
TYPE ASSIGNMENTS      1  1  1  2  2  2  3  3  3  4  4  4  2  3  4  2  3  4  2  3
TYPE ASSIGNMENTS      4  5  6  7  8  9 10  5  6  7  8  9 10  5  6  7  8  9 10 11
TYPE ASSIGNMENTS     12 13 17 14 15 18 19 16 20 11 12 13 17 14 15 18 19 16 20
EXPONENTS  0.8236000D+04 0.1235000D+04 0.2808000D+03 0.7927000D+02 0.2559000D+02
EXPONENTS  0.8997000D+01 0.3319000D+01 0.2808000D+03 0.7927000D+02 0.2559000D+02
EXPONENTS  0.8997000D+01 0.3319000D+01 0.3643000D+00 0.9059000D+00 0.1285000D+00
EXPONENTS  0.4402000D-01 0.1871000D+02 0.4133000D+01 0.1200000D+01 0.1871000D+02
EXPONENTS  0.4133000D+01 0.1200000D+01 0.1871000D+02 0.4133000D+01 0.1200000D+01
EXPONENTS  0.3827000D+00 0.3827000D+00 0.3827000D+00 0.1209000D+00 0.1209000D+00
EXPONENTS  0.1209000D+00 0.3569000D-01 0.3569000D-01 0.3569000D-01 0.1097000D+01
EXPONENTS  0.1097000D+01 0.1097000D+01 0.1097000D+01 0.1097000D+01 0.1097000D+01
EXPONENTS  0.3180000D+00 0.3180000D+00 0.3180000D+00 0.3180000D+00 0.3180000D+00
EXPONENTS  0.3180000D+00 0.1000000D+00 0.1000000D+00 0.1000000D+00 0.1000000D+00
EXPONENTS  0.1000000D+00 0.1000000D+00 0.7610000D+00 0.7610000D+00 0.7610000D+00
EXPONENTS  0.7610000D+00 0.7610000D+00 0.7610000D+00 0.7610000D+00 0.7610000D+00
EXPONENTS  0.7610000D+00 0.7610000D+00 0.2680000D+00 0.2680000D+00 0.2680000D+00
EXPONENTS  0.2680000D+00 0.2680000D+00 0.2680000D+00 0.2680000D+00 0.2680000D+00
EXPONENTS  0.2680000D+00 0.2680000D+00 0.3387000D+02 0.5095000D+01 0.1159000D+01
EXPONENTS  0.3258000D+00 0.1027000D+00 0.2526000D-01 0.1407000D+01 0.1407000D+01
EXPONENTS  0.1407000D+01 0.3880000D+00 0.3880000D+00 0.3880000D+00 0.1020000D+00
EXPONENTS  0.1020000D+00 0.1020000D+00 0.1057000D+01 0.1057000D+01 0.1057000D+01
EXPONENTS  0.1057000D+01 0.1057000D+01 0.1057000D+01 0.2470000D+00 0.2470000D+00
EXPONENTS  0.2470000D+00 0.2470000D+00 0.2470000D+00 0.2470000D+00 0.3387000D+02
EXPONENTS  0.5095000D+01 0.1159000D+01 0.3258000D+00 0.1027000D+00 0.2526000D-01
EXPONENTS  0.1407000D+01 0.1407000D+01 0.1407000D+01 0.3880000D+00 0.3880000D+00
EXPONENTS  0.3880000D+00 0.1020000D+00 0.1020000D+00 0.1020000D+00 0.1057000D+01
EXPONENTS  0.1057000D+01 0.1057000D+01 0.1057000D+01 0.1057000D+01 0.1057000D+01
EXPONENTS  0.2470000D+00 0.2470000D+00 0.2470000D+00 0.2470000D+00 0.2470000D+00
EXPONENTS  0.2470000D+00 0.3387000D+02 0.5095000D+01 0.1159000D+01 0.3258000D+00
EXPONENTS  0.1027000D+00 0.2526000D-01 0.1407000D+01 0.1407000D+01 0.1407000D+01
EXPONENTS  0.3880000D+00 0.3880000D+00 0.3880000D+00 0.1020000D+00 0.1020000D+00
EXPONENTS  0.1020000D+00 0.1057000D+01 0.1057000D+01 0.1057000D+01 0.1057000D+01
EXPONENTS  0.1057000D+01 0.1057000D+01 0.2470000D+00 0.2470000D+00 0.2470000D+00
EXPONENTS  0.2470000D+00 0.2470000D+00 0.2470000D+00 0.4561000D+06 0.6833000D+05
EXPONENTS  0.1555000D+05 0.4405000D+04 0.1439000D+04 0.5204000D+03 0.2031000D+03
EXPONENTS  0.8396000D+02 0.3620000D+02 0.1583000D+02 0.6334000D+01 0.4405000D+04
EXPONENTS  0.1439000D+04 0.5204000D+03 0.2031000D+03 0.8396000D+02 0.3620000D+02
EXPONENTS  0.1583000D+02 0.6334000D+01 0.2694000D+01 0.1439000D+04 0.2031000D+03
EXPONENTS  0.8396000D+02 0.3620000D+02 0.1583000D+02 0.6334000D+01 0.2694000D+01
EXPONENTS  0.4313000D+00 0.9768000D+00 0.1625000D+00 0.5910000D-01 0.6633000D+03
EXPONENTS  0.1568000D+03 0.4998000D+02 0.1842000D+02 0.7240000D+01 0.2922000D+01
EXPONENTS  0.6633000D+03 0.1568000D+03 0.4998000D+02 0.1842000D+02 0.7240000D+01
EXPONENTS  0.2922000D+01 0.6633000D+03 0.1568000D+03 0.4998000D+02 0.1842000D+02
EXPONENTS  0.7240000D+01 0.2922000D+01 0.1568000D+03 0.4998000D+02 0.1842000D+02
EXPONENTS  0.7240000D+01 0.2922000D+01 0.3818000D+00 0.1568000D+03 0.4998000D+02
EXPONENTS  0.1842000D+02 0.7240000D+01 0.2922000D+01 0.3818000D+00 0.1568000D+03
EXPONENTS  0.4998000D+02 0.1842000D+02 0.7240000D+01 0.2922000D+01 0.3818000D+00
EXPONENTS  0.1022000D+01 0.1022000D+01 0.1022000D+01 0.1301000D+00 0.1301000D+00
EXPONENTS  0.1301000D+00 0.4190000D-01 0.4190000D-01 0.4190000D-01 0.1046000D+01
EXPONENTS  0.1046000D+01 0.1046000D+01 0.1046000D+01 0.1046000D+01 0.1046000D+01
EXPONENTS  0.3440000D+00 0.3440000D+00 0.3440000D+00 0.3440000D+00 0.3440000D+00
EXPONENTS  0.3440000D+00 0.1350000D+00 0.1350000D+00 0.1350000D+00 0.1350000D+00
EXPONENTS  0.1350000D+00 0.1350000D+00 0.7060000D+00 0.7060000D+00 0.7060000D+00
EXPONENTS  0.7060000D+00 0.7060000D+00 0.7060000D+00 0.7060000D+00 0.7060000D+00
EXPONENTS  0.7060000D+00 0.7060000D+00 0.3120000D+00 0.3120000D+00 0.3120000D+00
EXPONENTS  0.3120000D+00 0.3120000D+00 0.3120000D+00 0.3120000D+00 0.3120000D+00
EXPONENTS  0.3120000D+00 0.3120000D+00 0.1950000D+05 0.2923000D+04 0.6645000D+03
EXPONENTS  0.1875000D+03 0.6062000D+02 0.2142000D+02 0.7950000D+01 0.6645000D+03
EXPONENTS  0.1875000D+03 0.6062000D+02 0.2142000D+02 0.7950000D+01 0.8815000D+00
EXPONENTS  0.2257000D+01 0.3041000D+00 0.9158000D-01 0.4388000D+02 0.9926000D+01
EXPONENTS  0.2930000D+01 0.4388000D+02 0.9926000D+01 0.2930000D+01 0.4388000D+02
EXPONENTS  0.9926000D+01 0.2930000D+01 0.9132000D+00 0.9132000D+00 0.9132000D+00
EXPONENTS  0.2672000D+00 0.2672000D+00 0.2672000D+00 0.7361000D-01 0.7361000D-01
EXPONENTS  0.7361000D-01 0.3107000D+01 0.3107000D+01 0.3107000D+01 0.3107000D+01
EXPONENTS  0.3107000D+01 0.3107000D+01 0.8550000D+00 0.8550000D+00 0.8550000D+00
EXPONENTS  0.8550000D+00 0.8550000D+00 0.8550000D+00 0.2920000D+00 0.2920000D+00
EXPONENTS  0.2920000D+00 0.2920000D+00 0.2920000D+00 0.2920000D+00 0.1917000D+01
EXPONENTS  0.1917000D+01 0.1917000D+01 0.1917000D+01 0.1917000D+01 0.1917000D+01
EXPONENTS  0.1917000D+01 0.1917000D+01 0.1917000D+01 0.1917000D+01 0.7240000D+00
EXPONENTS  0.7240000D+00 0.7240000D+00 0.7240000D+00 0.7240000D+00 0.7240000D+00
EXPONENTS  0.7240000D+00 0.7240000D+00 0.7240000D+00 0.7240000D+00
MO    1     MO 0.0        OCC NO =    2.0000300  ORB. ENERGY =    0.000000
 -0.46594794D-05 -0.86862082D-05 -0.14680875D-04 -0.22068094D-04 -0.27106701D-04
 -0.22877099D-04 -0.86023867D-05  0.98940805D-08  0.73952122D-07  0.27637597D-06
  0.77104591D-06  0.10329889D-05 -0.12197673D-05 -0.24173753D-05  0.82056957D-05
  0.29008606D-06  0.80585712D-04  0.75554227D-04  0.53799111D-04  0.76427903D-04
  0.71656017D-04  0.51023353D-04  0.20188546D-06  0.18928045D-06  0.13477895D-06
  0.26336896D-03  0.24954871D-03 -0.13008556D-05  0.33562044D-03  0.31969886D-03
 -0.42302341D-06  0.68347525D-05  0.64253493D-05 -0.69143396D-08  0.44094465D-04
 -0.45246572D-04  0.11521066D-05  0.93518740D-04 -0.36792575D-03 -0.35162133D-03
  0.13662434D-03 -0.13481346D-03 -0.18108881D-05  0.28112812D-03  0.71454255D-04
  0.66906805D-04  0.28492247D-04 -0.29015468D-04  0.52322156D-06  0.59193697D-04
 -0.47856333D-04 -0.45809330D-04  0.66310913D-04  0.64126495D-04  0.43802320D-06
  0.69147428D-04  0.64050186D-04  0.15304909D-04 -0.26808017D-03 -0.25642967D-03
 -0.16618978D-04  0.36833756D-04 -0.19659339D-04 -0.19315291D-04  0.26440546D-07
 -0.18328234D-04 -0.16262196D-04  0.35486794D-04  0.77306251D-04  0.74208068D-04
 -0.35566115D-04  0.73755863D-04 -0.27775639D-04 -0.50094509D-04 -0.73864325D-04
  0.24955755D-03  0.77910251D-03 -0.84010287D-05  0.36243631D-05  0.49547798D-04
  0.16012157D-04  0.58112311D-04  0.19914455D-03  0.18772392D-03  0.54142644D-04
  0.11889058D-03  0.15400393D-04 -0.76452924D-04  0.29689719D-04  0.46763205D-04
  0.20231492D-04 -0.34007269D-04  0.20541546D-03 -0.29680898D-04 -0.82356183D-05
  0.37916516D-04  0.20784676D-04  0.44352711D-04  0.21696193D-04 -0.11044791D-04
 -0.19919736D-04 -0.29371639D-04  0.99041096D-04  0.31775272D-03 -0.32839393D-05
  0.19132144D-04 -0.71425195D-05  0.70146260D-05  0.11115821D-03  0.32548222D-04
  0.77673719D-04  0.78392532D-04  0.39607242D-04  0.65007731D-05  0.13522243D-04
 -0.32991867D-04  0.19469625D-04 -0.21206631D-04  0.49898551D-04 -0.81712186D-04
  0.68817051D-05 -0.21858740D-04  0.14977035D-04  0.66720550D-05  0.38026784D-04
  0.47686164D-04  0.38862285D-04  0.70089731D-04  0.10334727D-03 -0.36420736D-03
 -0.10966040D-02  0.11654961D-04  0.60047293D-04  0.35812421D-04 -0.22950532D-04
  0.23453984D-03  0.15743988D-03 -0.26546236D-03  0.13669090D-03  0.99991333D-04
 -0.21638135D-04 -0.11469798D-05  0.67315763D-04 -0.66168783D-04 -0.13232756D-03
  0.25648303D-03  0.13518190D-03  0.22492737D-04  0.31983256D-04 -0.54475993D-04
 -0.30154232D-04  0.18924404D-04  0.28030531D-04 -0.11467334D-05 -0.21454159D-05
 -0.37068028D-05 -0.60091628D-05 -0.91254904D-05 -0.12683573D-04 -0.15079796D-04
 -0.13433607D-04 -0.66714131D-05 -0.10740411D-05 -0.11331768D-07 -0.60716486D-08
 -0.20254003D-06 -0.70581146D-06 -0.25417414D-05 -0.56029525D-05 -0.78871488D-05
  0.37624270D-06  0.10321704D-04  0.61031589D-05  0.11188363D-08  0.13551840D-07
  0.28260934D-07  0.81047437D-07  0.42086806D-08 -0.34951586D-06 -0.90308185D-06
  0.73578858D-06  0.20066144D-06 -0.24672600D-05 -0.45675208D-06  0.84036631D+01
  0.11069590D+02  0.12211491D+02  0.10142599D+02  0.53860016D+01  0.13896166D+01
  0.80117379D+01  0.10553333D+02  0.11641978D+02  0.96695745D+01  0.51348124D+01
  0.13248084D+01 -0.55259030D-02 -0.72789069D-02 -0.80297737D-02 -0.66693558D-02
 -0.35416130D-02 -0.91375467D-03 -0.33260388D-03  0.32154003D-02  0.45340500D-02
  0.64848909D-02 -0.32838575D-04 -0.59472566D-02 -0.31712387D-03  0.30657495D-02
  0.43230268D-02  0.61830720D-02 -0.31310206D-04 -0.56704602D-02  0.25215424D-06
 -0.24376650D-05 -0.34373621D-05 -0.49163371D-05  0.24895639D-07  0.45087448D-05
  0.55478354D-01  0.52891786D-01 -0.37012308D-04 -0.46607509D-03 -0.44402663D-03
  0.91865818D-06 -0.41955863D-04 -0.39972513D-04  0.56196795D-07  0.82743334D-05
 -0.85620010D-05  0.28766762D-06  0.17594519D-04 -0.71029374D-03 -0.67776073D-03
 -0.29733759D-05  0.30952690D-05 -0.12189308D-06 -0.61860714D-05  0.25780424D-03
  0.24619443D-03  0.86140369D-06 -0.87846350D-06  0.17059815D-07  0.17964878D-05
 -0.44083995D-04 -0.42212363D-04  0.16392724D-05  0.17353834D-05  0.37497514D-07
  0.15715186D-05  0.13113305D-05  0.24199498D-04 -0.64893358D-05 -0.65174808D-05
 -0.24311991D-04  0.50357166D-04  0.10653120D-04  0.10107711D-04 -0.46900279D-07
  0.10666217D-04  0.10252555D-04 -0.48164432D-05 -0.42625577D-04 -0.40575689D-04
  0.49571440D-05 -0.10264948D-04  0.95692501D-06  0.17837099D-05  0.30237856D-05
  0.45784204D-05  0.57240339D-05  0.49236956D-05  0.18883432D-05 -0.29671456D-08
 -0.39279452D-07 -0.14267012D-06 -0.42322821D-06 -0.48768503D-06  0.59236611D-06
  0.25533051D-08 -0.14916356D-05 -0.86247872D-06 -0.20966913D-03 -0.20505183D-03
 -0.13548642D-03 -0.20138452D-03 -0.19694966D-03 -0.13013297D-03 -0.14995207D-05
 -0.14664985D-05 -0.96897754D-06 -0.60759605D-05 -0.61043890D-05 -0.72749607D-06
 -0.48108002D-04 -0.46186935D-04 -0.34965743D-06 -0.14188517D-04 -0.13513651D-04
 -0.81490613D-07  0.49027656D-04 -0.49417278D-04  0.38962239D-06  0.10208531D-03
 -0.96532696D-04 -0.90611346D-04 -0.24535039D-04  0.24848460D-04 -0.31342023D-06
 -0.51209971D-04  0.73961652D-04  0.69946289D-04  0.12364760D-04 -0.12622276D-04
  0.25751554D-06  0.25969024D-04 -0.53504028D-04 -0.51076141D-04 -0.51584385D-04
 -0.49034172D-04 -0.10086919D-05 -0.50947038D-04 -0.50252624D-04 -0.12895799D-03
  0.20570019D-03  0.19735514D-03  0.13198406D-03 -0.27212967D-03  0.18303715D-04
  0.17440075D-04  0.36235896D-06  0.18107614D-04  0.17800013D-04  0.40880948D-04
 -0.73018758D-04 -0.70120237D-04 -0.41968025D-04  0.86422159D-04
MO    2     MO 0.0        OCC NO =    2.0000300  ORB. ENERGY =    0.000000
  0.14339489D-04  0.26731696D-04  0.45180208D-04  0.67914279D-04  0.83420528D-04
  0.70403982D-04  0.26473736D-04  0.14368378D-07  0.10739473D-06  0.40135862D-06
  0.11197280D-05  0.15001269D-05 -0.17713701D-05 -0.45261760D-07 -0.23835846D-04
 -0.54922329D-06  0.78289308D-04  0.73401203D-04  0.52266029D-04 -0.81743402D-04
 -0.76639636D-04 -0.54571986D-04 -0.11891449D-06 -0.11148989D-06 -0.79387445D-07
  0.25949149D-03 -0.27045871D-03 -0.35688320D-05  0.32394216D-03 -0.33948904D-03
  0.17405987D-05  0.64385159D-05 -0.66583927D-05  0.18451357D-07 -0.47367547D-04
  0.47380151D-04 -0.12604439D-07  0.92068434D-04 -0.34967626D-03  0.36763593D-03
 -0.14221218D-03  0.14104673D-03  0.11654451D-05  0.27233913D-03  0.69871696D-04
 -0.72019680D-04 -0.29793772D-04  0.29910605D-04 -0.11683266D-06  0.57008572D-04
 -0.45747978D-04  0.48174600D-04  0.63564912D-04 -0.67557750D-04  0.68058713D-06
  0.66008801D-04 -0.67471519D-04 -0.19133530D-04 -0.25670354D-03  0.27014477D-03
  0.17091769D-04  0.38474793D-04 -0.18875175D-04  0.20071334D-04  0.23295020D-06
 -0.17433905D-04  0.17987275D-04 -0.36915243D-04  0.74059430D-04 -0.78201277D-04
  0.36216392D-04  0.70451357D-04  0.29056514D-04  0.52404619D-04  0.77270581D-04
 -0.26524729D-03 -0.82035930D-03  0.89402357D-05  0.30649127D-05 -0.52272927D-04
 -0.17186525D-04  0.56274645D-04 -0.21170723D-03 -0.19620713D-03  0.52272803D-04
 -0.12605305D-03 -0.16097572D-04  0.80400210D-04 -0.32217011D-04 -0.48183199D-04
  0.19579414D-04 -0.32313679D-04 -0.21547683D-03  0.31617658D-04  0.83072716D-05
 -0.39924930D-04  0.20131172D-04  0.42389744D-04 -0.22793307D-04 -0.37808164D-04
 -0.68188581D-04 -0.10054402D-03  0.37185744D-03  0.11038262D-02 -0.11671092D-04
  0.62094276D-04 -0.37086489D-04  0.25445235D-04  0.23082344D-03 -0.16231582D-03
  0.26663219D-03  0.13391592D-03 -0.10378444D-03  0.21483945D-04 -0.15492975D-05
 -0.65483053D-04  0.67032350D-04 -0.13018253D-03  0.25661287D-03 -0.13466491D-03
 -0.23289364D-04 -0.30993504D-04  0.54282868D-04 -0.30600199D-04  0.17191698D-04
 -0.30575466D-04  0.95167172D-05  0.17163791D-04  0.25308000D-04 -0.82869391D-04
 -0.26796808D-03  0.28400204D-05  0.16298421D-04  0.46992171D-05 -0.55263760D-05
  0.10149316D-03 -0.37919001D-04 -0.64729850D-04  0.72662985D-04 -0.43579839D-04
 -0.55060412D-05 -0.14833447D-04  0.30415400D-04 -0.15581953D-04 -0.16152450D-04
  0.38965067D-04  0.74841071D-04 -0.79524232D-05  0.20624392D-04 -0.12671968D-04
  0.77078399D-05  0.36476194D-04 -0.48256684D-04 -0.52411345D-04 -0.98056033D-04
 -0.16941908D-03 -0.27464823D-03 -0.41707969D-03 -0.57970153D-03 -0.68922070D-03
 -0.61398175D-03 -0.30491632D-03 -0.49088948D-04 -0.51791739D-06 -0.24601901D-06
 -0.82067823D-05 -0.28598993D-04 -0.10298960D-03 -0.22702777D-03 -0.31958182D-03
  0.15245095D-04  0.41822831D-03  0.24729578D-03 -0.50026291D-08 -0.60594055D-07
 -0.12636251D-06 -0.36238569D-06 -0.18818184D-07  0.15627828D-05  0.40379307D-05
 -0.32899159D-05  0.15380491D-04 -0.13940120D-05  0.16020096D-06  0.80117308D+01
  0.10553324D+02  0.11641968D+02  0.96695660D+01  0.51348079D+01  0.13248073D+01
 -0.84036531D+01 -0.11069577D+02 -0.12211476D+02 -0.10142587D+02 -0.53859952D+01
 -0.13896149D+01 -0.18187411D-02 -0.23957075D-02 -0.26428404D-02 -0.21950859D-02
 -0.11656515D-02 -0.30074418D-03 -0.31708739D-03  0.30653968D-02  0.43225295D-02
  0.61823607D-02 -0.31306604D-04 -0.56698078D-02  0.33263202D-03 -0.32156723D-02
 -0.45344337D-02 -0.64854397D-02  0.32841354D-04  0.59477599D-02  0.92802051D-07
 -0.89715052D-06 -0.12650759D-05 -0.18093932D-05  0.91625123D-08  0.16593842D-05
  0.52892811D-01 -0.55481088D-01 -0.12677886D-04 -0.44401988D-03  0.46541875D-03
  0.22729254D-06 -0.39973537D-04  0.41901125D-04 -0.53732086D-08 -0.92967785D-05
  0.87790657D-05  0.51771276D-06  0.17519041D-04 -0.67707195D-03  0.71081899D-03
  0.33151052D-05 -0.30566309D-05 -0.25847430D-06 -0.60255527D-05  0.24612931D-03
 -0.25860312D-03 -0.88950557D-06  0.88828650D-06  0.12190676D-08  0.17039358D-05
 -0.42097877D-04  0.44348658D-04  0.16208533D-05 -0.17344527D-05  0.38022422D-07
  0.15960538D-05 -0.19131815D-05 -0.25087423D-04 -0.64586136D-05  0.71165397D-05
  0.24973356D-04  0.48226824D-04  0.10170698D-04 -0.10662393D-04  0.34565640D-07
  0.10158813D-04 -0.10609469D-04  0.49691589D-05 -0.40670905D-04  0.42596647D-04
 -0.50728558D-05 -0.97920656D-05  0.18662574D-05  0.34787070D-05  0.58971833D-05
  0.89291330D-05  0.11163383D-04  0.96025112D-05  0.36827697D-05  0.22768215D-08
  0.30140854D-07  0.10947707D-06  0.32476165D-06  0.37422221D-06 -0.45454861D-06
  0.25984984D-06  0.83398441D-06  0.80829729D-07 -0.19787941D-03 -0.19352174D-03
 -0.12786799D-03  0.20912142D-03  0.20451618D-03  0.13513249D-03 -0.35231371D-05
 -0.34455512D-05 -0.22766213D-05 -0.57468653D-05  0.63469763D-05 -0.99862965D-06
 -0.45521995D-04  0.48091928D-04  0.55321157D-06 -0.13459058D-04  0.14104286D-04
 -0.45894795D-07 -0.51046991D-04  0.51078525D-04 -0.31534229D-07  0.98271548D-04
 -0.91626692D-04  0.94624766D-04  0.25648039D-04 -0.25637926D-04 -0.10112219D-07
 -0.49352849D-04  0.70239013D-04 -0.73085440D-04 -0.13092157D-04  0.12908557D-04
  0.18359994D-06  0.25079476D-04 -0.50819330D-04  0.53379683D-04 -0.48658252D-04
  0.51590015D-04 -0.17336208D-06 -0.49667835D-04  0.51765521D-04  0.13612937D-03
  0.19564259D-03 -0.20653557D-03 -0.13560928D-03 -0.26301995D-03  0.17287290D-04
 -0.18329701D-04  0.71489822D-07  0.17596118D-04 -0.18402061D-04 -0.43261998D-04
 -0.69457987D-04  0.73391163D-04  0.43047529D-04  0.83562062D-04
MO    3     MO 0.0        OCC NO =    2.0000210  ORB. ENERGY =    0.000000
 -0.14441843D-01 -0.26922505D-01 -0.45502702D-01 -0.68399048D-01 -0.84015979D-01
 -0.70906522D-01 -0.26662704D-01 -0.38066256D-05 -0.28452168D-04 -0.10633225D-03
 -0.29665041D-03 -0.39742977D-03  0.46929045D-03 -0.87297944D-03 -0.19419519D-02
 -0.82689499D-04 -0.32630308D-05 -0.30592988D-05 -0.21784030D-05  0.23316147D-05
  0.21860370D-05  0.15565886D-05  0.11688035D-02  0.10958276D-02  0.78029453D-03
  0.10230396D-04 -0.66007273D-05  0.60983826D-03  0.25698949D-05 -0.40354102D-05
 -0.38025116D-03  0.32788239D-07  0.26329553D-07  0.46604545D-05 -0.10725125D-03
 -0.10537411D-03  0.21262536D-03  0.37541206D-05 -0.46054038D-06  0.28112039D-06
 -0.24686399D-04 -0.22268275D-04  0.46954673D-04  0.47518964D-05 -0.19802025D-05
  0.19179145D-05  0.11129934D-04  0.11611712D-04 -0.22741647D-04  0.13546148D-06
  0.86319133D-07 -0.40418836D-06 -0.62299840D-07  0.36118564D-04  0.79141328D-05
  0.69324526D-06 -0.10895466D-03 -0.11693674D-04 -0.50634574D-06  0.59896523D-06
 -0.12048724D-04 -0.10482941D-05 -0.29623188D-06  0.51747333D-04 -0.85858959D-04
  0.76137612D-06 -0.15473381D-03  0.12908698D-03  0.12731952D-06 -0.50819044D-06
  0.12848990D-03 -0.71890005D-06 -0.48864795D-05 -0.88129670D-05 -0.12994715D-04
  0.74601477D-03  0.22865547D-03  0.50688436D-05 -0.29945867D-06  0.95302254D-04
  0.28111933D-04  0.45994162D-07  0.19543680D-03 -0.40645940D-05  0.17618032D-06
  0.42710095D-04  0.38287142D-04 -0.73444713D-04  0.53173257D-04  0.20271456D-04
 -0.34231444D-06 -0.47970605D-07  0.75984636D-04 -0.93257601D-05 -0.12314837D-04
  0.21640597D-04  0.32471253D-06 -0.21081161D-06 -0.34429640D-04 -0.39069688D-05
 -0.70463792D-05 -0.10389882D-04  0.76646101D-03  0.25012314D-03  0.52933567D-05
  0.85862949D-04 -0.49389419D-04  0.31151161D-04  0.17209949D-03 -0.10326883D-03
 -0.65232724D-05  0.39535085D-04 -0.23727181D-04  0.39702443D-04  0.20609665D-04
 -0.41525495D-04  0.20915830D-04 -0.11173674D-03  0.66008582D-04 -0.39424820D-04
 -0.11316564D-04 -0.10174688D-04  0.21491252D-04  0.13632546D-05 -0.30397278D-04
  0.17799628D-04 -0.49925026D-05 -0.90041840D-05 -0.13276664D-04  0.74804294D-03
  0.23574052D-03  0.49668908D-05 -0.83274028D-04 -0.46962270D-04  0.28055234D-04
 -0.16857507D-03 -0.10001143D-03 -0.40811728D-05 -0.37476702D-04 -0.22464097D-04
  0.39009486D-04  0.21385679D-04 -0.41663012D-04  0.20277333D-04  0.10995733D-03
 -0.65374777D-04 -0.38536452D-04 -0.11876735D-04 -0.98449011D-05  0.21721637D-04
 -0.22014837D-05  0.29880741D-04  0.17535564D-04 -0.15455585D+00 -0.28915750D+00
 -0.49960002D+00 -0.80991033D+00 -0.12299266D+01 -0.17094822D+01 -0.20324433D+01
 -0.18105711D+01 -0.89916792D+00 -0.14475843D+00 -0.15272869D-02 -0.72262396D-03
 -0.24105526D-01 -0.84002931D-01 -0.30250816D+00 -0.66684158D+00 -0.93869772D+00
  0.44778941D-01  0.12284490D+01  0.72637420D+00 -0.15529112D-04 -0.18809547D-03
 -0.39225328D-03 -0.11249141D-02 -0.58415223D-04  0.48511752D-02  0.12534505D-01
 -0.10212525D-01  0.46584849D-01 -0.38354482D-03 -0.13182847D-03  0.66213536D-03
  0.87218716D-03  0.96215897D-03  0.79914836D-03  0.42436995D-03  0.10948967D-03
  0.33028671D-02  0.43506487D-02  0.47994465D-02  0.39863161D-02  0.21168445D-02
  0.54615694D-03  0.59464660D+01  0.78328868D+01  0.86409003D+01  0.71769442D+01
  0.38111565D+01  0.98329831D+00 -0.10034513D-07  0.97007212D-07  0.13679029D-06
  0.19564631D-06 -0.99072536D-09 -0.17942612D-06 -0.11768485D-06  0.11377014D-05
  0.16042777D-05  0.22945415D-05 -0.11619235D-07 -0.21043109D-05 -0.21103818D-03
  0.20401814D-02  0.28768687D-02  0.41146833D-02 -0.20836177D-04 -0.37735527D-02
  0.47469960D-05  0.22697110D-04  0.41689967D-01 -0.88037579D-07 -0.77375294D-07
 -0.48456087D-03 -0.40795225D-08 -0.28619654D-07 -0.98527788D-05 -0.65859909D-05
 -0.67261344D-05  0.13312125D-04 -0.40798425D-06  0.63644151D-06  0.63634878D-07
 -0.11180186D-03 -0.11177448D-03  0.22357634D-03  0.10748994D-06 -0.55156573D-07
  0.97364409D-07 -0.14356888D-04 -0.14363411D-04  0.28720299D-04  0.44470844D-07
  0.86148159D-07 -0.35520833D-07  0.71822754D-08 -0.71598997D-05  0.54199849D-05
 -0.14246545D-06  0.21564580D-04 -0.80908705D-05  0.12091863D-06 -0.84881182D-07
 -0.81690843D-05  0.50660117D-06  0.26466374D-08  0.20461646D-05 -0.33879283D-04
  0.45528003D-07 -0.61348357D-05  0.50822685D-04 -0.53467915D-07 -0.36581993D-08
  0.50815164D-04 -0.27040443D-06 -0.88007281D-03 -0.16404572D-02 -0.27809405D-02
 -0.42107200D-02 -0.52643274D-02 -0.45282655D-02 -0.17366873D-02 -0.68713754D-06
 -0.90964145D-05 -0.33039832D-04 -0.98012040D-04 -0.11293908D-03  0.13718133D-03
 -0.96095831D-04 -0.16039146D-03  0.12215015D-04  0.16965196D-05  0.16591591D-05
  0.10962766D-05  0.13993775D-05  0.13685606D-05  0.90426587D-06  0.39043267D-02
  0.38183462D-02  0.25229428D-02  0.56616110D-06  0.54401397D-06  0.87971777D-03
  0.37661016D-08 -0.10166968D-06  0.21038943D-04  0.35981477D-07 -0.41938869D-07
  0.93318485D-05 -0.35423317D-04 -0.35870657D-04  0.71293974D-04 -0.40725827D-06
 -0.39327364D-06 -0.28886662D-06  0.21041550D-04  0.21248190D-04 -0.42289741D-04
  0.17901904D-06  0.14827321D-06  0.13375649D-06  0.18163349D-04  0.18070817D-04
 -0.36234165D-04 -0.60172457D-07 -0.15077818D-06 -0.20441339D-07 -0.38413449D-07
 -0.26184785D-05  0.46031133D-04 -0.98204773D-07  0.84745804D-05 -0.69398123D-04
  0.21344512D-06 -0.61914500D-06 -0.68695276D-04 -0.49432185D-06  0.28850285D-07
  0.82203332D-06 -0.25268257D-04  0.47847084D-07 -0.26984405D-05  0.38013938D-04
 -0.13439794D-06  0.23234051D-06  0.37790834D-04  0.12029741D-06
MO    4     MO 0.0        OCC NO =    2.0000123  ORB. ENERGY =    0.000000
  0.27155592D-01  0.50623494D-01  0.85560601D-01  0.12861354D+00  0.15797870D+00
  0.13332845D+00  0.50134979D-01 -0.13962428D-05 -0.10436050D-04 -0.39001901D-04
 -0.10880923D-03 -0.14577437D-03  0.17213235D-03  0.26722016D-02 -0.36291935D-02
 -0.43787551D-04  0.57198558D-05  0.53627284D-05  0.38185821D-05 -0.16328611D-05
 -0.15309110D-05 -0.10900999D-05  0.36707280D-02  0.34415408D-02  0.24505821D-02
  0.17343086D-04 -0.93854715D-05  0.13088239D-02  0.69919468D-05 -0.69793519D-05
 -0.41893859D-03  0.56477156D-07  0.10267187D-07  0.36579950D-05 -0.31984787D-03
 -0.31798345D-03  0.63783132D-03  0.29244012D-05  0.15771547D-06  0.31297897D-06
  0.88130833D-05  0.11384635D-04 -0.20197718D-04  0.95027301D-05 -0.42662002D-05
  0.33535434D-05 -0.18024116D-04 -0.17705038D-04  0.35729154D-04  0.98524857D-06
  0.29394218D-06 -0.47195766D-06  0.21119813D-06 -0.42926585D-04  0.23030637D-04
 -0.64134845D-06  0.12860123D-03 -0.34266135D-04  0.77540491D-08  0.17852716D-06
 -0.34825775D-04 -0.16925796D-05 -0.48563120D-06  0.82227456D-04 -0.16399022D-03
  0.11960287D-05 -0.24563559D-03  0.24621838D-03  0.26086493D-06 -0.10467751D-05
  0.24575228D-03 -0.17832999D-05 -0.90573642D-04 -0.16335329D-03 -0.24086434D-03
  0.10169877D-02  0.67344745D-03  0.42563878D-05 -0.18226438D-06 -0.59243126D-04
  0.32738018D-04  0.92865547D-06  0.29983186D-03 -0.42406370D-04  0.10704270D-05
  0.10892745D-03  0.75121911D-04 -0.14111404D-03  0.22078822D-04  0.11903522D-03
  0.54412838D-06  0.31677033D-06  0.14258896D-03 -0.14428777D-04 -0.21451378D-04
  0.35880154D-04  0.84557086D-06 -0.52236970D-06 -0.62451030D-04 -0.91161312D-04
 -0.16441318D-03 -0.24242714D-03  0.10485334D-02  0.71472529D-03  0.45948636D-05
 -0.44359173D-04  0.27202218D-04  0.38493514D-04  0.26452860D-03 -0.15742406D-03
 -0.47844088D-04  0.99052140D-04 -0.57892313D-04  0.77592909D-04 -0.16151623D-04
 -0.10184447D-03  0.11799610D-03 -0.15066944D-03  0.12528682D-03 -0.74356238D-04
 -0.19454562D-04 -0.16517768D-04  0.35972331D-04  0.48334732D-05 -0.55565317D-04
  0.32259094D-04 -0.90544024D-04 -0.16329988D-03 -0.24078557D-03  0.10164591D-02
  0.67720659D-03  0.41780333D-05  0.50471232D-04  0.30596096D-04  0.32292981D-04
 -0.25740526D-03 -0.15245671D-03 -0.41876014D-04 -0.94449064D-04 -0.55795592D-04
  0.75893722D-04 -0.18680584D-04 -0.10048706D-03  0.11916764D-03  0.14145969D-03
 -0.12247358D-03 -0.72239948D-04 -0.20228455D-04 -0.15773934D-04  0.36002389D-04
 -0.56158408D-05  0.54169288D-04  0.31677933D-04  0.91378277D-01  0.17095901D+00
  0.29537924D+00  0.47884446D+00  0.72717126D+00  0.10106996D+01  0.12016444D+01
  0.10704666D+01  0.53161635D+00  0.85585735D-01  0.90298006D-03  0.42783169D-03
  0.14271749D-01  0.49734187D-01  0.17910086D+00  0.39480556D+00  0.55575881D+00
 -0.26511506D-01 -0.72730691D+00 -0.43005202D+00  0.62822623D-05  0.76093538D-04
  0.15868505D-03  0.45508110D-03  0.23631728D-04 -0.19625304D-02 -0.50708017D-02
  0.41314505D-02 -0.28565200D-01  0.14204868D-02 -0.18063301D-03  0.56798551D-02
  0.74816979D-02  0.82534839D-02  0.68551646D-02  0.36402826D-02  0.93921195D-03
  0.95813424D-03  0.12620869D-02  0.13922795D-02  0.11563971D-02  0.61407895D-03
  0.15843558D-03  0.99110701D+01  0.13055198D+02  0.14401927D+02  0.11961928D+02
  0.63521156D+01  0.16388790D+01 -0.17150070D-06  0.16579584D-05  0.23378945D-05
  0.33438076D-05 -0.16932571D-07 -0.30665869D-05 -0.33305882D-07  0.32197984D-06
  0.45402518D-06  0.64937612D-06 -0.32883492D-08 -0.59553915D-06 -0.33688724D-03
  0.32568091D-02  0.45924408D-02  0.65684052D-02 -0.33261479D-04 -0.60238471D-02
  0.40822658D-04  0.71295215D-05  0.72532503D-01 -0.26662091D-06  0.16756431D-06
 -0.30788213D-03 -0.22687200D-07 -0.16332507D-07 -0.39984785D-05  0.45520371D-03
  0.45498263D-03 -0.91018633D-03 -0.31814478D-06 -0.82196260D-06 -0.56054219D-07
 -0.31014688D-03 -0.31010556D-03  0.62025245D-03  0.12605205D-06  0.48158501D-06
  0.14032563D-06  0.42021971D-05  0.42280851D-05 -0.84302823D-05  0.78003870D-07
  0.10429530D-06 -0.83873791D-07  0.22858068D-07 -0.14416328D-04 -0.46914413D-04
 -0.27995051D-06  0.43522301D-04  0.70286601D-04  0.21137631D-06 -0.27331619D-06
  0.70456637D-04  0.11366515D-05  0.16204019D-07  0.41615884D-05 -0.62813347D-04
  0.10376089D-06 -0.12495146D-04  0.94274983D-04 -0.15237294D-06  0.10381104D-07
  0.94165058D-04 -0.58382356D-06 -0.63688393D-02 -0.11871527D-01 -0.20124884D-01