 title line
GAUSSIAN            211 MOL ORBITALS    339 PRIMITIVES        6 NUCLEI
  C    1    (CENTRE  1)   0.00033070  0.00005480 -0.95943097  CHARGE =  6.0
  H    2    (CENTRE  2)   0.00003590 -1.98906904 -1.17300214  CHARGE =  1.0
  H    3    (CENTRE  3)  -1.72213010  0.99468570 -1.17398291  CHARGE =  1.0
  H    4    (CENTRE  4)   1.72295780  0.99424539 -1.17459707  CHARGE =  1.0
  Cl   5    (CENTRE  5)   0.00104880  0.00181792  3.10806659  CHARGE = 17.0
  F    6    (CENTRE  6)  -0.00035149 -0.00174044 -4.90092914  CHARGE =  9.0
CENTRE ASSIGNMENTS    1  1  1  1  1  1  1  1  1  1  1  1  1  1  1  1  1  1  1  1
CENTRE ASSIGNMENTS    1  1  1  1  1  1  1  1  1  1  1  1  1  1  1  1  1  1  1  1
CENTRE ASSIGNMENTS    1  1  1  1  1  1  1  1  1  1  1  1  1  1  1  1  1  1  1  1
CENTRE ASSIGNMENTS    1  1  1  1  1  1  1  1  1  1  1  1  2  2  2  2  2  2  2  2
CENTRE ASSIGNMENTS    2  2  2  2  2  2  2  2  2  2  2  2  2  2  2  2  2  2  2  3
CENTRE ASSIGNMENTS    3  3  3  3  3  3  3  3  3  3  3  3  3  3  3  3  3  3  3  3
CENTRE ASSIGNMENTS    3  3  3  3  3  3  4  4  4  4  4  4  4  4  4  4  4  4  4  4
CENTRE ASSIGNMENTS    4  4  4  4  4  4  4  4  4  4  4  4  4  5  5  5  5  5  5  5
CENTRE ASSIGNMENTS    5  5  5  5  5  5  5  5  5  5  5  5  5  5  5  5  5  5  5  5
CENTRE ASSIGNMENTS    5  5  5  5  5  5  5  5  5  5  5  5  5  5  5  5  5  5  5  5
CENTRE ASSIGNMENTS    5  5  5  5  5  5  5  5  5  5  5  5  5  5  5  5  5  5  5  5
CENTRE ASSIGNMENTS    5  5  5  5  5  5  5  5  5  5  5  5  5  5  5  5  5  5  5  5
CENTRE ASSIGNMENTS    5  5  5  5  5  5  5  5  5  5  5  5  5  5  5  5  5  5  5  5
CENTRE ASSIGNMENTS    5  5  5  5  5  5  5  6  6  6  6  6  6  6  6  6  6  6  6  6
CENTRE ASSIGNMENTS    6  6  6  6  6  6  6  6  6  6  6  6  6  6  6  6  6  6  6  6
CENTRE ASSIGNMENTS    6  6  6  6  6  6  6  6  6  6  6  6  6  6  6  6  6  6  6  6
CENTRE ASSIGNMENTS    6  6  6  6  6  6  6  6  6  6  6  6  6  6  6  6  6  6  6
TYPE ASSIGNMENTS      1  1  1  1  1  1  1  1  1  1  1  1  1  1  1  1  2  2  2  3
TYPE ASSIGNMENTS      3  3  4  4  4  2  3  4  2  3  4  2  3  4  5  6  7  8  9 10
TYPE ASSIGNMENTS      5  6  7  8  9 10  5  6  7  8  9 10 11 12 13 17 14 15 18 19
TYPE ASSIGNMENTS     16 20 11 12 13 17 14 15 18 19 16 20  1  1  1  1  1  1  2  3
TYPE ASSIGNMENTS      4  2  3  4  2  3  4  5  6  7  8  9 10  5  6  7  8  9 10  1
TYPE ASSIGNMENTS      1  1  1  1  1  2  3  4  2  3  4  2  3  4  5  6  7  8  9 10
TYPE ASSIGNMENTS      5  6  7  8  9 10  1  1  1  1  1  1  2  3  4  2  3  4  2  3
TYPE ASSIGNMENTS      4  5  6  7  8  9 10  5  6  7  8  9 10  1  1  1  1  1  1  1
TYPE ASSIGNMENTS      1  1  1  1  1  1  1  1  1  1  1  1  1  1  1  1  1  1  1  1
TYPE ASSIGNMENTS      1  1  1  1  2  2  2  2  2  2  3  3  3  3  3  3  4  4  4  4
TYPE ASSIGNMENTS      4  4  2  2  2  2  2  2  3  3  3  3  3  3  4  4  4  4  4  4
TYPE ASSIGNMENTS      2  3  4  2  3  4  2  3  4  5  6  7  8  9 10  5  6  7  8  9
TYPE ASSIGNMENTS     10  5  6  7  8  9 10 11 12 13 17 14 15 18 19 16 20 11 12 13
TYPE ASSIGNMENTS     17 14 15 18 19 16 20  1  1  1  1  1  1  1  1  1  1  1  1  1
TYPE ASSIGNMENTS      1  1  1  2  2  2  3  3  3  4  4  4  2  3  4  2  3  4  2  3
TYPE ASSIGNMENTS      4  5  6  7  8  9 10  5  6  7  8  9 10  5  6  7  8  9 10 11
TYPE ASSIGNMENTS     12 13 17 14 15 18 19 16 20 11 12 13 17 14 15 18 19 16 20
EXPONENTS  0.8236000D+04 0.1235000D+04 0.2808000D+03 0.7927000D+02 0.2559000D+02
EXPONENTS  0.8997000D+01 0.3319000D+01 0.2808000D+03 0.7927000D+02 0.2559000D+02
EXPONENTS  0.8997000D+01 0.3319000D+01 0.3643000D+00 0.9059000D+00 0.1285000D+00
EXPONENTS  0.4402000D-01 0.1871000D+02 0.4133000D+01 0.1200000D+01 0.1871000D+02
EXPONENTS  0.4133000D+01 0.1200000D+01 0.1871000D+02 0.4133000D+01 0.1200000D+01
EXPONENTS  0.3827000D+00 0.3827000D+00 0.3827000D+00 0.1209000D+00 0.1209000D+00
EXPONENTS  0.1209000D+00 0.3569000D-01 0.3569000D-01 0.3569000D-01 0.1097000D+01
EXPONENTS  0.1097000D+01 0.1097000D+01 0.1097000D+01 0.1097000D+01 0.1097000D+01
EXPONENTS  0.3180000D+00 0.3180000D+00 0.3180000D+00 0.3180000D+00 0.3180000D+00
EXPONENTS  0.3180000D+00 0.1000000D+00 0.1000000D+00 0.1000000D+00 0.1000000D+00
EXPONENTS  0.1000000D+00 0.1000000D+00 0.7610000D+00 0.7610000D+00 0.7610000D+00
EXPONENTS  0.7610000D+00 0.7610000D+00 0.7610000D+00 0.7610000D+00 0.7610000D+00
EXPONENTS  0.7610000D+00 0.7610000D+00 0.2680000D+00 0.2680000D+00 0.2680000D+00
EXPONENTS  0.2680000D+00 0.2680000D+00 0.2680000D+00 0.2680000D+00 0.2680000D+00
EXPONENTS  0.2680000D+00 0.2680000D+00 0.3387000D+02 0.5095000D+01 0.1159000D+01
EXPONENTS  0.3258000D+00 0.1027000D+00 0.2526000D-01 0.1407000D+01 0.1407000D+01
EXPONENTS  0.1407000D+01 0.3880000D+00 0.3880000D+00 0.3880000D+00 0.1020000D+00
EXPONENTS  0.1020000D+00 0.1020000D+00 0.1057000D+01 0.1057000D+01 0.1057000D+01
EXPONENTS  0.1057000D+01 0.1057000D+01 0.1057000D+01 0.2470000D+00 0.2470000D+00
EXPONENTS  0.2470000D+00 0.2470000D+00 0.2470000D+00 0.2470000D+00 0.3387000D+02
EXPONENTS  0.5095000D+01 0.1159000D+01 0.3258000D+00 0.1027000D+00 0.2526000D-01
EXPONENTS  0.1407000D+01 0.1407000D+01 0.1407000D+01 0.3880000D+00 0.3880000D+00
EXPONENTS  0.3880000D+00 0.1020000D+00 0.1020000D+00 0.1020000D+00 0.1057000D+01
EXPONENTS  0.1057000D+01 0.1057000D+01 0.1057000D+01 0.1057000D+01 0.1057000D+01
EXPONENTS  0.2470000D+00 0.2470000D+00 0.2470000D+00 0.2470000D+00 0.2470000D+00
EXPONENTS  0.2470000D+00 0.3387000D+02 0.5095000D+01 0.1159000D+01 0.3258000D+00
EXPONENTS  0.1027000D+00 0.2526000D-01 0.1407000D+01 0.1407000D+01 0.1407000D+01
EXPONENTS  0.3880000D+00 0.3880000D+00 0.3880000D+00 0.1020000D+00 0.1020000D+00
EXPONENTS  0.1020000D+00 0.1057000D+01 0.1057000D+01 0.1057000D+01 0.1057000D+01
EXPONENTS  0.1057000D+01 0.1057000D+01 0.2470000D+00 0.2470000D+00 0.2470000D+00
EXPONENTS  0.2470000D+00 0.2470000D+00 0.2470000D+00 0.4561000D+06 0.6833000D+05
EXPONENTS  0.1555000D+05 0.4405000D+04 0.1439000D+04 0.5204000D+03 0.2031000D+03
EXPONENTS  0.8396000D+02 0.3620000D+02 0.1583000D+02 0.6334000D+01 0.4405000D+04
EXPONENTS  0.1439000D+04 0.5204000D+03 0.2031000D+03 0.8396000D+02 0.3620000D+02
EXPONENTS  0.1583000D+02 0.6334000D+01 0.2694000D+01 0.1439000D+04 0.2031000D+03
EXPONENTS  0.8396000D+02 0.3620000D+02 0.1583000D+02 0.6334000D+01 0.2694000D+01
EXPONENTS  0.4313000D+00 0.9768000D+00 0.1625000D+00 0.5910000D-01 0.6633000D+03
EXPONENTS  0.1568000D+03 0.4998000D+02 0.1842000D+02 0.7240000D+01 0.2922000D+01
EXPONENTS  0.6633000D+03 0.1568000D+03 0.4998000D+02 0.1842000D+02 0.7240000D+01
EXPONENTS  0.2922000D+01 0.6633000D+03 0.1568000D+03 0.4998000D+02 0.1842000D+02
EXPONENTS  0.7240000D+01 0.2922000D+01 0.1568000D+03 0.4998000D+02 0.1842000D+02
EXPONENTS  0.7240000D+01 0.2922000D+01 0.3818000D+00 0.1568000D+03 0.4998000D+02
EXPONENTS  0.1842000D+02 0.7240000D+01 0.2922000D+01 0.3818000D+00 0.1568000D+03
EXPONENTS  0.4998000D+02 0.1842000D+02 0.7240000D+01 0.2922000D+01 0.3818000D+00
EXPONENTS  0.1022000D+01 0.1022000D+01 0.1022000D+01 0.1301000D+00 0.1301000D+00
EXPONENTS  0.1301000D+00 0.4190000D-01 0.4190000D-01 0.4190000D-01 0.1046000D+01
EXPONENTS  0.1046000D+01 0.1046000D+01 0.1046000D+01 0.1046000D+01 0.1046000D+01
EXPONENTS  0.3440000D+00 0.3440000D+00 0.3440000D+00 0.3440000D+00 0.3440000D+00
EXPONENTS  0.3440000D+00 0.1350000D+00 0.1350000D+00 0.1350000D+00 0.1350000D+00
EXPONENTS  0.1350000D+00 0.1350000D+00 0.7060000D+00 0.7060000D+00 0.7060000D+00
EXPONENTS  0.7060000D+00 0.7060000D+00 0.7060000D+00 0.7060000D+00 0.7060000D+00
EXPONENTS  0.7060000D+00 0.7060000D+00 0.3120000D+00 0.3120000D+00 0.3120000D+00
EXPONENTS  0.3120000D+00 0.3120000D+00 0.3120000D+00 0.3120000D+00 0.3120000D+00
EXPONENTS  0.3120000D+00 0.3120000D+00 0.1950000D+05 0.2923000D+04 0.6645000D+03
EXPONENTS  0.1875000D+03 0.6062000D+02 0.2142000D+02 0.7950000D+01 0.6645000D+03
EXPONENTS  0.1875000D+03 0.6062000D+02 0.2142000D+02 0.7950000D+01 0.8815000D+00
EXPONENTS  0.2257000D+01 0.3041000D+00 0.9158000D-01 0.4388000D+02 0.9926000D+01
EXPONENTS  0.2930000D+01 0.4388000D+02 0.9926000D+01 0.2930000D+01 0.4388000D+02
EXPONENTS  0.9926000D+01 0.2930000D+01 0.9132000D+00 0.9132000D+00 0.9132000D+00
EXPONENTS  0.2672000D+00 0.2672000D+00 0.2672000D+00 0.7361000D-01 0.7361000D-01
EXPONENTS  0.7361000D-01 0.3107000D+01 0.3107000D+01 0.3107000D+01 0.3107000D+01
EXPONENTS  0.3107000D+01 0.3107000D+01 0.8550000D+00 0.8550000D+00 0.8550000D+00
EXPONENTS  0.8550000D+00 0.8550000D+00 0.8550000D+00 0.2920000D+00 0.2920000D+00
EXPONENTS  0.2920000D+00 0.2920000D+00 0.2920000D+00 0.2920000D+00 0.1917000D+01
EXPONENTS  0.1917000D+01 0.1917000D+01 0.1917000D+01 0.1917000D+01 0.1917000D+01
EXPONENTS  0.1917000D+01 0.1917000D+01 0.1917000D+01 0.1917000D+01 0.7240000D+00
EXPONENTS  0.7240000D+00 0.7240000D+00 0.7240000D+00 0.7240000D+00 0.7240000D+00
EXPONENTS  0.7240000D+00 0.7240000D+00 0.7240000D+00 0.7240000D+00
MO    1     MO 0.0        OCC NO =    2.0000299  ORB. ENERGY =    0.000000
 -0.57273147D-09 -0.10676868D-08 -0.18045362D-08 -0.27125545D-08 -0.33318874D-08
 -0.28119954D-08 -0.10573837D-08 -0.37646387D-10 -0.28138342D-09 -0.10515941D-08
 -0.29337838D-08 -0.39304614D-08  0.46411420D-08  0.54810528D-08 -0.15533183D-07
 -0.96165862D-08 -0.28521834D-04 -0.26741032D-04 -0.19041208D-04  0.11221942D-03
  0.10521284D-03  0.74917809D-04 -0.32634984D-07 -0.30597372D-07 -0.21787152D-07
 -0.93634107D-04  0.36840534D-03 -0.14803176D-06 -0.11523539D-03  0.45339568D-03
 -0.16547312D-06 -0.21870489D-05  0.86045353D-05 -0.32479334D-08  0.61222561D-04
 -0.61412501D-04  0.18993991D-06 -0.31193612D-04  0.12197142D-03 -0.47988583D-03
  0.19583896D-03 -0.19580610D-03 -0.32860153D-07 -0.99704476D-04 -0.24358137D-04
  0.95930098D-04  0.41231244D-04 -0.41252818D-04  0.21573422D-07 -0.20993758D-04
  0.15790651D-04 -0.62108607D-04 -0.22807083D-04  0.89739815D-04  0.13597032D-06
 -0.22821261D-04  0.89757462D-04  0.26514415D-04  0.91242510D-04 -0.35897691D-03
 -0.26922326D-04 -0.13550455D-04  0.65067150D-05 -0.25585770D-04 -0.37873521D-07
  0.64796487D-05 -0.25554431D-04  0.48282203D-04 -0.25999794D-04  0.10231174D-03
 -0.48168583D-04 -0.24567576D-04 -0.37066407D-04 -0.66850792D-04 -0.98571454D-04
  0.38023771D-03  0.11063422D-02 -0.12862029D-04 -0.27197280D-06  0.73246785D-04
  0.22319938D-04 -0.22477956D-04  0.29029310D-03  0.26389145D-03 -0.19698727D-04
  0.16910953D-03  0.22614919D-04 -0.10658528D-03  0.44475912D-04  0.62109364D-04
 -0.78743283D-05  0.11329007D-04  0.28502111D-03 -0.42574480D-04 -0.10872708D-04
  0.53447188D-04 -0.78595907D-05 -0.14436456D-04  0.31081976D-04  0.26695127D-04
  0.48145761D-04  0.70990897D-04 -0.27383226D-03 -0.79681889D-03  0.92638977D-05
 -0.45265369D-04  0.27088634D-04 -0.16105427D-04 -0.14822121D-03  0.16120364D-03
 -0.19018587D-03 -0.76803069D-04  0.11053156D-03 -0.16370631D-04  0.52407800D-05
  0.39580244D-04 -0.44821024D-04  0.10565594D-03 -0.19413743D-03  0.74303553D-04
  0.23447126D-04  0.15073246D-04 -0.38520372D-04  0.31198085D-04  0.16559139D-05
  0.47548311D-04  0.10369369D-04  0.18701584D-04  0.27575475D-04 -0.10635972D-03
 -0.30953177D-03  0.35993161D-05  0.17186939D-04  0.11202188D-04 -0.62623076D-05
  0.26242622D-04  0.11686771D-03 -0.73918513D-04  0.24619371D-05  0.90370009D-04
 -0.63864998D-05  0.11636380D-04  0.57918919D-05 -0.17428272D-04 -0.52087974D-04
  0.91001906D-04  0.18621684D-05  0.18558971D-04 -0.35852406D-05 -0.14973730D-04
 -0.23044761D-04 -0.20752522D-04  0.53304936D-04  0.22355601D-06  0.41824945D-06
  0.72264228D-06  0.11714880D-05  0.17790170D-05  0.24726663D-05  0.29398107D-05
  0.26188855D-05  0.13005939D-05  0.20938462D-06  0.22091314D-08  0.10499678D-08
  0.35025167D-07  0.12205570D-06  0.43954232D-06  0.96891635D-06  0.13639215D-05
 -0.65063501D-07 -0.17849281D-05 -0.10554168D-05  0.19255631D-10  0.23323271D-09
  0.48638223D-09  0.13948596D-08  0.72433114D-10 -0.60153109D-08 -0.15542408D-07
  0.12663222D-07 -0.63476941D-07  0.77363983D-08  0.22946775D-08 -0.28599353D+01
 -0.37672038D+01 -0.41558155D+01 -0.34517301D+01 -0.18329645D+01 -0.47291442D+00
  0.11252710D+02  0.14822451D+02  0.16351484D+02  0.13581187D+02  0.72119874D+01
  0.18607304D+01 -0.43497835D-02 -0.57296824D-02 -0.63207365D-02 -0.52498666D-02
 -0.27878248D-02 -0.71927338D-03  0.11287764D-03 -0.10912284D-02 -0.15387459D-02
 -0.22008137D-02  0.11144611D-04  0.20183537D-02 -0.44412835D-03  0.42935472D-02
  0.60543497D-02  0.86593216D-02 -0.43849586D-04 -0.79414146D-02  0.17185256D-06
 -0.16613599D-05 -0.23426909D-05 -0.33506678D-05  0.16967310D-07  0.30728784D-05
 -0.18892430D-01  0.74334203D-01 -0.28735800D-04  0.15818473D-03 -0.62239600D-03
  0.24056080D-06  0.14398054D-04 -0.56650669D-04  0.21674218D-07  0.11613682D-04
 -0.11970691D-04  0.35700891D-06 -0.59529378D-05  0.23489568D-03 -0.92420728D-03
 -0.41854058D-05  0.43175831D-05 -0.13217736D-06  0.21459291D-05 -0.85925225D-04
  0.33807361D-03  0.13749199D-05 -0.13972067D-05  0.22286726D-07 -0.70227525D-06
  0.14828533D-04 -0.58342770D-04 -0.69398243D-06  0.27392829D-05  0.45477707D-08
 -0.71423750D-06  0.27673808D-05  0.35087368D-04  0.27961848D-05 -0.10985229D-04
 -0.35101011D-04 -0.17865228D-04 -0.34732662D-05  0.13663605D-04  0.21502099D-07
 -0.34688850D-05  0.13657423D-04 -0.75914766D-05  0.13888684D-04 -0.54648239D-04
  0.75269703D-05  0.38558764D-05 -0.26451584D-07 -0.49305798D-07 -0.83584313D-07
 -0.12655795D-06 -0.15822532D-06 -0.13610215D-06 -0.52198102D-07  0.50463244D-10
  0.66803886D-09  0.24264387D-08  0.71979847D-08  0.82942235D-08 -0.10074570D-07
 -0.10381829D-08  0.17943726D-07  0.18601998D-07  0.71226602D-04  0.69658061D-04
  0.46026026D-04 -0.28024918D-03 -0.27407757D-03 -0.18109464D-03  0.13788054D-06
  0.13484416D-06  0.89097238D-07  0.16762040D-05 -0.66095961D-05 -0.12510402D-08
  0.16813813D-04 -0.66144199D-04  0.45414066D-07  0.48372679D-05 -0.19032401D-04
  0.99625572D-08  0.67097210D-04 -0.67141938D-04  0.44728278D-07 -0.34162752D-04
  0.32769671D-04 -0.12889843D-03 -0.33695717D-04  0.33732789D-04 -0.37072536D-07
  0.17157426D-04 -0.25119402D-04  0.98813682D-04  0.17151923D-04 -0.17184122D-04
  0.32198980D-07 -0.87349960D-05  0.18460581D-04 -0.72616155D-04  0.17217295D-04
 -0.67775746D-04 -0.11221836D-06  0.17322361D-04 -0.67918893D-04 -0.18310716D-03
 -0.68974245D-04  0.27124613D-03  0.18344381D-03  0.93255259D-04 -0.61568768D-05
  0.24234612D-04  0.41005389D-07 -0.61902296D-05  0.24279966D-04  0.58108691D-04
  0.24660860D-04 -0.96983803D-04 -0.58231707D-04 -0.29596322D-04
MO    2     MO 0.0        OCC NO =    2.0000299  ORB. ENERGY =    0.000000
  0.11783752D-07  0.21967287D-07  0.37127708D-07  0.55809869D-07  0.68552428D-07
  0.57855831D-07  0.21755303D-07 -0.22595525D-10 -0.16888755D-09 -0.63117135D-09
 -0.17608698D-08 -0.23590800D-08  0.27856337D-08  0.47685482D-08 -0.62589331D-08
 -0.11282968D-08  0.11222299D-03  0.10521619D-03  0.74920193D-04  0.28521369D-04
  0.26740596D-04  0.19040897D-04 -0.29911994D-07 -0.28044396D-07 -0.19969281D-07
  0.36842842D-03  0.93636026D-04 -0.10322846D-06  0.45341112D-03  0.11523426D-03
 -0.13113713D-06  0.86047549D-05  0.21867817D-05 -0.24699602D-08  0.15495601D-04
 -0.15632789D-04  0.13718803D-06  0.12218582D-03 -0.47999913D-03 -0.12198833D-03
  0.49870878D-04 -0.49845450D-04 -0.25427874D-07  0.39174407D-03  0.95551193D-04
  0.24307826D-04  0.10484254D-04 -0.10501410D-04  0.17156974D-07  0.82424627D-04
 -0.62190937D-04 -0.15800723D-04  0.89755456D-04  0.22807687D-04  0.10239547D-06
  0.89774749D-04  0.22822436D-04  0.65640620D-05 -0.35904112D-03 -0.91245497D-04
 -0.68712484D-05  0.52572063D-04 -0.25566120D-04 -0.65021947D-05 -0.29463572D-07
 -0.25527544D-04 -0.64779233D-05  0.12344135D-04  0.10222590D-03  0.25984507D-04
 -0.12255744D-04  0.96694788D-04 -0.94255006D-05 -0.16999278D-04 -0.25065426D-04
  0.96695420D-04  0.28133657D-03 -0.32709349D-05  0.11244394D-05  0.18625873D-04
  0.56758700D-05  0.88746418D-04  0.73808168D-04  0.67087922D-04  0.77575599D-04
  0.42993680D-04  0.57362508D-05 -0.27107406D-04  0.11305646D-04  0.15801759D-04
  0.31340752D-04 -0.44148528D-04  0.72479288D-04 -0.10811720D-04 -0.27688567D-05
  0.13580576D-04  0.30965655D-04  0.56929288D-04  0.78898855D-05 -0.27387722D-04
 -0.49394884D-04 -0.72832727D-04  0.28096331D-03  0.81747625D-03 -0.95030957D-05
  0.47270539D-04 -0.26359803D-04  0.16523616D-04  0.21766970D-03 -0.51805782D-04
  0.19505136D-03  0.13614071D-03 -0.14099545D-04  0.16740155D-04  0.14682830D-04
 -0.60696081D-04  0.46013251D-04 -0.85273817D-04  0.16649546D-03 -0.13274924D-03
 -0.42427695D-05 -0.35239337D-04  0.39482107D-04 -0.91196573D-05  0.40375152D-04
  0.24112294D-04  0.36812930D-04  0.66393636D-04  0.97897377D-04 -0.37764126D-03
 -0.10988174D-02  0.12774155D-04  0.63153653D-04  0.36082055D-04 -0.22232351D-04
  0.26197091D-03  0.12245237D-03 -0.26230342D-03  0.15629979D-03  0.65147767D-04
 -0.22582541D-04 -0.10341991D-04  0.72261554D-04 -0.61919562D-04 -0.12528960D-03
  0.23901306D-03  0.15210247D-03  0.14934481D-04  0.38164686D-04 -0.53099167D-04
 -0.22902381D-04  0.34632793D-04  0.15293102D-05  0.41758294D-07  0.78125313D-07
  0.13498321D-06  0.21882365D-06  0.33230471D-06  0.46187228D-06  0.54913074D-06
  0.48918475D-06  0.24293949D-06  0.39111203D-07  0.41264629D-09  0.19771100D-09
  0.65953079D-08  0.22983328D-07  0.82766685D-07  0.18244886D-06  0.25682910D-06
 -0.12251585D-07 -0.33610548D-06 -0.19873707D-06  0.17719433D-11  0.21462561D-10
  0.44757908D-10  0.12835789D-09  0.66654464D-11 -0.55354146D-09 -0.14302448D-08
  0.11652962D-08 -0.12211600D-07  0.50429225D-08  0.50807233D-09  0.11252710D+02
  0.14822452D+02  0.16351485D+02  0.13581188D+02  0.72119878D+01  0.18607305D+01
  0.28599342D+01  0.37672024D+01  0.41558139D+01  0.34517288D+01  0.18329638D+01
  0.47291424D+00 -0.32158568D-02 -0.42360357D-02 -0.46730104D-02 -0.38813011D-02
 -0.20610786D-02 -0.53176904D-03 -0.44412858D-03  0.42935494D-02  0.60543528D-02
  0.86593261D-02 -0.43849609D-04 -0.79414188D-02 -0.11287748D-03  0.10912269D-02
  0.15387438D-02  0.22008107D-02 -0.11144596D-04 -0.20183510D-02  0.12684473D-06
 -0.12262532D-05 -0.17291451D-05 -0.24731348D-05  0.12523607D-07  0.22680979D-05
  0.74334217D-01  0.18892422D-01 -0.21241519D-04 -0.62239368D-03 -0.15818504D-03
  0.17679158D-06 -0.56650561D-04 -0.14398042D-04  0.16171075D-07  0.27831038D-05
 -0.30468942D-05  0.26379037D-06  0.22702799D-04 -0.92423525D-03 -0.23489559D-03
 -0.10022067D-05  0.10986261D-05 -0.96419446D-07 -0.81796635D-05  0.33808675D-03
  0.85924447D-04  0.33899001D-06 -0.35572572D-06  0.16735709D-07  0.27157045D-05
 -0.58346363D-04 -0.14828617D-04  0.27566910D-05  0.69606758D-06  0.31546921D-08
  0.27837575D-05  0.71695431D-06  0.89262142D-05 -0.11053831D-04 -0.28051571D-05
 -0.89356783D-05  0.70159256D-04  0.13660146D-04  0.34726933D-05  0.15670463D-07
  0.13654327D-04  0.34680810D-05 -0.19606546D-05 -0.54634766D-04 -0.13886161D-04
  0.19136432D-05 -0.15248163D-04 -0.48171055D-08 -0.89790930D-08 -0.15221563D-07
 -0.23047505D-07 -0.28814457D-07 -0.24785600D-07 -0.95058112D-08  0.54662661D-11
  0.72363128D-10  0.26283605D-09  0.77969819D-09  0.89844468D-09 -0.10912949D-08
 -0.25616685D-09  0.23476733D-08  0.27393425D-08 -0.28024571D-03 -0.27407418D-03
 -0.18109240D-03 -0.71226090D-04 -0.69657560D-04 -0.46025695D-04  0.89945658D-07
  0.87964889D-07  0.58122121D-07 -0.65994515D-05 -0.16809425D-05  0.33336757D-08
 -0.66151978D-04 -0.16809954D-04  0.20897372D-07 -0.19032448D-04 -0.48371120D-05
  0.58578146D-08  0.17056152D-04 -0.17092527D-04  0.36375122D-07  0.13411015D-03
 -0.12903053D-03 -0.32784309D-04 -0.85593145D-05  0.85873876D-05 -0.28073137D-07
 -0.67329159D-04  0.98881839D-04  0.25125940D-04  0.43533052D-05 -0.43741376D-05
  0.20832412D-07  0.34262047D-04 -0.72656934D-04 -0.18461332D-04 -0.67870793D-04
 -0.17224753D-04 -0.77341899D-07 -0.68029373D-04 -0.17329274D-04 -0.46477197D-04
  0.27164175D-03  0.69003532D-04  0.46709223D-04 -0.36585206D-03  0.24265255D-04
  0.61590487D-05  0.27697314D-07  0.24315419D-04  0.61922451D-05  0.14744297D-04
 -0.97111184D-04 -0.24669391D-04 -0.14827389D-04  0.11609062D-03
MO    3     MO 0.0        OCC NO =    2.0000210  ORB. ENERGY =    0.000000
 -0.13855091D-01 -0.25828681D-01 -0.43653990D-01 -0.65620089D-01 -0.80602527D-01
 -0.68025689D-01 -0.25579436D-01 -0.37336688D-05 -0.27906861D-04 -0.10429431D-03
 -0.29096489D-03 -0.38981274D-03  0.46029616D-03 -0.82833277D-03 -0.19318402D-02
 -0.79756654D-04  0.21217095D-06  0.19892375D-06  0.14164556D-06  0.51601476D-06
  0.48379664D-06  0.34449203D-06  0.11852300D-02  0.11112285D-02  0.79126086D-03
  0.10284367D-06  0.26001252D-06  0.61697903D-03 -0.67854944D-07 -0.17303048D-06
 -0.38646632D-03  0.82094824D-09  0.20281314D-08  0.47772874D-05 -0.10804020D-03
 -0.10803740D-03  0.21607761D-03 -0.27466005D-08  0.11557028D-06  0.27895578D-06
 -0.26758137D-04 -0.26751609D-04  0.53509747D-04 -0.25005043D-08  0.29359034D-07
  0.76014208D-07  0.11160954D-04  0.11161453D-04 -0.22322407D-04  0.25886122D-09
 -0.11651637D-07 -0.29129106D-07 -0.16786803D-07  0.35461516D-04  0.12113437D-04
  0.37371913D-07 -0.10641768D-03 -0.18122663D-04  0.12988497D-07  0.33134773D-07
 -0.18217648D-04  0.38560740D-07  0.31652771D-08  0.52355744D-04 -0.87412512D-04
  0.83019249D-07 -0.15683748D-03  0.13118790D-03 -0.92515080D-07 -0.22975353D-06
  0.13104964D-03  0.55787196D-07 -0.52834903D-05 -0.95289924D-05 -0.14050494D-04
  0.75468646D-03  0.23758376D-03  0.49935887D-05  0.17552450D-07  0.95004093D-04
  0.29544444D-04  0.24719529D-07  0.19872945D-03 -0.10926405D-04  0.13040315D-07
  0.44381166D-04  0.39394668D-04 -0.75485464D-04  0.52956891D-04  0.22528573D-04
  0.47181723D-07  0.45065151D-07  0.75525584D-04 -0.99262503D-05 -0.12187471D-04
  0.22113721D-04 -0.67190839D-08  0.68346055D-08 -0.34904465D-04 -0.52826247D-05
 -0.95274311D-05 -0.14048192D-04  0.75469783D-03  0.23760485D-03  0.49940492D-05
  0.82267256D-04 -0.47494649D-04  0.29593685D-04  0.17209863D-03 -0.99394376D-04
 -0.10836243D-04  0.38427584D-04 -0.22171743D-04  0.39416872D-04  0.20819632D-04
 -0.43387864D-04  0.22568232D-04 -0.11120197D-03  0.65470372D-04 -0.37705491D-04
 -0.11615781D-04 -0.10480322D-04  0.22096103D-04  0.19342591D-05 -0.30241914D-04
  0.17500148D-04 -0.52820275D-05 -0.95263541D-05 -0.14046604D-04  0.75470735D-03
  0.23760599D-03  0.49941692D-05 -0.82269917D-04 -0.47474583D-04  0.29623979D-04
 -0.17212935D-03 -0.99353054D-04 -0.10774830D-04 -0.38419386D-04 -0.22162512D-04
  0.39430455D-04  0.20824653D-04 -0.43415415D-04  0.22590762D-04  0.11115667D-03
 -0.65479698D-04 -0.37729615D-04 -0.11605347D-04 -0.10479958D-04  0.22085306D-04
 -0.19268267D-05  0.30270216D-04  0.17493197D-04 -0.15412816D+00 -0.28835734D+00
 -0.49821753D+00 -0.80766915D+00 -0.12265231D+01 -0.17047517D+01 -0.20268192D+01
 -0.18055609D+01 -0.89667974D+00 -0.14435785D+00 -0.15230606D-02 -0.72062078D-03
 -0.24038703D-01 -0.83770067D-01 -0.30166958D+00 -0.66499304D+00 -0.93609557D+00
  0.44654810D-01  0.12250436D+01  0.72436062D+00 -0.15472537D-04 -0.18741021D-03
 -0.39082423D-03 -0.11208158D-02 -0.58202406D-04  0.48335015D-02  0.12488840D-01
 -0.10175319D-01  0.46464962D-01 -0.38219306D-03 -0.13677173D-03  0.10550614D-02
  0.13897626D-02  0.15331257D-02  0.12733810D-02  0.67620063D-03  0.17446330D-03
  0.25976696D-02  0.34217386D-02  0.37747133D-02  0.31351949D-02  0.16648755D-02
  0.42954658D-03  0.59935952D+01  0.78949670D+01  0.87093844D+01  0.72338257D+01
  0.38413622D+01  0.99109152D+00 -0.37463327D-07  0.36217134D-06  0.51069939D-06
  0.73043523D-06 -0.36988212D-08 -0.66987800D-06 -0.92221398D-07  0.89153714D-06
  0.12571604D-05  0.17980720D-05 -0.91051834D-08 -0.16490016D-05 -0.21268736D-03
  0.20561245D-02  0.28993502D-02  0.41468378D-02 -0.20999003D-04 -0.38030414D-02
  0.73971382D-05  0.18208592D-04  0.42016974D-01 -0.85382579D-07 -0.20938593D-06
 -0.48404837D-03 -0.17270354D-08 -0.43381624D-08 -0.99653887D-05 -0.10253100D-05
 -0.10261693D-05  0.20514793D-05  0.38587104D-09  0.16699968D-09  0.17826064D-08
 -0.11274148D-03 -0.11274120D-03  0.22548268D-03 -0.77872332D-10  0.11980929D-06
  0.29246377D-06 -0.14098189D-04 -0.14098068D-04  0.28196256D-04  0.11106247D-10
  0.14913526D-07  0.36166548D-07  0.15643771D-08 -0.75549519D-05  0.50288799D-05
 -0.99665066D-08  0.22653057D-04 -0.75539889D-05  0.52733753D-08  0.11798755D-07
 -0.75326510D-05 -0.81102768D-08  0.81947262D-08  0.22212610D-05 -0.34029794D-04
  0.11552820D-07 -0.65761963D-05  0.51047980D-04 -0.36136999D-07 -0.87586647D-07
  0.51041401D-04  0.23900839D-08 -0.86527789D-03 -0.16128795D-02 -0.27341901D-02
 -0.41399335D-02 -0.51758287D-02 -0.44521408D-02 -0.17074918D-02 -0.68198460D-06
 -0.90281992D-05 -0.32792062D-04 -0.97277034D-04 -0.11209213D-03  0.13615259D-03
 -0.95691006D-04 -0.16834656D-03  0.86890141D-05  0.68552742D-06  0.67043084D-06
  0.44298200D-06  0.18286249D-05  0.17883553D-05  0.11816419D-05  0.39812995D-02
  0.38936239D-02  0.25726819D-02  0.15308430D-06  0.41332146D-06  0.89291548D-03
  0.35780830D-08  0.63707913D-08  0.18703057D-04  0.15120891D-08  0.43065259D-08
  0.89243062D-05 -0.37795986D-04 -0.37793006D-04  0.75588993D-04  0.48880748D-09
  0.39359811D-07  0.10524616D-06  0.22655045D-04  0.22653750D-04 -0.45308795D-04
 -0.18496729D-09 -0.23683709D-07 -0.61803774D-07  0.18404884D-04  0.18405081D-04
 -0.36809965D-04 -0.24041736D-10 -0.18583744D-07 -0.53162483D-07 -0.99643613D-08
 -0.25696322D-05  0.44671989D-04 -0.13831773D-07  0.75680659D-05 -0.67014607D-04
  0.43724857D-07  0.14083071D-06 -0.67001359D-04  0.11349152D-09  0.59749970D-08
  0.81630183D-06 -0.25206263D-04  0.71916816D-08 -0.23730326D-05  0.37811538D-04
 -0.25116673D-07 -0.75872870D-07  0.37807251D-04 -0.25253162D-10
MO    4     MO 0.0        OCC NO =    2.0000125  ORB. ENERGY =    0.000000
  0.28051863D-01  0.52294324D-01  0.88384532D-01  0.13285844D+00  0.16319279D+00
  0.13772896D+00  0.51789686D-01 -0.11719313D-05 -0.87594602D-05 -0.32736103D-04
 -0.91328630D-04 -0.12235518D-03  0.14447866D-03  0.27220946D-02 -0.35465611D-02
 -0.36196366D-04  0.63584635D-06  0.59614637D-06  0.42449173D-06  0.15745320D-05
  0.14762238D-05  0.10511593D-05  0.36136364D-02  0.33880138D-02  0.24124676D-02
  0.22030351D-06  0.54499193D-06  0.13046181D-02 -0.75661924D-07 -0.19187338D-06
 -0.41956617D-03  0.70068620D-09  0.15168480D-08  0.39576737D-05 -0.31540921D-03
 -0.31540806D-03  0.63081727D-03 -0.27629070D-08  0.33396208D-06  0.82179818D-06
  0.21704843D-05  0.21870592D-05 -0.43575435D-05 -0.54136887D-08  0.15933101D-08
  0.11323025D-08 -0.18161637D-04 -0.18160094D-04  0.36321731D-04 -0.33099517D-09
  0.19094354D-07  0.48999801D-07  0.86927454D-08 -0.45056769D-04  0.32230025D-04
 -0.60070144D-07  0.13508274D-03 -0.48403258D-04  0.33991908D-07  0.87567507D-07
 -0.48286819D-04 -0.45626455D-07  0.11679044D-07  0.82462860D-04 -0.16261741D-03
  0.13742924D-06 -0.24696355D-03  0.24403526D-03 -0.17246637D-06 -0.42503095D-06
  0.24381698D-03  0.88941918D-07 -0.90462086D-04 -0.16315210D-03 -0.24056767D-03
  0.10090196D-02  0.67705309D-03  0.40087887D-05 -0.16227667D-08 -0.61905057D-04
  0.36389999D-04  0.30801018D-07  0.29770022D-03 -0.46928141D-04  0.27224709D-07
  0.11021581D-03  0.75171037D-04 -0.14233271D-03  0.19519568D-04  0.12281314D-03
  0.67775720D-07  0.11305906D-06  0.14691519D-03 -0.16182178D-04 -0.21284928D-04
  0.37467106D-04 -0.12408130D-07  0.11526565D-07 -0.61155765D-04 -0.90461881D-04
 -0.16315173D-03 -0.24056713D-03  0.10090536D-02  0.67708318D-03  0.40101793D-05
 -0.53607977D-04  0.30978428D-04  0.36366903D-04  0.25781658D-03 -0.14891859D-03
 -0.46787795D-04  0.95430853D-04 -0.55073968D-04  0.75227042D-04 -0.20987515D-04
 -0.10190525D-03  0.12289276D-03 -0.14009912D-03  0.12725911D-03 -0.73208813D-04
 -0.19997951D-04 -0.17437545D-04  0.37435495D-04  0.43776653D-05 -0.52983262D-04
  0.30656924D-04 -0.90462329D-04 -0.16315254D-03 -0.24056832D-03  0.10090707D-02
  0.67709778D-03  0.40101031D-05  0.53626271D-04  0.30963572D-04  0.36349125D-04
 -0.25787543D-03 -0.14885690D-03 -0.46700158D-04 -0.95419938D-04 -0.55050535D-04
  0.75261152D-04 -0.20993585D-04 -0.10193995D-03  0.12293353D-03  0.14003722D-03
 -0.12717570D-03 -0.73226496D-04 -0.19979913D-04 -0.17436886D-04  0.37416799D-04
 -0.43646295D-05  0.53033030D-04  0.30645371D-04  0.92093340D-01  0.17229681D+00
  0.29769068D+00  0.48259156D+00  0.73286160D+00  0.10186087D+01  0.12110477D+01
  0.10788433D+01  0.53577641D+00  0.86255470D-01  0.91004615D-03  0.43117253D-03
  0.14383194D-01  0.50122551D-01  0.18049942D+00  0.39788851D+00  0.56009861D+00
 -0.26718529D-01 -0.73298630D+00 -0.43341021D+00  0.63967692D-05  0.77480497D-04
  0.16157741D-03  0.46337587D-03  0.24062464D-04 -0.19983015D-02 -0.51632273D-02
  0.42067546D-02 -0.28761512D-01  0.14020973D-02 -0.18767143D-03  0.17411341D-02
  0.22934810D-02  0.25300685D-02  0.21014200D-02  0.11159123D-02  0.28791122D-03
  0.42545875D-02  0.56042870D-02  0.61824058D-02  0.51349721D-02  0.27268127D-02
  0.70353193D-03  0.98813120D+01  0.13016000D+02  0.14358685D+02  0.11926012D+02
  0.63330434D+01  0.16339583D+01 -0.59296278D-07  0.57323826D-06  0.80832579D-06
  0.11561197D-05 -0.58544275D-08 -0.10602708D-05 -0.14481548D-06  0.13999829D-05
  0.19741220D-05  0.28235167D-05 -0.14297891D-07 -0.25894311D-05 -0.33617814D-03
  0.32499540D-02  0.45827744D-02  0.65545797D-02 -0.33191469D-04 -0.60111678D-02
  0.12726375D-04  0.31096586D-04  0.72216244D-01 -0.52302334D-07 -0.13025045D-06
 -0.29888318D-03 -0.66179216D-09 -0.18050027D-08 -0.40864948D-05  0.44597322D-03
  0.44597237D-03 -0.89194559D-03  0.21307275D-09 -0.47333913D-06 -0.11534602D-05
 -0.30361576D-03 -0.30361545D-03  0.60723120D-03 -0.10363342D-09  0.32221830D-06
  0.78633443D-06  0.50934770D-05  0.50935776D-05 -0.10187055D-04  0.64197664D-11
 -0.56661789D-08 -0.12741508D-07  0.18258623D-07 -0.14861960D-04 -0.47013161D-04
 -0.44810024D-08  0.44708891D-04  0.70499645D-04 -0.50294867D-07 -0.12301020D-06
  0.70539837D-04 -0.16365543D-07  0.14446847D-07  0.43942744D-05 -0.60839470D-04
  0.21096374D-07 -0.13025401D-04  0.91265298D-04 -0.64436915D-07 -0.15742269D-06
  0.91253111D-04  0.49239041D-08 -0.62180664D-02 -0.11590486D-01 -0.19648457D-01