 title line
GAUSSIAN            211 MOL ORBITALS    339 PRIMITIVES        6 NUCLEI
  C    1    (CENTRE  1)   0.00033070  0.00005480 -0.94053370  CHARGE =  6.0
  H    2    (CENTRE  2)   0.00003590 -1.98906904 -1.17300214  CHARGE =  1.0
  H    3    (CENTRE  3)  -1.72213010  0.99468570 -1.17398291  CHARGE =  1.0
  H    4    (CENTRE  4)   1.72295780  0.99424539 -1.17459707  CHARGE =  1.0
  Cl   5    (CENTRE  5)   0.00104880  0.00181792  3.10806659  CHARGE = 17.0
  F    6    (CENTRE  6)  -0.00035149  0.01715682 -4.90092914  CHARGE =  9.0
CENTRE ASSIGNMENTS    1  1  1  1  1  1  1  1  1  1  1  1  1  1  1  1  1  1  1  1
CENTRE ASSIGNMENTS    1  1  1  1  1  1  1  1  1  1  1  1  1  1  1  1  1  1  1  1
CENTRE ASSIGNMENTS    1  1  1  1  1  1  1  1  1  1  1  1  1  1  1  1  1  1  1  1
CENTRE ASSIGNMENTS    1  1  1  1  1  1  1  1  1  1  1  1  2  2  2  2  2  2  2  2
CENTRE ASSIGNMENTS    2  2  2  2  2  2  2  2  2  2  2  2  2  2  2  2  2  2  2  3
CENTRE ASSIGNMENTS    3  3  3  3  3  3  3  3  3  3  3  3  3  3  3  3  3  3  3  3
CENTRE ASSIGNMENTS    3  3  3  3  3  3  4  4  4  4  4  4  4  4  4  4  4  4  4  4
CENTRE ASSIGNMENTS    4  4  4  4  4  4  4  4  4  4  4  4  4  5  5  5  5  5  5  5
CENTRE ASSIGNMENTS    5  5  5  5  5  5  5  5  5  5  5  5  5  5  5  5  5  5  5  5
CENTRE ASSIGNMENTS    5  5  5  5  5  5  5  5  5  5  5  5  5  5  5  5  5  5  5  5
CENTRE ASSIGNMENTS    5  5  5  5  5  5  5  5  5  5  5  5  5  5  5  5  5  5  5  5
CENTRE ASSIGNMENTS    5  5  5  5  5  5  5  5  5  5  5  5  5  5  5  5  5  5  5  5
CENTRE ASSIGNMENTS    5  5  5  5  5  5  5  5  5  5  5  5  5  5  5  5  5  5  5  5
CENTRE ASSIGNMENTS    5  5  5  5  5  5  5  6  6  6  6  6  6  6  6  6  6  6  6  6
CENTRE ASSIGNMENTS    6  6  6  6  6  6  6  6  6  6  6  6  6  6  6  6  6  6  6  6
CENTRE ASSIGNMENTS    6  6  6  6  6  6  6  6  6  6  6  6  6  6  6  6  6  6  6  6
CENTRE ASSIGNMENTS    6  6  6  6  6  6  6  6  6  6  6  6  6  6  6  6  6  6  6
TYPE ASSIGNMENTS      1  1  1  1  1  1  1  1  1  1  1  1  1  1  1  1  2  2  2  3
TYPE ASSIGNMENTS      3  3  4  4  4  2  3  4  2  3  4  2  3  4  5  6  7  8  9 10
TYPE ASSIGNMENTS      5  6  7  8  9 10  5  6  7  8  9 10 11 12 13 17 14 15 18 19
TYPE ASSIGNMENTS     16 20 11 12 13 17 14 15 18 19 16 20  1  1  1  1  1  1  2  3
TYPE ASSIGNMENTS      4  2  3  4  2  3  4  5  6  7  8  9 10  5  6  7  8  9 10  1
TYPE ASSIGNMENTS      1  1  1  1  1  2  3  4  2  3  4  2  3  4  5  6  7  8  9 10
TYPE ASSIGNMENTS      5  6  7  8  9 10  1  1  1  1  1  1  2  3  4  2  3  4  2  3
TYPE ASSIGNMENTS      4  5  6  7  8  9 10  5  6  7  8  9 10  1  1  1  1  1  1  1
TYPE ASSIGNMENTS      1  1  1  1  1  1  1  1  1  1  1  1  1  1  1  1  1  1  1  1
TYPE ASSIGNMENTS      1  1  1  1  2  2  2  2  2  2  3  3  3  3  3  3  4  4  4  4
TYPE ASSIGNMENTS      4  4  2  2  2  2  2  2  3  3  3  3  3  3  4  4  4  4  4  4
TYPE ASSIGNMENTS      2  3  4  2  3  4  2  3  4  5  6  7  8  9 10  5  6  7  8  9
TYPE ASSIGNMENTS     10  5  6  7  8  9 10 11 12 13 17 14 15 18 19 16 20 11 12 13
TYPE ASSIGNMENTS     17 14 15 18 19 16 20  1  1  1  1  1  1  1  1  1  1  1  1  1
TYPE ASSIGNMENTS      1  1  1  2  2  2  3  3  3  4  4  4  2  3  4  2  3  4  2  3
TYPE ASSIGNMENTS      4  5  6  7  8  9 10  5  6  7  8  9 10  5  6  7  8  9 10 11
TYPE ASSIGNMENTS     12 13 17 14 15 18 19 16 20 11 12 13 17 14 15 18 19 16 20
EXPONENTS  0.8236000D+04 0.1235000D+04 0.2808000D+03 0.7927000D+02 0.2559000D+02
EXPONENTS  0.8997000D+01 0.3319000D+01 0.2808000D+03 0.7927000D+02 0.2559000D+02
EXPONENTS  0.8997000D+01 0.3319000D+01 0.3643000D+00 0.9059000D+00 0.1285000D+00
EXPONENTS  0.4402000D-01 0.1871000D+02 0.4133000D+01 0.1200000D+01 0.1871000D+02
EXPONENTS  0.4133000D+01 0.1200000D+01 0.1871000D+02 0.4133000D+01 0.1200000D+01
EXPONENTS  0.3827000D+00 0.3827000D+00 0.3827000D+00 0.1209000D+00 0.1209000D+00
EXPONENTS  0.1209000D+00 0.3569000D-01 0.3569000D-01 0.3569000D-01 0.1097000D+01
EXPONENTS  0.1097000D+01 0.1097000D+01 0.1097000D+01 0.1097000D+01 0.1097000D+01
EXPONENTS  0.3180000D+00 0.3180000D+00 0.3180000D+00 0.3180000D+00 0.3180000D+00
EXPONENTS  0.3180000D+00 0.1000000D+00 0.1000000D+00 0.1000000D+00 0.1000000D+00
EXPONENTS  0.1000000D+00 0.1000000D+00 0.7610000D+00 0.7610000D+00 0.7610000D+00
EXPONENTS  0.7610000D+00 0.7610000D+00 0.7610000D+00 0.7610000D+00 0.7610000D+00
EXPONENTS  0.7610000D+00 0.7610000D+00 0.2680000D+00 0.2680000D+00 0.2680000D+00
EXPONENTS  0.2680000D+00 0.2680000D+00 0.2680000D+00 0.2680000D+00 0.2680000D+00
EXPONENTS  0.2680000D+00 0.2680000D+00 0.3387000D+02 0.5095000D+01 0.1159000D+01
EXPONENTS  0.3258000D+00 0.1027000D+00 0.2526000D-01 0.1407000D+01 0.1407000D+01
EXPONENTS  0.1407000D+01 0.3880000D+00 0.3880000D+00 0.3880000D+00 0.1020000D+00
EXPONENTS  0.1020000D+00 0.1020000D+00 0.1057000D+01 0.1057000D+01 0.1057000D+01
EXPONENTS  0.1057000D+01 0.1057000D+01 0.1057000D+01 0.2470000D+00 0.2470000D+00
EXPONENTS  0.2470000D+00 0.2470000D+00 0.2470000D+00 0.2470000D+00 0.3387000D+02
EXPONENTS  0.5095000D+01 0.1159000D+01 0.3258000D+00 0.1027000D+00 0.2526000D-01
EXPONENTS  0.1407000D+01 0.1407000D+01 0.1407000D+01 0.3880000D+00 0.3880000D+00
EXPONENTS  0.3880000D+00 0.1020000D+00 0.1020000D+00 0.1020000D+00 0.1057000D+01
EXPONENTS  0.1057000D+01 0.1057000D+01 0.1057000D+01 0.1057000D+01 0.1057000D+01
EXPONENTS  0.2470000D+00 0.2470000D+00 0.2470000D+00 0.2470000D+00 0.2470000D+00
EXPONENTS  0.2470000D+00 0.3387000D+02 0.5095000D+01 0.1159000D+01 0.3258000D+00
EXPONENTS  0.1027000D+00 0.2526000D-01 0.1407000D+01 0.1407000D+01 0.1407000D+01
EXPONENTS  0.3880000D+00 0.3880000D+00 0.3880000D+00 0.1020000D+00 0.1020000D+00
EXPONENTS  0.1020000D+00 0.1057000D+01 0.1057000D+01 0.1057000D+01 0.1057000D+01
EXPONENTS  0.1057000D+01 0.1057000D+01 0.2470000D+00 0.2470000D+00 0.2470000D+00
EXPONENTS  0.2470000D+00 0.2470000D+00 0.2470000D+00 0.4561000D+06 0.6833000D+05
EXPONENTS  0.1555000D+05 0.4405000D+04 0.1439000D+04 0.5204000D+03 0.2031000D+03
EXPONENTS  0.8396000D+02 0.3620000D+02 0.1583000D+02 0.6334000D+01 0.4405000D+04
EXPONENTS  0.1439000D+04 0.5204000D+03 0.2031000D+03 0.8396000D+02 0.3620000D+02
EXPONENTS  0.1583000D+02 0.6334000D+01 0.2694000D+01 0.1439000D+04 0.2031000D+03
EXPONENTS  0.8396000D+02 0.3620000D+02 0.1583000D+02 0.6334000D+01 0.2694000D+01
EXPONENTS  0.4313000D+00 0.9768000D+00 0.1625000D+00 0.5910000D-01 0.6633000D+03
EXPONENTS  0.1568000D+03 0.4998000D+02 0.1842000D+02 0.7240000D+01 0.2922000D+01
EXPONENTS  0.6633000D+03 0.1568000D+03 0.4998000D+02 0.1842000D+02 0.7240000D+01
EXPONENTS  0.2922000D+01 0.6633000D+03 0.1568000D+03 0.4998000D+02 0.1842000D+02
EXPONENTS  0.7240000D+01 0.2922000D+01 0.1568000D+03 0.4998000D+02 0.1842000D+02
EXPONENTS  0.7240000D+01 0.2922000D+01 0.3818000D+00 0.1568000D+03 0.4998000D+02
EXPONENTS  0.1842000D+02 0.7240000D+01 0.2922000D+01 0.3818000D+00 0.1568000D+03
EXPONENTS  0.4998000D+02 0.1842000D+02 0.7240000D+01 0.2922000D+01 0.3818000D+00
EXPONENTS  0.1022000D+01 0.1022000D+01 0.1022000D+01 0.1301000D+00 0.1301000D+00
EXPONENTS  0.1301000D+00 0.4190000D-01 0.4190000D-01 0.4190000D-01 0.1046000D+01
EXPONENTS  0.1046000D+01 0.1046000D+01 0.1046000D+01 0.1046000D+01 0.1046000D+01
EXPONENTS  0.3440000D+00 0.3440000D+00 0.3440000D+00 0.3440000D+00 0.3440000D+00
EXPONENTS  0.3440000D+00 0.1350000D+00 0.1350000D+00 0.1350000D+00 0.1350000D+00
EXPONENTS  0.1350000D+00 0.1350000D+00 0.7060000D+00 0.7060000D+00 0.7060000D+00
EXPONENTS  0.7060000D+00 0.7060000D+00 0.7060000D+00 0.7060000D+00 0.7060000D+00
EXPONENTS  0.7060000D+00 0.7060000D+00 0.3120000D+00 0.3120000D+00 0.3120000D+00
EXPONENTS  0.3120000D+00 0.3120000D+00 0.3120000D+00 0.3120000D+00 0.3120000D+00
EXPONENTS  0.3120000D+00 0.3120000D+00 0.1950000D+05 0.2923000D+04 0.6645000D+03
EXPONENTS  0.1875000D+03 0.6062000D+02 0.2142000D+02 0.7950000D+01 0.6645000D+03
EXPONENTS  0.1875000D+03 0.6062000D+02 0.2142000D+02 0.7950000D+01 0.8815000D+00
EXPONENTS  0.2257000D+01 0.3041000D+00 0.9158000D-01 0.4388000D+02 0.9926000D+01
EXPONENTS  0.2930000D+01 0.4388000D+02 0.9926000D+01 0.2930000D+01 0.4388000D+02
EXPONENTS  0.9926000D+01 0.2930000D+01 0.9132000D+00 0.9132000D+00 0.9132000D+00
EXPONENTS  0.2672000D+00 0.2672000D+00 0.2672000D+00 0.7361000D-01 0.7361000D-01
EXPONENTS  0.7361000D-01 0.3107000D+01 0.3107000D+01 0.3107000D+01 0.3107000D+01
EXPONENTS  0.3107000D+01 0.3107000D+01 0.8550000D+00 0.8550000D+00 0.8550000D+00
EXPONENTS  0.8550000D+00 0.8550000D+00 0.8550000D+00 0.2920000D+00 0.2920000D+00
EXPONENTS  0.2920000D+00 0.2920000D+00 0.2920000D+00 0.2920000D+00 0.1917000D+01
EXPONENTS  0.1917000D+01 0.1917000D+01 0.1917000D+01 0.1917000D+01 0.1917000D+01
EXPONENTS  0.1917000D+01 0.1917000D+01 0.1917000D+01 0.1917000D+01 0.7240000D+00
EXPONENTS  0.7240000D+00 0.7240000D+00 0.7240000D+00 0.7240000D+00 0.7240000D+00
EXPONENTS  0.7240000D+00 0.7240000D+00 0.7240000D+00 0.7240000D+00
MO    1     MO 0.0        OCC NO =    2.0000300  ORB. ENERGY =    0.000000
  0.48396870D-08  0.90221515D-08  0.15248665D-07  0.22921588D-07  0.28155065D-07
  0.23761882D-07  0.89350881D-08 -0.45264342D-11 -0.33832292D-10 -0.12643900D-09
 -0.35274512D-09 -0.47258121D-09  0.55803029D-09  0.11494200D-08  0.77875833D-09
  0.66158658D-09  0.11107512D-03  0.10413999D-03  0.74153876D-04 -0.80447740D-07
 -0.75424870D-07 -0.53707001D-07 -0.19743056D-07 -0.18510370D-07 -0.13180486D-07
  0.36227811D-03 -0.26283224D-06 -0.62597920D-07  0.46280431D-03 -0.33640875D-06
 -0.83945471D-07  0.92797160D-05 -0.68511178D-08 -0.16587387D-08 -0.11284874D-06
  0.22913655D-07  0.89935084D-07  0.12767192D-03 -0.51007386D-03  0.34629444D-06
 -0.49278766D-07  0.66752193D-07 -0.17473427D-07  0.38784092D-03  0.98625946D-04
 -0.13869956D-06 -0.25781372D-07  0.14009397D-07  0.11771975D-07  0.82222974D-04
 -0.65819671D-04  0.33739048D-07  0.92500812D-04 -0.67573937D-07  0.65729417D-07
  0.92375548D-04 -0.58562881D-07 -0.18824965D-06 -0.36987798D-03  0.26128469D-06
 -0.89386067D-08  0.50380066D-04 -0.26538119D-04  0.19739878D-07 -0.19168249D-07
 -0.26989812D-04  0.37276916D-07  0.34987565D-07  0.10660417D-03 -0.96496550D-07
  0.22517183D-07  0.10105469D-03  0.24124310D-07  0.43509187D-07  0.64154271D-07
 -0.22052761D-06 -0.67166094D-06  0.70011974D-08  0.43968706D-05 -0.44054447D-07
 -0.15562761D-07  0.84129034D-04 -0.18393463D-06 -0.17567767D-06  0.75604713D-04
 -0.11228008D-06 -0.26152660D-07  0.62326110D-07 -0.30021370D-07 -0.32304739D-07
  0.31070274D-04 -0.47315756D-04 -0.17580591D-06  0.40542356D-07  0.36617448D-08
 -0.44204100D-07  0.28946856D-04  0.61353095D-04 -0.31710446D-07 -0.34645100D-04
 -0.62483865D-04 -0.92132422D-04  0.31727796D-03  0.97404642D-03 -0.10609828D-04
  0.54717674D-04 -0.28906822D-04  0.20594343D-04  0.23631106D-03 -0.88857665D-04
  0.23558329D-03  0.14832941D-03 -0.41992655D-04  0.19614061D-04  0.10132560D-04
 -0.68792418D-04  0.58659858D-04 -0.10636227D-03  0.21231539D-03 -0.14956670D-03
 -0.10919236D-04 -0.37107175D-04  0.48026410D-04 -0.16406680D-04  0.38662276D-04
  0.12917127D-04  0.34621073D-04  0.62440531D-04  0.92068526D-04 -0.31705818D-03
 -0.97337595D-03  0.10602737D-04  0.54682888D-04  0.28867180D-04 -0.20598826D-04
  0.23614298D-03  0.88636221D-04 -0.23550761D-03  0.14828278D-03  0.41836001D-04
 -0.19653897D-04 -0.10094527D-04  0.68789327D-04 -0.58694801D-04 -0.10617301D-03
  0.21214312D-03  0.14950330D-03  0.10903970D-04  0.37103078D-04 -0.48007048D-04
 -0.16366559D-04  0.38633289D-04 -0.12985610D-04 -0.54532531D-08 -0.10202455D-07
 -0.17627579D-07 -0.28576376D-07 -0.43395970D-07 -0.60316315D-07 -0.71711477D-07
 -0.63883075D-07 -0.31725686D-07 -0.51075670D-08 -0.53887849D-10 -0.25190613D-10
 -0.84031668D-09 -0.29283354D-08 -0.10545410D-07 -0.23246044D-07 -0.32722927D-07
  0.15609903D-08  0.42823633D-07  0.25321346D-07 -0.10788564D-11 -0.13067586D-10
 -0.27251072D-10 -0.78151330D-10 -0.40582898D-11  0.33702644D-09  0.87081159D-09
 -0.70949629D-09  0.13252254D-08  0.10161394D-08 -0.13790655D-09  0.11610739D+02
  0.15294059D+02  0.16871741D+02  0.14013302D+02  0.74414523D+01  0.19199336D+01
 -0.84088639D-02 -0.11076441D-01 -0.12219048D-01 -0.10148876D-01 -0.53893349D-02
 -0.13904766D-02 -0.20531569D-02 -0.27044880D-02 -0.29834736D-02 -0.24780084D-02
 -0.13158912D-02 -0.33950682D-03 -0.45950629D-03  0.44422111D-02  0.62639814D-02
  0.89591504D-02 -0.45367877D-04 -0.82163859D-02  0.33284025D-06 -0.32176854D-05
 -0.45372722D-05 -0.64894996D-05  0.32861912D-07  0.59514832D-05  0.81200228D-07
 -0.78499155D-06 -0.11069200D-05 -0.15831885D-05  0.80170435D-08  0.14519331D-05
  0.76652149D-01 -0.55515080D-04 -0.13553430D-04 -0.64372274D-03  0.46588481D-06
  0.11342565D-06 -0.57962735D-04  0.41974026D-07  0.10275599D-07 -0.17812903D-06
  0.49446105D-08  0.17318442D-06  0.24013025D-04 -0.98051681D-03  0.70722619D-06
  0.64451220D-07 -0.18262657D-08 -0.62624954D-07 -0.85287117D-05  0.35591240D-03
 -0.25722323D-06 -0.11228552D-07  0.37606380D-09  0.10852488D-07  0.25514039D-05
 -0.61005226D-04  0.43889465D-07  0.23444408D-05 -0.17684997D-08  0.16397661D-08
  0.23864723D-05  0.10840330D-07 -0.16344333D-07 -0.94197947D-05 -0.55348306D-08
  0.11425034D-07  0.70236688D-04  0.14649263D-04 -0.10660142D-07  0.10320535D-07
  0.14642452D-04 -0.13265399D-07 -0.26129247D-07 -0.58590240D-04  0.45245823D-07
 -0.48323577D-08 -0.14432165D-04  0.10284194D-08  0.19169755D-08  0.32497005D-08
  0.49204860D-08  0.61516913D-08  0.52915576D-08  0.20294262D-08 -0.41165548D-11
 -0.54495477D-10 -0.19793749D-09 -0.58717783D-09 -0.67660385D-09  0.82183615D-09
 -0.63245963D-11 -0.13549311D-08 -0.11137302D-08 -0.29120418D-03 -0.28479133D-03
 -0.18817367D-03  0.21095431D-06  0.20630871D-06  0.13631689D-06  0.52453867D-07
  0.51298736D-07  0.33895244D-07 -0.97664711D-05  0.44695153D-08  0.27576442D-08
 -0.65855086D-04  0.49794852D-07  0.10161932D-07 -0.19534106D-04  0.14212308D-07
  0.33243231D-08 -0.47199090D-07  0.23476577D-07  0.23722512D-07  0.14219482D-03
 -0.13161721D-03  0.71543884D-07  0.29646900D-07 -0.11634344D-07 -0.18012556D-07
 -0.71551009D-04  0.10126409D-03 -0.61834505D-07 -0.18440164D-07  0.59038516D-08
  0.12536312D-07  0.36450784D-04 -0.73149349D-04  0.48578991D-07 -0.71103017D-04
  0.53190736D-07 -0.48898292D-07 -0.67580994D-04 -0.12995119D-07  0.19533622D-06
  0.28089005D-03 -0.14657709D-06 -0.48641348D-07 -0.38215125D-03  0.25209508D-04
 -0.18917674D-07  0.17282973D-07  0.24126566D-04  0.21567293D-08 -0.66798437D-07
 -0.99755090D-04  0.54596293D-07  0.14949517D-07  0.12151279D-03
MO    2     MO 0.0        OCC NO =    2.0000300  ORB. ENERGY =    0.000000
 -0.35283560D-05 -0.65775664D-05 -0.11116983D-04 -0.16710899D-04 -0.20526347D-04
 -0.17323513D-04 -0.65140931D-05  0.58490361D-08  0.43717921D-07  0.16338385D-06
  0.45581551D-06  0.61066711D-06 -0.72108399D-06 -0.11667627D-05  0.50299511D-05
  0.20910638D-05  0.79902178D-07  0.74913371D-07  0.53342783D-07  0.11104205D-03
  0.10410898D-03  0.74131796D-04 -0.28873136D-05 -0.27070400D-05 -0.19275737D-05
  0.26339295D-06  0.36394849D-03  0.13561201D-05  0.33478639D-06  0.46446856D-03
 -0.20929689D-05  0.66697904D-08  0.93959292D-05 -0.26397259D-07  0.65291370D-04
 -0.64508280D-04 -0.78308984D-06 -0.47487316D-07 -0.39287234D-06 -0.50944758D-03
  0.19468240D-03 -0.19394642D-03 -0.73597698D-06  0.14956614D-06  0.25090312D-08
  0.97096299D-04  0.40865104D-04 -0.41318651D-04  0.45354653D-06  0.16380810D-07
 -0.61845088D-07 -0.66500610D-04  0.71112430D-07  0.92838258D-04  0.71837572D-06
  0.61790847D-07  0.93584734D-04  0.23584065D-04 -0.27512814D-06 -0.37209951D-03
 -0.25739193D-04 -0.14632882D-06 -0.10064880D-07 -0.27217337D-04 -0.44475532D-06
 -0.28234924D-07 -0.26198189D-04  0.50959730D-04  0.58429565D-07  0.10785020D-03
 -0.49625465D-04  0.81907564D-07 -0.40109892D-04 -0.72339842D-04 -0.10666506D-03
  0.36539294D-03  0.11259095D-02 -0.12073479D-04  0.16088258D-07  0.71791358D-04
  0.24671737D-04  0.13448781D-06  0.28860515D-03  0.26902101D-03  0.71172388D-07
  0.17257420D-03  0.21706291D-04 -0.11047161D-03  0.42872417D-04  0.67599191D-04
  0.11045249D-06  0.72444609D-07  0.29697794D-03 -0.43436196D-04 -0.11899325D-04
  0.55335521D-04  0.30813437D-07  0.75309845D-07  0.30834775D-04  0.20169911D-04
  0.36377265D-04  0.53638255D-04 -0.18753646D-03 -0.56251574D-03  0.58976099D-05
 -0.29573123D-04  0.21647269D-04 -0.12063016D-04 -0.89822845D-04  0.13522038D-03
 -0.13567031D-03 -0.41916359D-04  0.99620799D-04 -0.11128966D-04  0.90062301D-05
  0.25102601D-04 -0.34108831D-04  0.80166711D-04 -0.14846563D-03  0.39115878D-04
  0.20983236D-04  0.70464406D-05 -0.28029677D-04  0.26134021D-04  0.12778039D-04
  0.53926869D-04  0.20211095D-04  0.36451542D-04  0.53747777D-04 -0.18791491D-03
 -0.56367985D-03  0.59104855D-05  0.29639222D-04  0.21674121D-04 -0.12097754D-04
  0.90090567D-04  0.13530266D-03 -0.13598480D-03  0.42115034D-04  0.99660499D-04
 -0.11167867D-04  0.90266568D-05  0.25204802D-04 -0.34231459D-04 -0.80269696D-04
  0.14869932D-03  0.39286948D-04  0.20985053D-04  0.70973334D-05 -0.28082386D-04
 -0.26141697D-04 -0.12753121D-04  0.53924205D-04 -0.43720216D-04 -0.81795859D-04
 -0.14132510D-03 -0.22910459D-03 -0.34791731D-03 -0.48357233D-03 -0.57493044D-03
 -0.51216802D-03 -0.25435347D-03 -0.40948756D-04 -0.43203357D-06 -0.20537605D-06
 -0.68510013D-05 -0.23874368D-04 -0.85975465D-04 -0.18952221D-03 -0.26678611D-03
  0.12726567D-04  0.34913595D-03  0.20644190D-03 -0.37730872D-08 -0.45701300D-07
 -0.95305244D-07 -0.27331885D-06 -0.14193067D-07  0.11786834D-05  0.30454916D-05
 -0.24813232D-05  0.12467403D-04 -0.13237528D-05 -0.34728854D-06  0.84068539D-02
  0.11073793D-01  0.12216127D-01  0.10146450D-01  0.53880466D-02  0.13901442D-02
  0.11610729D+02  0.15294047D+02  0.16871728D+02  0.14013291D+02  0.74414463D+01
  0.19199320D+01 -0.11350440D-01 -0.14951185D-01 -0.16493497D-01 -0.13699141D-01
 -0.72746239D-02 -0.18768910D-02 -0.33269080D-06  0.32162406D-05  0.45352350D-05
  0.64865858D-05 -0.32847157D-07 -0.59488110D-05 -0.45954310D-03  0.44425671D-02
  0.62644833D-02  0.89598683D-02 -0.45371512D-04 -0.82170443D-02  0.41665010D-06
 -0.40279051D-05 -0.56797666D-05 -0.81235687D-05  0.41136608D-07  0.74500787D-05
  0.55500466D-04  0.76653445D-01 -0.74840183D-04 -0.46617781D-06 -0.64338725D-03
  0.57981435D-06 -0.41961498D-07 -0.57955513D-04  0.91145161D-07  0.12223820D-04
 -0.13375711D-04  0.11518903D-05 -0.16627156D-06 -0.71344171D-06 -0.98156156D-03
 -0.43842204D-05  0.44892916D-05 -0.10507114D-06  0.60468506D-07  0.25891799D-06
  0.35675594D-03  0.11952976D-05 -0.12954349D-05  0.10013732D-06 -0.99021771D-08
 -0.44508329D-07 -0.61139946D-04  0.78856535D-08  0.23711422D-05 -0.79273986D-07
 -0.44983767D-08  0.22992987D-05  0.34957956D-04 -0.19158584D-07 -0.94127252D-05
 -0.34720134D-04  0.20146885D-07  0.93304255D-08  0.14699975D-04  0.68144805D-08
  0.11850410D-07  0.14730542D-04 -0.70700471D-05 -0.39841687D-07 -0.58830468D-04
  0.70496037D-05 -0.31185181D-07  0.55383072D-05  0.10323414D-04  0.17500487D-04
  0.26498104D-04  0.33128466D-04  0.28496421D-04  0.10928991D-04 -0.10086997D-07
 -0.13353295D-06 -0.48501596D-06 -0.14387907D-05 -0.16579157D-05  0.20137856D-05
  0.21131603D-06 -0.34105557D-05 -0.38254829D-05 -0.21182167D-06 -0.20715697D-06
 -0.13687737D-06 -0.29094650D-03 -0.28453932D-03 -0.18800716D-03 -0.66878823D-05
 -0.65406028D-05 -0.43216528D-05 -0.78095482D-08 -0.74137121D-05  0.92820584D-06
 -0.47646501D-07 -0.67666323D-04 -0.41943768D-05 -0.14205526D-07 -0.19575049D-04
 -0.53288639D-06  0.70062999D-04 -0.71145361D-04  0.10823614D-05  0.26138849D-07
 -0.11923457D-06 -0.13286198D-03 -0.35196111D-04  0.35410341D-04 -0.21423023D-06
 -0.72092447D-08  0.85303688D-07  0.10229935D-03  0.18202728D-04 -0.17297698D-04
 -0.90502976D-06 -0.30951027D-10 -0.59005703D-07 -0.74970476D-04 -0.82755877D-07
 -0.72768672D-04  0.16562620D-05 -0.18983501D-07 -0.72457599D-04 -0.18804737D-03
  0.26725113D-06  0.29076361D-03  0.18307858D-03 -0.10601914D-07  0.28204034D-07
  0.25836507D-04 -0.77388261D-06  0.79643189D-08  0.25761054D-04  0.59962981D-04
 -0.92576420D-07 -0.10327058D-03 -0.57641333D-04 -0.11202240D-08
MO    3     MO 0.0        OCC NO =    2.0000210  ORB. ENERGY =    0.000000
 -0.14454609D-01 -0.26946302D-01 -0.45542922D-01 -0.68459506D-01 -0.84090242D-01
 -0.70969197D-01 -0.26686272D-01 -0.38142867D-05 -0.28509430D-04 -0.10654625D-03
 -0.29724744D-03 -0.39822962D-03  0.47023493D-03 -0.87196540D-03 -0.19345703D-02
 -0.82091280D-04  0.20839110D-06  0.19537990D-06  0.13912213D-06  0.57152607D-06
  0.53584202D-06  0.38155144D-06  0.11672584D-02  0.10943790D-02  0.77926302D-03
  0.10487830D-06  0.35375663D-07  0.60719498D-03 -0.66721238D-07  0.68172568D-06
 -0.37922051D-03  0.82259225D-09 -0.37560299D-08  0.46685029D-05 -0.10559118D-03
 -0.10552790D-03  0.21111908D-03 -0.10466748D-08  0.11323023D-06  0.76815691D-06
 -0.23886231D-04 -0.24275230D-04  0.48161461D-04 -0.99764031D-09  0.25214303D-07
 -0.12203659D-05  0.11478346D-04  0.11374421D-04 -0.22852768D-04  0.10467612D-09
 -0.12124281D-07 -0.11940122D-07 -0.15904840D-07  0.36351041D-04  0.77210562D-05
  0.39567947D-07 -0.10874929D-03 -0.11772852D-04  0.81465728D-08 -0.30383464D-06
 -0.11390316D-04  0.38697552D-07  0.28757579D-08  0.51744101D-04 -0.85670657D-04
  0.82075884D-07 -0.15555806D-03  0.12838448D-03 -0.90703158D-07  0.32576136D-06
  0.12862749D-03  0.55355687D-07 -0.47978580D-05 -0.86531344D-05 -0.12759042D-04
  0.75320174D-03  0.23777138D-03  0.50831800D-05  0.17386295D-07  0.96034703D-04
  0.28332567D-04  0.24714534D-07  0.19972678D-03 -0.50175563D-05  0.12671864D-07
  0.44350816D-04  0.38710722D-04 -0.74078130D-04  0.54335916D-04  0.19742214D-04
  0.46264090D-07  0.43240863D-07  0.75461316D-04 -0.97008878D-05 -0.11992824D-04
  0.21693712D-04 -0.67164130D-08  0.66471490D-08 -0.34771783D-04 -0.48438727D-05
 -0.87361239D-05 -0.12881410D-04  0.75260103D-03  0.23507590D-03  0.50564851D-05
  0.82915662D-04 -0.47929549D-04  0.28526890D-04  0.17259726D-03 -0.99375631D-04
 -0.37755517D-05  0.38054417D-04 -0.21812886D-04  0.38770296D-04  0.22170134D-04
 -0.41860340D-04  0.19690205D-04 -0.11084295D-03  0.66249723D-04 -0.37873128D-04
 -0.11411747D-04 -0.10272775D-04  0.21684522D-04  0.21395932D-05 -0.29894880D-04
  0.17197621D-04 -0.48436870D-05 -0.87357890D-05 -0.12880916D-04  0.75260478D-03
  0.23507523D-03  0.50564855D-05 -0.82917968D-04 -0.47908735D-04  0.28556793D-04
 -0.17262450D-03 -0.99332259D-04 -0.37130278D-05 -0.38046066D-04 -0.21803300D-04
  0.38783922D-04  0.22174917D-04 -0.41888204D-04  0.19713287D-04  0.11079682D-03
 -0.66262042D-04 -0.37896515D-04 -0.11401630D-04 -0.10272267D-04  0.21673897D-04
 -0.21326982D-05  0.29922539D-04  0.17190728D-04 -0.15460214D+00 -0.28924411D+00
 -0.49974967D+00 -0.81015293D+00 -0.12302950D+01 -0.17099942D+01 -0.20330521D+01
 -0.18111135D+01 -0.89943725D+00 -0.14480179D+00 -0.15277444D-02 -0.72283993D-03
 -0.24112730D-01 -0.84028036D-01 -0.30259856D+00 -0.66704088D+00 -0.93897827D+00
  0.44792324D-01  0.12288161D+01  0.72659128D+00 -0.15531696D-04 -0.18812677D-03
 -0.39231855D-03 -0.11251013D-02 -0.58424943D-04  0.48519824D-02  0.12536591D-01
 -0.10214224D-01  0.46599904D-01 -0.38428972D-03 -0.13194721D-03  0.10528053D-02
  0.13867908D-02  0.15298474D-02  0.12706580D-02  0.67475467D-03  0.17409023D-03
  0.33928456D-02  0.44691714D-02  0.49301956D-02  0.40949135D-02  0.21745127D-02
  0.56103564D-03  0.59414395D+01  0.78262657D+01  0.86335961D+01  0.71708776D+01
  0.38079350D+01  0.98246713D+00 -0.37356279D-07  0.36113647D-06  0.50924012D-06
  0.72834809D-06 -0.36882522D-08 -0.66796389D-06 -0.11068011D-06  0.10699840D-05
  0.15087892D-05  0.21579677D-05 -0.10927645D-07 -0.19790599D-05 -0.21079843D-03
  0.20378636D-02  0.28736004D-02  0.41100087D-02 -0.20812506D-04 -0.37692656D-02
  0.73816216D-05  0.24129277D-04  0.41654308D-01 -0.85897709D-07 -0.37456595D-06
 -0.48396324D-03 -0.17314481D-08 -0.64909074D-09 -0.98427199D-05 -0.72001764D-05
 -0.70581597D-05  0.14258336D-04  0.13609713D-09  0.73291844D-08  0.15137653D-06
 -0.11140165D-03 -0.11144521D-03  0.22284686D-03  0.53362825D-10  0.11886895D-06
  0.52228470D-06 -0.14324645D-04 -0.14326190D-04  0.28650835D-04  0.40261142D-10
  0.15318673D-07  0.15576405D-06  0.12693381D-08 -0.72915419D-05  0.54457490D-05
 -0.97676859D-08  0.21548934D-04 -0.80990051D-05  0.59596717D-08  0.32569190D-06
 -0.82382419D-05 -0.74142085D-08  0.82349010D-08  0.21300762D-05 -0.33741254D-04
  0.11382520D-07 -0.60750314D-05  0.50570635D-04 -0.36087223D-07 -0.31519723D-06
  0.50653126D-04  0.20131442D-08 -0.87948188D-03 -0.16393557D-02 -0.27790732D-02
 -0.42078926D-02 -0.52607926D-02 -0.45252250D-02 -0.17355212D-02 -0.68421737D-06
 -0.90577569D-05 -0.32899421D-04 -0.97595513D-04 -0.11245912D-03  0.13659835D-03
 -0.95965479D-04 -0.15939058D-03  0.12434286D-04  0.66796020D-06  0.65325049D-06
  0.43163022D-06 -0.20321369D-04 -0.19873855D-04 -0.13131496D-04  0.39018363D-02
  0.38159107D-02  0.25213335D-02  0.14971821D-06 -0.53411327D-05  0.87918371D-03
  0.41318597D-08  0.35197838D-06  0.21396544D-04  0.15472184D-08 -0.10146615D-06
  0.93384885D-05 -0.35264535D-04 -0.36015391D-04  0.71279926D-04  0.31799743D-09
  0.36535292D-07 -0.11102141D-05  0.20927211D-04  0.21259653D-04 -0.42186864D-04
 -0.13491154D-09 -0.21861874D-07  0.42303840D-06  0.18151409D-04  0.18080128D-04
 -0.36231537D-04  0.20419765D-09 -0.18064697D-07  0.10899532D-05 -0.97212674D-08
 -0.16963628D-05  0.46406174D-04 -0.14493322D-07  0.10179078D-04 -0.68950993D-04
  0.43657124D-07 -0.50899893D-05 -0.70267527D-04 -0.36261862D-08  0.57788964D-08
  0.41043479D-06 -0.25387910D-04  0.72850357D-08 -0.33324350D-05  0.37868245D-04
 -0.24621725D-07  0.21011306D-05  0.38295485D-04  0.13521200D-08
MO    4     MO 0.0        OCC NO =    2.0000123  ORB. ENERGY =    0.000000
  0.26824994D-01  0.50007194D-01  0.84518970D-01  0.12704778D+00  0.15605544D+00
  0.13170528D+00  0.49524626D-01 -0.14574003D-05 -0.10893165D-04 -0.40710243D-04
 -0.11357524D-03 -0.15215951D-03  0.17967201D-03  0.26462125D-02 -0.36110753D-02
 -0.42306814D-04  0.64784156D-06  0.60739264D-06  0.43249974D-06 -0.18836032D-05
 -0.17659978D-05 -0.12574956D-05  0.36697315D-02  0.34406065D-02  0.24499168D-02
  0.22833268D-06  0.19241237D-05  0.13052326D-02 -0.74181619D-07  0.73159234D-06
 -0.41705154D-03  0.68428895D-09  0.21345740D-07  0.37028485D-05 -0.31916911D-03
 -0.31920707D-03  0.63837618D-03 -0.12864031D-08  0.33946132D-06  0.63940728D-06
  0.10289446D-04  0.89011649D-05 -0.19190611D-04 -0.14872206D-08 -0.94783517D-08
 -0.14453081D-05 -0.17830880D-04 -0.17882503D-04  0.35713383D-04 -0.11781511D-09
  0.18573798D-07 -0.39291556D-06  0.10274425D-07 -0.41971766D-04  0.22566286D-04
 -0.54126747D-07  0.12679123D-03 -0.33959787D-04  0.23303474D-07 -0.87593658D-06
 -0.33739072D-04 -0.44315663D-07  0.12161950D-07  0.81958004D-04 -0.16373356D-03
  0.13745208D-06 -0.24596476D-03  0.24538764D-03 -0.17393793D-06  0.90750518D-07
  0.24581304D-03  0.87752359D-07 -0.90238698D-04 -0.16274921D-03 -0.23997361D-03
  0.10259328D-02  0.68531024D-03  0.43875852D-05 -0.11658592D-08 -0.57208516D-04
  0.33683849D-04  0.31285768D-07  0.30607178D-03 -0.43972384D-04  0.27557283D-07
  0.11122979D-03  0.75851329D-04 -0.14294507D-03  0.24411069D-04  0.11853400D-03
  0.68003362D-07  0.11080427D-06  0.14213969D-03 -0.14766392D-04 -0.20892352D-04
  0.35658744D-04 -0.12716886D-07  0.10036988D-07 -0.62686238D-04 -0.90357808D-04
 -0.16296403D-03 -0.24029037D-03  0.10217020D-02  0.68383081D-03  0.42108783D-05
 -0.50306520D-04  0.28950309D-04  0.33457303D-04  0.26345481D-03 -0.15167535D-03
 -0.42690989D-04  0.96108619D-04 -0.55407019D-04  0.75849052D-04 -0.17433557D-04
 -0.10057109D-03  0.11800465D-03 -0.14396167D-03  0.12378801D-03 -0.71286046D-04
 -0.19468209D-04 -0.16430938D-04  0.35899147D-04  0.54957117D-05 -0.54471011D-04
  0.31479560D-04 -0.90358040D-04 -0.16296445D-03 -0.24029098D-03  0.10217061D-02
  0.68383578D-03  0.42106715D-05  0.50325392D-04  0.28937128D-04  0.33439365D-04
 -0.26350938D-03 -0.15160891D-03 -0.42597965D-04 -0.96096395D-04 -0.55382832D-04
  0.75883360D-04 -0.17439225D-04 -0.10060677D-03  0.11804599D-03  0.14389551D-03
 -0.12371031D-03 -0.71305698D-04 -0.19450267D-04 -0.16429771D-04  0.35880038D-04
 -0.54826691D-05  0.54519035D-04  0.31467916D-04  0.91314433D-01  0.17083956D+00
  0.29517287D+00  0.47850990D+00  0.72666320D+00  0.10099935D+01  0.12008049D+01
  0.10697187D+01  0.53124492D+00  0.85525938D-01  0.90234917D-03  0.42753289D-03
  0.14261781D-01  0.49699453D-01  0.17897578D+00  0.39452983D+00  0.55537067D+00
 -0.26492991D-01 -0.72679896D+00 -0.42975168D+00  0.62779744D-05  0.76041600D-04
  0.15857674D-03  0.45477049D-03  0.23615598D-04 -0.19611909D-02 -0.50673406D-02
  0.41286306D-02 -0.28545303D-01  0.14183055D-02 -0.18170668D-03  0.17614471D-02
  0.23202379D-02  0.25595856D-02  0.21259363D-02  0.11289312D-02  0.29127014D-03
  0.11130479D-01  0.14661444D-01  0.16173868D-01  0.13433664D-01  0.71336481D-02
  0.18405185D-02  0.99146199D+01  0.13059874D+02  0.14407085D+02  0.11966212D+02
  0.63543907D+01  0.16394660D+01 -0.59862073D-07  0.57870801D-06  0.81603870D-06
  0.11671512D-05 -0.59102894D-08 -0.10703877D-05 -0.35626316D-06  0.34441230D-05
  0.48565730D-05  0.69461841D-05 -0.35174498D-07 -0.63703059D-05 -0.33686719D-03
  0.32566152D-02  0.45921674D-02  0.65680142D-02 -0.33259500D-04 -0.60234885D-02
  0.12890885D-04  0.80779113D-04  0.72557228D-01 -0.54027137D-07 -0.35710073D-07
 -0.30643780D-03 -0.67110089D-09  0.71040228D-08 -0.39587693D-05  0.45436189D-03
  0.45453010D-03 -0.90889200D-03 -0.31755361D-09 -0.48497258D-06 -0.26901611D-05
 -0.30963973D-03 -0.30969815D-03  0.61933788D-03  0.18173722D-09  0.33030042D-06
  0.15803629D-05  0.43237219D-05  0.43366692D-05 -0.86603911D-05 -0.69030386D-11
 -0.48045073D-08 -0.10435788D-06  0.18050124D-07 -0.14553203D-04 -0.46949651D-04
 -0.41186359D-08  0.43546906D-04  0.70378520D-04 -0.50031735D-07  0.11270453D-06
  0.70470434D-04 -0.15503048D-07  0.15088438D-07  0.42667527D-05 -0.62582887D-04
  0.21462894D-07 -0.12423913D-04  0.93870853D-04 -0.66728208D-07 -0.37634471D-06
  0.93877807D-04  0.43748492D-08 -0.63570898D-02 -0.11849626D-01 -0.20087756D-01