 title line
GAUSSIAN            211 MOL ORBITALS    339 PRIMITIVES        6 NUCLEI
  C    1    (CENTRE  1)   0.00033070  0.00005480 -0.94053370  CHARGE =  6.0
  H    2    (CENTRE  2)   0.00003590 -1.98906904 -1.15410488  CHARGE =  1.0
  H    3    (CENTRE  3)  -1.72213010  0.99468570 -1.17398291  CHARGE =  1.0
  H    4    (CENTRE  4)   1.72295780  0.99424539 -1.17459707  CHARGE =  1.0
  Cl   5    (CENTRE  5)   0.00104880  0.00181792  3.10806659  CHARGE = 17.0
  F    6    (CENTRE  6)  -0.00035149 -0.00174044 -4.90092914  CHARGE =  9.0
CENTRE ASSIGNMENTS    1  1  1  1  1  1  1  1  1  1  1  1  1  1  1  1  1  1  1  1
CENTRE ASSIGNMENTS    1  1  1  1  1  1  1  1  1  1  1  1  1  1  1  1  1  1  1  1
CENTRE ASSIGNMENTS    1  1  1  1  1  1  1  1  1  1  1  1  1  1  1  1  1  1  1  1
CENTRE ASSIGNMENTS    1  1  1  1  1  1  1  1  1  1  1  1  2  2  2  2  2  2  2  2
CENTRE ASSIGNMENTS    2  2  2  2  2  2  2  2  2  2  2  2  2  2  2  2  2  2  2  3
CENTRE ASSIGNMENTS    3  3  3  3  3  3  3  3  3  3  3  3  3  3  3  3  3  3  3  3
CENTRE ASSIGNMENTS    3  3  3  3  3  3  4  4  4  4  4  4  4  4  4  4  4  4  4  4
CENTRE ASSIGNMENTS    4  4  4  4  4  4  4  4  4  4  4  4  4  5  5  5  5  5  5  5
CENTRE ASSIGNMENTS    5  5  5  5  5  5  5  5  5  5  5  5  5  5  5  5  5  5  5  5
CENTRE ASSIGNMENTS    5  5  5  5  5  5  5  5  5  5  5  5  5  5  5  5  5  5  5  5
CENTRE ASSIGNMENTS    5  5  5  5  5  5  5  5  5  5  5  5  5  5  5  5  5  5  5  5
CENTRE ASSIGNMENTS    5  5  5  5  5  5  5  5  5  5  5  5  5  5  5  5  5  5  5  5
CENTRE ASSIGNMENTS    5  5  5  5  5  5  5  5  5  5  5  5  5  5  5  5  5  5  5  5
CENTRE ASSIGNMENTS    5  5  5  5  5  5  5  6  6  6  6  6  6  6  6  6  6  6  6  6
CENTRE ASSIGNMENTS    6  6  6  6  6  6  6  6  6  6  6  6  6  6  6  6  6  6  6  6
CENTRE ASSIGNMENTS    6  6  6  6  6  6  6  6  6  6  6  6  6  6  6  6  6  6  6  6
CENTRE ASSIGNMENTS    6  6  6  6  6  6  6  6  6  6  6  6  6  6  6  6  6  6  6
TYPE ASSIGNMENTS      1  1  1  1  1  1  1  1  1  1  1  1  1  1  1  1  2  2  2  3
TYPE ASSIGNMENTS      3  3  4  4  4  2  3  4  2  3  4  2  3  4  5  6  7  8  9 10
TYPE ASSIGNMENTS      5  6  7  8  9 10  5  6  7  8  9 10 11 12 13 17 14 15 18 19
TYPE ASSIGNMENTS     16 20 11 12 13 17 14 15 18 19 16 20  1  1  1  1  1  1  2  3
TYPE ASSIGNMENTS      4  2  3  4  2  3  4  5  6  7  8  9 10  5  6  7  8  9 10  1
TYPE ASSIGNMENTS      1  1  1  1  1  2  3  4  2  3  4  2  3  4  5  6  7  8  9 10
TYPE ASSIGNMENTS      5  6  7  8  9 10  1  1  1  1  1  1  2  3  4  2  3  4  2  3
TYPE ASSIGNMENTS      4  5  6  7  8  9 10  5  6  7  8  9 10  1  1  1  1  1  1  1
TYPE ASSIGNMENTS      1  1  1  1  1  1  1  1  1  1  1  1  1  1  1  1  1  1  1  1
TYPE ASSIGNMENTS      1  1  1  1  2  2  2  2  2  2  3  3  3  3  3  3  4  4  4  4
TYPE ASSIGNMENTS      4  4  2  2  2  2  2  2  3  3  3  3  3  3  4  4  4  4  4  4
TYPE ASSIGNMENTS      2  3  4  2  3  4  2  3  4  5  6  7  8  9 10  5  6  7  8  9
TYPE ASSIGNMENTS     10  5  6  7  8  9 10 11 12 13 17 14 15 18 19 16 20 11 12 13
TYPE ASSIGNMENTS     17 14 15 18 19 16 20  1  1  1  1  1  1  1  1  1  1  1  1  1
TYPE ASSIGNMENTS      1  1  1  2  2  2  3  3  3  4  4  4  2  3  4  2  3  4  2  3
TYPE ASSIGNMENTS      4  5  6  7  8  9 10  5  6  7  8  9 10  5  6  7  8  9 10 11
TYPE ASSIGNMENTS     12 13 17 14 15 18 19 16 20 11 12 13 17 14 15 18 19 16 20
EXPONENTS  0.8236000D+04 0.1235000D+04 0.2808000D+03 0.7927000D+02 0.2559000D+02
EXPONENTS  0.8997000D+01 0.3319000D+01 0.2808000D+03 0.7927000D+02 0.2559000D+02
EXPONENTS  0.8997000D+01 0.3319000D+01 0.3643000D+00 0.9059000D+00 0.1285000D+00
EXPONENTS  0.4402000D-01 0.1871000D+02 0.4133000D+01 0.1200000D+01 0.1871000D+02
EXPONENTS  0.4133000D+01 0.1200000D+01 0.1871000D+02 0.4133000D+01 0.1200000D+01
EXPONENTS  0.3827000D+00 0.3827000D+00 0.3827000D+00 0.1209000D+00 0.1209000D+00
EXPONENTS  0.1209000D+00 0.3569000D-01 0.3569000D-01 0.3569000D-01 0.1097000D+01
EXPONENTS  0.1097000D+01 0.1097000D+01 0.1097000D+01 0.1097000D+01 0.1097000D+01
EXPONENTS  0.3180000D+00 0.3180000D+00 0.3180000D+00 0.3180000D+00 0.3180000D+00
EXPONENTS  0.3180000D+00 0.1000000D+00 0.1000000D+00 0.1000000D+00 0.1000000D+00
EXPONENTS  0.1000000D+00 0.1000000D+00 0.7610000D+00 0.7610000D+00 0.7610000D+00
EXPONENTS  0.7610000D+00 0.7610000D+00 0.7610000D+00 0.7610000D+00 0.7610000D+00
EXPONENTS  0.7610000D+00 0.7610000D+00 0.2680000D+00 0.2680000D+00 0.2680000D+00
EXPONENTS  0.2680000D+00 0.2680000D+00 0.2680000D+00 0.2680000D+00 0.2680000D+00
EXPONENTS  0.2680000D+00 0.2680000D+00 0.3387000D+02 0.5095000D+01 0.1159000D+01
EXPONENTS  0.3258000D+00 0.1027000D+00 0.2526000D-01 0.1407000D+01 0.1407000D+01
EXPONENTS  0.1407000D+01 0.3880000D+00 0.3880000D+00 0.3880000D+00 0.1020000D+00
EXPONENTS  0.1020000D+00 0.1020000D+00 0.1057000D+01 0.1057000D+01 0.1057000D+01
EXPONENTS  0.1057000D+01 0.1057000D+01 0.1057000D+01 0.2470000D+00 0.2470000D+00
EXPONENTS  0.2470000D+00 0.2470000D+00 0.2470000D+00 0.2470000D+00 0.3387000D+02
EXPONENTS  0.5095000D+01 0.1159000D+01 0.3258000D+00 0.1027000D+00 0.2526000D-01
EXPONENTS  0.1407000D+01 0.1407000D+01 0.1407000D+01 0.3880000D+00 0.3880000D+00
EXPONENTS  0.3880000D+00 0.1020000D+00 0.1020000D+00 0.1020000D+00 0.1057000D+01
EXPONENTS  0.1057000D+01 0.1057000D+01 0.1057000D+01 0.1057000D+01 0.1057000D+01
EXPONENTS  0.2470000D+00 0.2470000D+00 0.2470000D+00 0.2470000D+00 0.2470000D+00
EXPONENTS  0.2470000D+00 0.3387000D+02 0.5095000D+01 0.1159000D+01 0.3258000D+00
EXPONENTS  0.1027000D+00 0.2526000D-01 0.1407000D+01 0.1407000D+01 0.1407000D+01
EXPONENTS  0.3880000D+00 0.3880000D+00 0.3880000D+00 0.1020000D+00 0.1020000D+00
EXPONENTS  0.1020000D+00 0.1057000D+01 0.1057000D+01 0.1057000D+01 0.1057000D+01
EXPONENTS  0.1057000D+01 0.1057000D+01 0.2470000D+00 0.2470000D+00 0.2470000D+00
EXPONENTS  0.2470000D+00 0.2470000D+00 0.2470000D+00 0.4561000D+06 0.6833000D+05
EXPONENTS  0.1555000D+05 0.4405000D+04 0.1439000D+04 0.5204000D+03 0.2031000D+03
EXPONENTS  0.8396000D+02 0.3620000D+02 0.1583000D+02 0.6334000D+01 0.4405000D+04
EXPONENTS  0.1439000D+04 0.5204000D+03 0.2031000D+03 0.8396000D+02 0.3620000D+02
EXPONENTS  0.1583000D+02 0.6334000D+01 0.2694000D+01 0.1439000D+04 0.2031000D+03
EXPONENTS  0.8396000D+02 0.3620000D+02 0.1583000D+02 0.6334000D+01 0.2694000D+01
EXPONENTS  0.4313000D+00 0.9768000D+00 0.1625000D+00 0.5910000D-01 0.6633000D+03
EXPONENTS  0.1568000D+03 0.4998000D+02 0.1842000D+02 0.7240000D+01 0.2922000D+01
EXPONENTS  0.6633000D+03 0.1568000D+03 0.4998000D+02 0.1842000D+02 0.7240000D+01
EXPONENTS  0.2922000D+01 0.6633000D+03 0.1568000D+03 0.4998000D+02 0.1842000D+02
EXPONENTS  0.7240000D+01 0.2922000D+01 0.1568000D+03 0.4998000D+02 0.1842000D+02
EXPONENTS  0.7240000D+01 0.2922000D+01 0.3818000D+00 0.1568000D+03 0.4998000D+02
EXPONENTS  0.1842000D+02 0.7240000D+01 0.2922000D+01 0.3818000D+00 0.1568000D+03
EXPONENTS  0.4998000D+02 0.1842000D+02 0.7240000D+01 0.2922000D+01 0.3818000D+00
EXPONENTS  0.1022000D+01 0.1022000D+01 0.1022000D+01 0.1301000D+00 0.1301000D+00
EXPONENTS  0.1301000D+00 0.4190000D-01 0.4190000D-01 0.4190000D-01 0.1046000D+01
EXPONENTS  0.1046000D+01 0.1046000D+01 0.1046000D+01 0.1046000D+01 0.1046000D+01
EXPONENTS  0.3440000D+00 0.3440000D+00 0.3440000D+00 0.3440000D+00 0.3440000D+00
EXPONENTS  0.3440000D+00 0.1350000D+00 0.1350000D+00 0.1350000D+00 0.1350000D+00
EXPONENTS  0.1350000D+00 0.1350000D+00 0.7060000D+00 0.7060000D+00 0.7060000D+00
EXPONENTS  0.7060000D+00 0.7060000D+00 0.7060000D+00 0.7060000D+00 0.7060000D+00
EXPONENTS  0.7060000D+00 0.7060000D+00 0.3120000D+00 0.3120000D+00 0.3120000D+00
EXPONENTS  0.3120000D+00 0.3120000D+00 0.3120000D+00 0.3120000D+00 0.3120000D+00
EXPONENTS  0.3120000D+00 0.3120000D+00 0.1950000D+05 0.2923000D+04 0.6645000D+03
EXPONENTS  0.1875000D+03 0.6062000D+02 0.2142000D+02 0.7950000D+01 0.6645000D+03
EXPONENTS  0.1875000D+03 0.6062000D+02 0.2142000D+02 0.7950000D+01 0.8815000D+00
EXPONENTS  0.2257000D+01 0.3041000D+00 0.9158000D-01 0.4388000D+02 0.9926000D+01
EXPONENTS  0.2930000D+01 0.4388000D+02 0.9926000D+01 0.2930000D+01 0.4388000D+02
EXPONENTS  0.9926000D+01 0.2930000D+01 0.9132000D+00 0.9132000D+00 0.9132000D+00
EXPONENTS  0.2672000D+00 0.2672000D+00 0.2672000D+00 0.7361000D-01 0.7361000D-01
EXPONENTS  0.7361000D-01 0.3107000D+01 0.3107000D+01 0.3107000D+01 0.3107000D+01
EXPONENTS  0.3107000D+01 0.3107000D+01 0.8550000D+00 0.8550000D+00 0.8550000D+00
EXPONENTS  0.8550000D+00 0.8550000D+00 0.8550000D+00 0.2920000D+00 0.2920000D+00
EXPONENTS  0.2920000D+00 0.2920000D+00 0.2920000D+00 0.2920000D+00 0.1917000D+01
EXPONENTS  0.1917000D+01 0.1917000D+01 0.1917000D+01 0.1917000D+01 0.1917000D+01
EXPONENTS  0.1917000D+01 0.1917000D+01 0.1917000D+01 0.1917000D+01 0.7240000D+00
EXPONENTS  0.7240000D+00 0.7240000D+00 0.7240000D+00 0.7240000D+00 0.7240000D+00
EXPONENTS  0.7240000D+00 0.7240000D+00 0.7240000D+00 0.7240000D+00
MO    1     MO 0.0        OCC NO =    2.0000300  ORB. ENERGY =    0.000000
  0.56421370D-04  0.10518080D-03  0.17776988D-03  0.26722129D-03  0.32823349D-03
  0.27701749D-03  0.10416581D-03 -0.16473601D-07 -0.12312996D-06 -0.46016478D-06
 -0.12837881D-05 -0.17199221D-05  0.20309073D-05  0.84491348D-05 -0.31161056D-04
 -0.99353539D-06 -0.31287991D-08 -0.29334480D-08 -0.20887897D-08  0.11443067D-03
  0.10728602D-03  0.76394040D-04  0.60801223D-05  0.57005012D-05  0.40590964D-05
 -0.14491661D-07  0.36666472D-03  0.99991826D-06 -0.21332562D-07  0.46726325D-03
 -0.72019164D-05 -0.51546917D-09  0.92298747D-05 -0.37523135D-07  0.62638229D-04
 -0.63583674D-04  0.94544440D-06 -0.14472382D-06  0.38363161D-09 -0.50853693D-03
  0.19607796D-03 -0.19760447D-03  0.15265105D-05 -0.14945584D-06 -0.71522690D-07
  0.10500742D-03  0.41746055D-04 -0.41823085D-04  0.77029989D-07 -0.47040582D-07
 -0.11492652D-07 -0.64745820D-04 -0.76951875D-10  0.92959324D-04  0.16346970D-05
 -0.86947858D-08  0.92298712D-04  0.24833898D-04  0.89256415D-08 -0.37117669D-03
 -0.29737989D-04 -0.18620347D-06  0.10008230D-07 -0.26099061D-04 -0.72370990D-06
 -0.59417353D-08 -0.29843630D-04  0.52733115D-04 -0.24082954D-07  0.10814081D-03
 -0.50561985D-04  0.51900540D-08 -0.38972371D-04 -0.70288276D-04 -0.10364002D-03
  0.38658725D-03  0.11390758D-02 -0.12425656D-04  0.13817905D-07  0.75283323D-04
  0.26723226D-04  0.71695939D-07  0.29315088D-03  0.27715117D-03  0.13774101D-07
  0.17425996D-03  0.23161644D-04 -0.11111516D-03  0.42055506D-04  0.69059652D-04
  0.87360989D-07  0.11097130D-06  0.29861943D-03 -0.43847809D-04 -0.12065336D-04
  0.55913145D-04  0.86791849D-08  0.29097982D-07  0.31660110D-04  0.20033306D-04
  0.36130893D-04  0.53274980D-04 -0.17492373D-03 -0.56296666D-03  0.62897487D-05
 -0.28994385D-04  0.20796069D-04 -0.11783552D-04 -0.86824420D-04  0.13607153D-03
 -0.13714258D-03 -0.41108677D-04  0.10103001D-03 -0.11427633D-04  0.95877018D-05
  0.23806571D-04 -0.33394273D-04  0.79596735D-04 -0.14917417D-03  0.40978043D-04
  0.21039711D-04  0.65856004D-05 -0.27625311D-04  0.26758973D-04  0.12734758D-04
  0.54089045D-04  0.20021251D-04  0.36109151D-04  0.53242923D-04 -0.17481333D-03
 -0.56263303D-03  0.62864274D-05  0.28976334D-04  0.20778652D-04 -0.11786202D-04
  0.86729010D-04  0.13601718D-03 -0.13709453D-03  0.41079682D-04  0.10100557D-03
 -0.11436067D-04  0.96235902D-05  0.23803189D-04 -0.33426779D-04 -0.79536309D-04
  0.14908255D-03  0.40919207D-04  0.21024654D-04  0.65796879D-05 -0.27604342D-04
 -0.26741759D-04 -0.12768752D-04  0.54106376D-04 -0.45469911D-05 -0.85069352D-05
 -0.14698097D-04 -0.23827343D-04 -0.36184106D-04 -0.50292503D-04 -0.59793932D-04
 -0.53266513D-04 -0.26453277D-04 -0.42587537D-05 -0.44932367D-07 -0.18134832D-07
 -0.60494763D-06 -0.21081214D-05 -0.75916865D-05 -0.16734928D-04 -0.23557378D-04
  0.11237637D-05  0.30828919D-04  0.18228947D-04 -0.40301690D-08 -0.48815188D-07
 -0.10179893D-06 -0.29194160D-06 -0.15160121D-07  0.12589938D-05  0.32529981D-05
 -0.26503898D-05  0.18680931D-06  0.60201867D-05 -0.23768776D-06 -0.50402868D-03
 -0.66392369D-03 -0.73241175D-03 -0.60832531D-03 -0.32303762D-03 -0.83345394D-04
  0.11610695D+02  0.15294002D+02  0.16871678D+02  0.14013250D+02  0.74414245D+01
  0.19199264D+01  0.20899353D-01  0.27529337D-01  0.30369169D-01  0.25223972D-01
  0.13394629D-01  0.34558844D-02  0.19909318D-07 -0.19247047D-06 -0.27140346D-06
 -0.38817874D-06  0.19656825D-08  0.35599652D-06 -0.45953006D-03  0.44424410D-02
  0.62643055D-02  0.89596140D-02 -0.45370224D-04 -0.82168111D-02 -0.10643501D-05
  0.10289452D-04  0.14509202D-04  0.20751996D-04 -0.10508519D-06 -0.19031538D-04
 -0.33267513D-05  0.76658988D-01  0.14417422D-03  0.27577358D-07 -0.64363205D-03
 -0.30856610D-05  0.25431532D-08 -0.58006171D-04 -0.10865088D-07  0.13503240D-04
 -0.10292059D-04 -0.32111807D-05 -0.18460750D-06  0.37195958D-07 -0.98066883D-03
 -0.55194676D-05  0.36139613D-05  0.19055063D-05  0.67206926D-07 -0.13126117D-07
  0.35726806D-03  0.12358458D-05 -0.14403418D-05  0.20449598D-06 -0.11914407D-07
  0.22970494D-08 -0.61035408D-04  0.64447718D-08  0.24406557D-05  0.86348771D-07
 -0.68408909D-08  0.31853543D-05  0.35948405D-04 -0.12493424D-07 -0.10507322D-04
 -0.36207451D-04 -0.35308897D-07 -0.19449105D-08  0.14767170D-04 -0.27730930D-06
  0.83155084D-09  0.14540868D-04 -0.69626131D-05  0.50031806D-08 -0.58842380D-04
  0.77945410D-05 -0.19776792D-07 -0.30810272D-05 -0.57430400D-05 -0.97357322D-05
 -0.14741215D-04 -0.18429766D-04 -0.15852903D-04 -0.60799297D-05 -0.41300969D-08
 -0.54674749D-07 -0.19858864D-06 -0.58910945D-06 -0.67882965D-06  0.82453973D-06
 -0.21376038D-06 -0.14691906D-05  0.88804601D-06  0.15826117D-07  0.15477597D-07
  0.10226703D-07 -0.29012312D-03 -0.28373408D-03 -0.18747510D-03  0.16423505D-04
  0.16061829D-04  0.10612729D-04 -0.39484469D-09 -0.71372982D-05  0.28144825D-05
  0.39397947D-08 -0.67533610D-04  0.15095904D-06  0.93608897D-09 -0.19585079D-04
  0.24696122D-06  0.68980954D-04 -0.69835957D-04  0.85500356D-06 -0.82761467D-07
 -0.17332413D-07 -0.13394405D-03 -0.34602956D-04  0.35125649D-04 -0.52269254D-06
  0.47558196D-07  0.68909239D-08  0.10265014D-03  0.17800174D-04 -0.17620428D-04
 -0.17974536D-06 -0.27882151D-07 -0.21098686D-08 -0.74779227D-04 -0.28064404D-07
 -0.70947908D-04  0.63811048D-06  0.34529590D-07 -0.72711411D-04 -0.18980152D-03
  0.49663623D-07  0.28555514D-03  0.18788719D-03  0.28205540D-06  0.87900970D-08
  0.25235437D-04 -0.33780399D-06 -0.11132481D-07  0.25800657D-04  0.60432887D-04
 -0.15237810D-07 -0.10150697D-03 -0.59419475D-04 -0.94090991D-07
MO    2     MO 0.0        OCC NO =    2.0000300  ORB. ENERGY =    0.000000
  0.14999785D-07  0.27962621D-07  0.47260639D-07  0.71041555D-07  0.87261826D-07
  0.73645903D-07  0.27692783D-07 -0.49356721D-11 -0.36891091D-10 -0.13787043D-09
 -0.38463704D-09 -0.51530758D-09  0.60848217D-09  0.25455186D-08 -0.57011187D-08
  0.18793911D-08  0.11039757D-03  0.10350474D-03  0.73701542D-04  0.56074565D-08
  0.52573469D-08  0.37435442D-08 -0.20762077D-07 -0.19465767D-07 -0.13860786D-07
  0.36556500D-03  0.17405455D-07 -0.61978308D-07  0.46575119D-03  0.20753801D-07
 -0.87000037D-07  0.92598461D-05  0.30008675D-09 -0.16768305D-08 -0.62891686D-07
 -0.26265778D-07  0.89157464D-07  0.12735504D-03 -0.50984533D-03 -0.44849103D-07
  0.10094225D-06 -0.84232413D-07 -0.16709840D-07  0.39293067D-03  0.96650758D-04
 -0.63420720D-07  0.60403410D-08 -0.18014975D-07  0.11974634D-07  0.83373080D-04
 -0.66058961D-04 -0.17218430D-07  0.92338226D-04  0.36724178D-08  0.66513484D-07
  0.92989832D-04  0.13623775D-07 -0.16999389D-06 -0.37000451D-03 -0.24641028D-07
 -0.29546558D-07  0.51321849D-04 -0.26708145D-04 -0.81286982D-09 -0.19574255D-07
 -0.26268951D-04  0.15569354D-07  0.74293324D-07  0.10639338D-03 -0.13130744D-07
 -0.15570560D-07  0.98745179D-04 -0.64777405D-08 -0.11682872D-07 -0.17226388D-07
  0.66380391D-07  0.19715119D-06 -0.24098934D-08  0.28858714D-05  0.12127940D-07
  0.41296486D-08  0.86142965D-04  0.38831331D-07  0.32124712D-07  0.77199876D-04
  0.20731609D-07 -0.95571245D-08 -0.23433520D-07  0.29038330D-08  0.20529687D-07
  0.30220094D-04 -0.50897226D-04  0.53578199D-07  0.66933723D-08 -0.57477786D-08
 -0.94559362D-09  0.30243248D-04  0.59096821D-04 -0.79479317D-08 -0.34675006D-04
 -0.62537801D-04 -0.92211950D-04  0.32314320D-03  0.98089752D-03 -0.10645892D-04
  0.54853344D-04 -0.29655229D-04  0.21321608D-04  0.23956166D-03 -0.87974116D-04
  0.23351943D-03  0.14936896D-03 -0.41712486D-04  0.19573350D-04  0.10867841D-04
 -0.69588227D-04  0.58720386D-04 -0.10628410D-03  0.21141565D-03 -0.14899201D-03
 -0.10609466D-04 -0.37275078D-04  0.47884544D-04 -0.16262861D-04  0.38400565D-04
  0.12849698D-04  0.34682022D-04  0.62550455D-04  0.92230610D-04 -0.32320414D-03
 -0.98109251D-03  0.10648064D-04  0.54863842D-04  0.29648356D-04 -0.21344439D-04
  0.23953076D-03  0.87960485D-04 -0.23365402D-03  0.14938615D-03  0.41709390D-04
 -0.19630960D-04 -0.10815895D-04  0.69623055D-04 -0.58807160D-04 -0.10621784D-03
  0.21147211D-03  0.14898961D-03  0.10626320D-04  0.37281398D-04 -0.47907718D-04
 -0.16262773D-04  0.38352319D-04 -0.12835056D-04 -0.42845976D-07 -0.80160250D-07
 -0.13849913D-06 -0.22452336D-06 -0.34096027D-06 -0.47390270D-06 -0.56343400D-06
 -0.50192659D-06 -0.24926736D-06 -0.40129936D-07 -0.42339452D-09 -0.19991352D-09
 -0.66687803D-08 -0.23239364D-07 -0.83688713D-07 -0.18448135D-06 -0.25969020D-06
  0.12388069D-07  0.33984973D-06  0.20095102D-06 -0.53896325D-11 -0.65281611D-10
 -0.13613792D-09 -0.39041985D-09 -0.20273959D-10  0.16836797D-08  0.43503050D-08
 -0.35444238D-08  0.11877797D-07  0.17855330D-08 -0.26942257D-09  0.11610706D+02
  0.15294016D+02  0.16871693D+02  0.14013262D+02  0.74414311D+01  0.19199281D+01
  0.50773199D-03  0.66880180D-03  0.73779308D-03  0.61279492D-03  0.32541111D-03
  0.83957766D-04 -0.20573440D-02 -0.27100033D-02 -0.29895578D-02 -0.24830619D-02
 -0.13185747D-02 -0.34019918D-03 -0.45939864D-03  0.44411704D-02  0.62625139D-02
  0.89570515D-02 -0.45357248D-04 -0.82144610D-02 -0.20086370D-07  0.19418210D-06
  0.27381704D-06  0.39163079D-06 -0.19831632D-08 -0.35916238D-06  0.81273574D-07
 -0.78570062D-06 -0.11079199D-05 -0.15846185D-05  0.80242852D-08  0.14532446D-05
  0.76659097D-01  0.33522450D-05 -0.13581097D-04 -0.64369019D-03 -0.28169107D-07
  0.11309463D-06 -0.58006322D-04 -0.25281754D-08  0.10334887D-07 -0.16799655D-06
 -0.50841928D-08  0.17308074D-06  0.25878618D-04 -0.97799781D-03 -0.47114044D-07
  0.60898614D-07  0.14753240D-08 -0.62373938D-07 -0.84681741D-05  0.35578233D-03
  0.16920408D-07 -0.10257234D-07 -0.66219683D-09  0.10919431D-07  0.26421115D-05
 -0.60773035D-04 -0.31321050D-08  0.21518945D-05  0.20731092D-10  0.15423163D-08
  0.27037904D-05  0.13092869D-07  0.10993606D-07 -0.91594739D-05 -0.13155062D-07
 -0.15620554D-07  0.70552534D-04  0.14724036D-04  0.66380430D-09  0.10315254D-07
  0.14485549D-04 -0.21683181D-08 -0.31709275D-07 -0.58657656D-04  0.17690521D-09
  0.76351179D-09 -0.14853597D-04  0.43549743D-08  0.81176796D-08  0.13761275D-07
  0.20836432D-07  0.26050129D-07  0.22407783D-07  0.85938669D-08 -0.11053070D-10
 -0.14632195D-09 -0.53146794D-09 -0.15765896D-08 -0.18167011D-08  0.22066541D-08
  0.13042306D-09 -0.35375749D-08 -0.34393231D-08 -0.29128090D-03 -0.28486636D-03
 -0.18822325D-03 -0.12427595D-07 -0.12153916D-07 -0.80306063D-08  0.50663313D-07
  0.49547614D-07  0.32738203D-07 -0.83176745D-05 -0.15658241D-08  0.38199528D-08
 -0.66789221D-04 -0.19671044D-08  0.74591656D-08 -0.19497547D-04 -0.81506814D-09
  0.29992940D-08  0.62223027D-08 -0.31070049D-07  0.24847746D-07  0.14195752D-03
 -0.13336717D-03 -0.29931087D-07  0.28401087D-08  0.15520313D-07 -0.18360422D-07
 -0.71153180D-04  0.10236363D-03  0.16340413D-07 -0.46432988D-08 -0.73306067D-08
  0.11973906D-07  0.35923921D-04 -0.74254179D-04 -0.86235089D-08 -0.72013426D-04
 -0.20953469D-08 -0.48186052D-07 -0.70017253D-04 -0.67607751D-07  0.52288066D-07
  0.28605753D-03  0.73893792D-07  0.92270090D-07 -0.37666196D-03  0.25537625D-04
  0.72380326D-09  0.16869302D-07  0.24946129D-04  0.21562579D-07 -0.21235453D-07
 -0.10155900D-03 -0.23733989D-07 -0.29372454D-07  0.11948079D-03
MO    3     MO 0.0        OCC NO =    2.0000210  ORB. ENERGY =    0.000000
 -0.14423658D-01 -0.26888604D-01 -0.45445405D-01 -0.68312919D-01 -0.83910186D-01
 -0.70817237D-01 -0.26629130D-01 -0.38200074D-05 -0.28552189D-04 -0.10670605D-03
 -0.29769326D-03 -0.39882690D-03  0.47094020D-03 -0.86851347D-03 -0.19421011D-02
 -0.82647009D-04  0.20966304D-06  0.19657242D-06  0.13997128D-06  0.30748823D-05
  0.28828976D-05  0.20527948D-05  0.11723084D-02  0.10991136D-02  0.78263437D-03
  0.10550332D-06  0.11009653D-05  0.60839110D-03 -0.66279348D-07  0.27573972D-05
 -0.38286050D-03  0.81129161D-09  0.50603896D-07  0.46377517D-05 -0.10633459D-03
 -0.10517200D-03  0.21150658D-03 -0.69082942D-09  0.11392445D-06  0.17051649D-05
 -0.23943355D-04 -0.24996309D-04  0.48939665D-04 -0.41701212D-09  0.25695553D-07
  0.32205720D-05  0.11779005D-04  0.11177039D-04 -0.22956044D-04  0.20116652D-09
 -0.12109221D-07  0.49670037D-06 -0.16030449D-07  0.36399663D-04  0.85439803D-05
  0.39579140D-07 -0.10968600D-03 -0.11647041D-04  0.85122057D-08  0.48700498D-06
 -0.13984900D-04  0.38666544D-07  0.29354646D-08  0.52321075D-04 -0.86058186D-04
  0.82620158D-07 -0.15605322D-03  0.12972763D-03 -0.91426552D-07 -0.91000076D-06
  0.12844693D-03  0.54643960D-07 -0.44697229D-05 -0.80613293D-05 -0.11886425D-04
  0.75802406D-03  0.24407953D-03  0.52818931D-05  0.18120777D-07  0.98077791D-04
  0.31365573D-04  0.25101935D-07  0.19867061D-03 -0.89635761D-05  0.13188054D-07
  0.45131060D-04  0.39423187D-04 -0.75961556D-04  0.53277318D-04  0.22684237D-04
  0.47195743D-07  0.45375719D-07  0.75299563D-04 -0.94336773D-05 -0.12237281D-04
  0.21670959D-04 -0.67286946D-08  0.64660979D-08 -0.34763905D-04 -0.47032355D-05
 -0.84824790D-05 -0.12507410D-04  0.75510661D-03  0.23342020D-03  0.49939339D-05
  0.83476784D-04 -0.47857894D-04  0.28658917D-04  0.17310296D-03 -0.99908428D-04
 -0.49195070D-05  0.38110478D-04 -0.21357556D-04  0.38662462D-04  0.22307886D-04
 -0.42269759D-04  0.19961872D-04 -0.11113517D-03  0.66165233D-04 -0.37410539D-04
 -0.11405904D-04 -0.10411453D-04  0.21817357D-04  0.20496060D-05 -0.30154608D-04
  0.17356989D-04 -0.47030189D-05 -0.84820883D-05 -0.12506834D-04  0.75510953D-03
  0.23341667D-03  0.49939632D-05 -0.83479007D-04 -0.47836661D-04  0.28689088D-04
 -0.17313005D-03 -0.99865530D-04 -0.48565577D-05 -0.38101582D-04 -0.21347932D-04
  0.38675879D-04  0.22312613D-04 -0.42297537D-04  0.19984924D-04  0.11108895D-03
 -0.66177340D-04 -0.37434435D-04 -0.11395719D-04 -0.10410889D-04  0.21806607D-04
 -0.20426926D-05  0.30182297D-04  0.17349964D-04 -0.15450752D+00 -0.28906707D+00
 -0.49944379D+00 -0.80965706D+00 -0.12295419D+01 -0.17089476D+01 -0.20318078D+01
 -0.18100050D+01 -0.89888674D+00 -0.14471316D+00 -0.15268093D-02 -0.72239937D-03
 -0.24098034D-01 -0.83976823D-01 -0.30241414D+00 -0.66663433D+00 -0.93840598D+00
  0.44765024D-01  0.12280672D+01  0.72614844D+00 -0.15524217D-04 -0.18803617D-03
 -0.39212962D-03 -0.11245595D-02 -0.58396807D-04  0.48496458D-02  0.12530553D-01
 -0.10209305D-01  0.46572492D-01 -0.37988187D-03 -0.13192768D-03  0.10527274D-02
  0.13866883D-02  0.15297342D-02  0.12705640D-02  0.67470476D-03  0.17407736D-03
 -0.10862437D-01 -0.14308371D-01 -0.15784373D-01 -0.13110157D-01 -0.69618574D-02
 -0.17961956D-02  0.59515858D+01  0.78396308D+01  0.86483399D+01  0.71831234D+01
  0.38144379D+01  0.98414491D+00 -0.37388503D-07  0.36144799D-06  0.50967940D-06
  0.72897637D-06 -0.36914337D-08 -0.66854008D-06  0.31424800D-06 -0.30379475D-05
 -0.42838231D-05 -0.61270002D-05  0.31026267D-07  0.56190371D-05 -0.21129109D-03
  0.20426263D-02  0.28803163D-02  0.41196143D-02 -0.20861147D-04 -0.37780748D-02
  0.73817791D-05 -0.74276886D-04  0.41727358D-01 -0.86105823D-07  0.53512279D-06
 -0.48546911D-03 -0.17199691D-08  0.69693181D-07 -0.98746103D-05 -0.58514901D-05
 -0.65653766D-05  0.12416867D-04 -0.42526043D-09  0.58357313D-08 -0.18375674D-05
 -0.11212764D-03 -0.11183433D-03  0.22396197D-03  0.11417649D-09  0.11962563D-06
  0.40607538D-06 -0.14301171D-04 -0.14444187D-04  0.28745357D-04 -0.66719282D-10
  0.15323632D-07 -0.18729009D-06  0.14360799D-08 -0.71633532D-05  0.53408592D-05
 -0.99672423D-08  0.22239997D-04 -0.76601308D-05  0.56590027D-08 -0.74993767D-06
 -0.83624469D-05 -0.82892268D-08  0.82276624D-08  0.20544153D-05 -0.33852503D-04
  0.11489146D-07 -0.63610352D-05  0.50685459D-04 -0.36172134D-07  0.19778936D-06
  0.50872051D-04  0.23606413D-08 -0.87693084D-03 -0.16346006D-02 -0.27710122D-02
 -0.41956872D-02 -0.52455331D-02 -0.45120991D-02 -0.17304871D-02 -0.68377771D-06
 -0.90519366D-05 -0.32878281D-04 -0.97532800D-04 -0.11238685D-03  0.13651057D-03
 -0.95834642D-04 -0.16040255D-03  0.12273949D-04  0.66922047D-06  0.65448300D-06
  0.43244459D-06  0.51993280D-06  0.50848292D-06  0.33597617D-06  0.39105672D-02
  0.38244493D-02  0.25269754D-02  0.14987270D-06  0.53431444D-06  0.88061211D-03
  0.40829913D-08 -0.15560411D-06  0.21057151D-04  0.15671988D-08  0.96593175D-07
  0.93450283D-05 -0.36498512D-04 -0.35584557D-04  0.72083070D-04  0.89188709D-09
  0.37335918D-07 -0.39192411D-06  0.21583259D-04  0.21075012D-04 -0.42658271D-04
 -0.37981025D-09 -0.22278073D-07  0.29895203D-06  0.18029940D-04  0.18326337D-04
 -0.36356277D-04  0.63420457D-10 -0.18075531D-07 -0.23054149D-06 -0.98007864D-08
 -0.29280858D-05  0.46847059D-04 -0.14537534D-07  0.76987540D-05 -0.68280334D-04
  0.43939893D-07  0.10855033D-05 -0.72260844D-04 -0.91088002D-09  0.58277592D-08
  0.91772195D-06 -0.25613400D-04  0.73223306D-08 -0.24436899D-05  0.37802465D-04
 -0.24805608D-07 -0.30947595D-06  0.39037734D-04  0.29764830D-09
MO    4     MO 0.0        OCC NO =    2.0000124  ORB. ENERGY =    0.000000
  0.27129124D-01  0.50574153D-01  0.85477209D-01  0.12848819D+00  0.15782473D+00
  0.13319850D+00  0.50086114D-01 -0.14299589D-05 -0.10688057D-04 -0.39943708D-04
 -0.11143673D-03 -0.14929449D-03  0.17628896D-03  0.26724913D-02 -0.36229218D-02
 -0.44082286D-04  0.64969879D-06  0.60913391D-06  0.43373963D-06  0.15054455D-04
  0.14114508D-04  0.10050371D-04  0.36700787D-02  0.34409321D-02  0.24501486D-02
  0.22775170D-06 -0.10800879D-05  0.13032228D-02 -0.73533140D-07  0.49945500D-05
 -0.42174384D-03  0.67890478D-09  0.12523520D-06  0.36501350D-05 -0.31964922D-03
 -0.31487597D-03  0.63452519D-03  0.83648475D-11  0.33842507D-06  0.60551934D-06
  0.80848007D-05  0.74404811D-05 -0.15525282D-04 -0.12058795D-09 -0.64970396D-08
  0.90189432D-05 -0.17024893D-04 -0.18063704D-04  0.35088597D-04 -0.19113205D-09
  0.18295305D-07  0.99938641D-06  0.10389273D-07 -0.42787358D-04  0.23724817D-04
 -0.55188809D-07  0.12641937D-03 -0.33629327D-04  0.24020991D-07  0.19427035D-05
 -0.37545124D-04 -0.44194493D-07  0.11969853D-07  0.83484326D-04 -0.16357182D-03
  0.13869073D-06 -0.24872591D-03  0.24731274D-03 -0.17460029D-06 -0.17270665D-05
  0.24340272D-03  0.87143363D-07 -0.90243345D-04 -0.16275759D-03 -0.23998597D-03
  0.10288633D-02  0.69757111D-03  0.47760794D-05  0.16285859D-09 -0.54935054D-04
  0.42338399D-04  0.32020454D-07  0.29932512D-03 -0.43312346D-04  0.28086112D-07
  0.11278170D-03  0.76427824D-04 -0.14645992D-03  0.18848554D-04  0.12761137D-03
  0.69408855D-07  0.11704702D-06  0.15074144D-03 -0.14952333D-04 -0.22069122D-04
  0.37021455D-04 -0.12804210D-07  0.10628388D-07 -0.62080429D-04 -0.89970504D-04
 -0.16226551D-03 -0.23926040D-03  0.10317408D-02  0.67854855D-03  0.41215380D-05
 -0.49205962D-04  0.29443406D-04  0.33775063D-04  0.26525867D-03 -0.15326250D-03
 -0.44054838D-04  0.95982449D-04 -0.54385878D-04  0.75352438D-04 -0.17164580D-04
 -0.10148941D-03  0.11865399D-03 -0.14327454D-03  0.12340531D-03 -0.69925026D-04
 -0.19578713D-04 -0.16926862D-04  0.36505575D-04  0.49576822D-05 -0.54591083D-04
  0.31944358D-04 -0.89970766D-04 -0.16226598D-03 -0.23926110D-03  0.10317444D-02
  0.67855196D-03  0.41213328D-05  0.49225061D-04  0.29430964D-04  0.33757637D-04
 -0.26531357D-03 -0.15319641D-03 -0.43961112D-04 -0.95969844D-04 -0.54361594D-04
  0.75386455D-04 -0.17170253D-04 -0.10152486D-03  0.11869511D-03  0.14320795D-03
 -0.12332696D-03 -0.69945022D-04 -0.19560612D-04 -0.16925792D-04  0.36486404D-04
 -0.49446083D-05  0.54639727D-04  0.31932415D-04  0.91459411D-01  0.17111080D+00
  0.29564151D+00  0.47926962D+00  0.72781691D+00  0.10115970D+01  0.12027113D+01
  0.10714171D+01  0.53208837D+00  0.85661726D-01  0.90378180D-03  0.42821687D-03
  0.14284598D-01  0.49778964D-01  0.17926211D+00  0.39516101D+00  0.55625916D+00
 -0.26535375D-01 -0.72796172D+00 -0.43043921D+00  0.62941806D-05  0.76237897D-04
  0.15898610D-03  0.45594445D-03  0.23676560D-04 -0.19662536D-02 -0.50804216D-02
  0.41392884D-02 -0.28588051D-01  0.14244060D-02 -0.18072032D-03  0.17577790D-02
  0.23154062D-02  0.25542555D-02  0.21215091D-02  0.11265802D-02  0.29066359D-03
 -0.17891510D-01 -0.23567305D-01 -0.25998426D-01 -0.21593728D-01 -0.11466869D-01
 -0.29585121D-02  0.99080995D+01  0.13051285D+02  0.14397610D+02  0.11958343D+02
  0.63502117D+01  0.16383878D+01 -0.59827282D-07  0.57837167D-06  0.81556443D-06
  0.11664729D-05 -0.59068545D-08 -0.10697656D-05  0.39344815D-06 -0.38036035D-05
 -0.53634780D-05 -0.76711924D-05  0.38845839D-07  0.70352070D-05 -0.33697715D-03
  0.32576782D-02  0.45936664D-02  0.65701581D-02 -0.33270356D-04 -0.60254547D-02
  0.12863500D-04 -0.12559792D-03  0.72502100D-01 -0.54279778D-07  0.93402985D-06
 -0.30834554D-03 -0.66144993D-09  0.11123072D-06 -0.40303670D-05  0.45439033D-03
  0.45313164D-03 -0.90752197D-03 -0.31483293D-09 -0.48467254D-06 -0.42150810D-06
 -0.30984348D-03 -0.30912707D-03  0.61897055D-03  0.23133919D-09  0.33040518D-06
  0.74898942D-06  0.44130956D-05  0.41449961D-05 -0.85580916D-05 -0.15479612D-09
 -0.48589584D-08 -0.48652637D-06  0.18389485D-07 -0.14285973D-04 -0.47076219D-04
 -0.45129583D-08  0.44815644D-04  0.71273445D-04 -0.50655495D-07 -0.19577260D-05
  0.69955211D-04 -0.17220940D-07  0.14990884D-07  0.41709986D-05 -0.62444294D-04
  0.21551156D-07 -0.12862126D-04  0.93590483D-04 -0.66523809D-07  0.34912973D-06
  0.93742399D-04  0.48968286D-08 -0.63311159D-02 -0.11801211D-01 -0.20005682D-01