 title line
GAUSSIAN            211 MOL ORBITALS    339 PRIMITIVES        6 NUCLEI
  C    1    (CENTRE  1)   0.00033070  0.00005480 -0.94053370  CHARGE =  6.0
  H    2    (CENTRE  2)   0.00003590 -1.98906904 -1.17300214  CHARGE =  1.0
  H    3    (CENTRE  3)  -1.72213010  0.99468570 -1.17398291  CHARGE =  1.0
  H    4    (CENTRE  4)   1.72295780  0.99424539 -1.17459707  CHARGE =  1.0
  Cl   5    (CENTRE  5)   0.00104880  0.00181792  3.10806659  CHARGE = 17.0
  F    6    (CENTRE  6)  -0.01924875 -0.00174044 -4.90092914  CHARGE =  9.0
CENTRE ASSIGNMENTS    1  1  1  1  1  1  1  1  1  1  1  1  1  1  1  1  1  1  1  1
CENTRE ASSIGNMENTS    1  1  1  1  1  1  1  1  1  1  1  1  1  1  1  1  1  1  1  1
CENTRE ASSIGNMENTS    1  1  1  1  1  1  1  1  1  1  1  1  1  1  1  1  1  1  1  1
CENTRE ASSIGNMENTS    1  1  1  1  1  1  1  1  1  1  1  1  2  2  2  2  2  2  2  2
CENTRE ASSIGNMENTS    2  2  2  2  2  2  2  2  2  2  2  2  2  2  2  2  2  2  2  3
CENTRE ASSIGNMENTS    3  3  3  3  3  3  3  3  3  3  3  3  3  3  3  3  3  3  3  3
CENTRE ASSIGNMENTS    3  3  3  3  3  3  4  4  4  4  4  4  4  4  4  4  4  4  4  4
CENTRE ASSIGNMENTS    4  4  4  4  4  4  4  4  4  4  4  4  4  5  5  5  5  5  5  5
CENTRE ASSIGNMENTS    5  5  5  5  5  5  5  5  5  5  5  5  5  5  5  5  5  5  5  5
CENTRE ASSIGNMENTS    5  5  5  5  5  5  5  5  5  5  5  5  5  5  5  5  5  5  5  5
CENTRE ASSIGNMENTS    5  5  5  5  5  5  5  5  5  5  5  5  5  5  5  5  5  5  5  5
CENTRE ASSIGNMENTS    5  5  5  5  5  5  5  5  5  5  5  5  5  5  5  5  5  5  5  5
CENTRE ASSIGNMENTS    5  5  5  5  5  5  5  5  5  5  5  5  5  5  5  5  5  5  5  5
CENTRE ASSIGNMENTS    5  5  5  5  5  5  5  6  6  6  6  6  6  6  6  6  6  6  6  6
CENTRE ASSIGNMENTS    6  6  6  6  6  6  6  6  6  6  6  6  6  6  6  6  6  6  6  6
CENTRE ASSIGNMENTS    6  6  6  6  6  6  6  6  6  6  6  6  6  6  6  6  6  6  6  6
CENTRE ASSIGNMENTS    6  6  6  6  6  6  6  6  6  6  6  6  6  6  6  6  6  6  6
TYPE ASSIGNMENTS      1  1  1  1  1  1  1  1  1  1  1  1  1  1  1  1  2  2  2  3
TYPE ASSIGNMENTS      3  3  4  4  4  2  3  4  2  3  4  2  3  4  5  6  7  8  9 10
TYPE ASSIGNMENTS      5  6  7  8  9 10  5  6  7  8  9 10 11 12 13 17 14 15 18 19
TYPE ASSIGNMENTS     16 20 11 12 13 17 14 15 18 19 16 20  1  1  1  1  1  1  2  3
TYPE ASSIGNMENTS      4  2  3  4  2  3  4  5  6  7  8  9 10  5  6  7  8  9 10  1
TYPE ASSIGNMENTS      1  1  1  1  1  2  3  4  2  3  4  2  3  4  5  6  7  8  9 10
TYPE ASSIGNMENTS      5  6  7  8  9 10  1  1  1  1  1  1  2  3  4  2  3  4  2  3
TYPE ASSIGNMENTS      4  5  6  7  8  9 10  5  6  7  8  9 10  1  1  1  1  1  1  1
TYPE ASSIGNMENTS      1  1  1  1  1  1  1  1  1  1  1  1  1  1  1  1  1  1  1  1
TYPE ASSIGNMENTS      1  1  1  1  2  2  2  2  2  2  3  3  3  3  3  3  4  4  4  4
TYPE ASSIGNMENTS      4  4  2  2  2  2  2  2  3  3  3  3  3  3  4  4  4  4  4  4
TYPE ASSIGNMENTS      2  3  4  2  3  4  2  3  4  5  6  7  8  9 10  5  6  7  8  9
TYPE ASSIGNMENTS     10  5  6  7  8  9 10 11 12 13 17 14 15 18 19 16 20 11 12 13
TYPE ASSIGNMENTS     17 14 15 18 19 16 20  1  1  1  1  1  1  1  1  1  1  1  1  1
TYPE ASSIGNMENTS      1  1  1  2  2  2  3  3  3  4  4  4  2  3  4  2  3  4  2  3
TYPE ASSIGNMENTS      4  5  6  7  8  9 10  5  6  7  8  9 10  5  6  7  8  9 10 11
TYPE ASSIGNMENTS     12 13 17 14 15 18 19 16 20 11 12 13 17 14 15 18 19 16 20
EXPONENTS  0.8236000D+04 0.1235000D+04 0.2808000D+03 0.7927000D+02 0.2559000D+02
EXPONENTS  0.8997000D+01 0.3319000D+01 0.2808000D+03 0.7927000D+02 0.2559000D+02
EXPONENTS  0.8997000D+01 0.3319000D+01 0.3643000D+00 0.9059000D+00 0.1285000D+00
EXPONENTS  0.4402000D-01 0.1871000D+02 0.4133000D+01 0.1200000D+01 0.1871000D+02
EXPONENTS  0.4133000D+01 0.1200000D+01 0.1871000D+02 0.4133000D+01 0.1200000D+01
EXPONENTS  0.3827000D+00 0.3827000D+00 0.3827000D+00 0.1209000D+00 0.1209000D+00
EXPONENTS  0.1209000D+00 0.3569000D-01 0.3569000D-01 0.3569000D-01 0.1097000D+01
EXPONENTS  0.1097000D+01 0.1097000D+01 0.1097000D+01 0.1097000D+01 0.1097000D+01
EXPONENTS  0.3180000D+00 0.3180000D+00 0.3180000D+00 0.3180000D+00 0.3180000D+00
EXPONENTS  0.3180000D+00 0.1000000D+00 0.1000000D+00 0.1000000D+00 0.1000000D+00
EXPONENTS  0.1000000D+00 0.1000000D+00 0.7610000D+00 0.7610000D+00 0.7610000D+00
EXPONENTS  0.7610000D+00 0.7610000D+00 0.7610000D+00 0.7610000D+00 0.7610000D+00
EXPONENTS  0.7610000D+00 0.7610000D+00 0.2680000D+00 0.2680000D+00 0.2680000D+00
EXPONENTS  0.2680000D+00 0.2680000D+00 0.2680000D+00 0.2680000D+00 0.2680000D+00
EXPONENTS  0.2680000D+00 0.2680000D+00 0.3387000D+02 0.5095000D+01 0.1159000D+01
EXPONENTS  0.3258000D+00 0.1027000D+00 0.2526000D-01 0.1407000D+01 0.1407000D+01
EXPONENTS  0.1407000D+01 0.3880000D+00 0.3880000D+00 0.3880000D+00 0.1020000D+00
EXPONENTS  0.1020000D+00 0.1020000D+00 0.1057000D+01 0.1057000D+01 0.1057000D+01
EXPONENTS  0.1057000D+01 0.1057000D+01 0.1057000D+01 0.2470000D+00 0.2470000D+00
EXPONENTS  0.2470000D+00 0.2470000D+00 0.2470000D+00 0.2470000D+00 0.3387000D+02
EXPONENTS  0.5095000D+01 0.1159000D+01 0.3258000D+00 0.1027000D+00 0.2526000D-01
EXPONENTS  0.1407000D+01 0.1407000D+01 0.1407000D+01 0.3880000D+00 0.3880000D+00
EXPONENTS  0.3880000D+00 0.1020000D+00 0.1020000D+00 0.1020000D+00 0.1057000D+01
EXPONENTS  0.1057000D+01 0.1057000D+01 0.1057000D+01 0.1057000D+01 0.1057000D+01
EXPONENTS  0.2470000D+00 0.2470000D+00 0.2470000D+00 0.2470000D+00 0.2470000D+00
EXPONENTS  0.2470000D+00 0.3387000D+02 0.5095000D+01 0.1159000D+01 0.3258000D+00
EXPONENTS  0.1027000D+00 0.2526000D-01 0.1407000D+01 0.1407000D+01 0.1407000D+01
EXPONENTS  0.3880000D+00 0.3880000D+00 0.3880000D+00 0.1020000D+00 0.1020000D+00
EXPONENTS  0.1020000D+00 0.1057000D+01 0.1057000D+01 0.1057000D+01 0.1057000D+01
EXPONENTS  0.1057000D+01 0.1057000D+01 0.2470000D+00 0.2470000D+00 0.2470000D+00
EXPONENTS  0.2470000D+00 0.2470000D+00 0.2470000D+00 0.4561000D+06 0.6833000D+05
EXPONENTS  0.1555000D+05 0.4405000D+04 0.1439000D+04 0.5204000D+03 0.2031000D+03
EXPONENTS  0.8396000D+02 0.3620000D+02 0.1583000D+02 0.6334000D+01 0.4405000D+04
EXPONENTS  0.1439000D+04 0.5204000D+03 0.2031000D+03 0.8396000D+02 0.3620000D+02
EXPONENTS  0.1583000D+02 0.6334000D+01 0.2694000D+01 0.1439000D+04 0.2031000D+03
EXPONENTS  0.8396000D+02 0.3620000D+02 0.1583000D+02 0.6334000D+01 0.2694000D+01
EXPONENTS  0.4313000D+00 0.9768000D+00 0.1625000D+00 0.5910000D-01 0.6633000D+03
EXPONENTS  0.1568000D+03 0.4998000D+02 0.1842000D+02 0.7240000D+01 0.2922000D+01
EXPONENTS  0.6633000D+03 0.1568000D+03 0.4998000D+02 0.1842000D+02 0.7240000D+01
EXPONENTS  0.2922000D+01 0.6633000D+03 0.1568000D+03 0.4998000D+02 0.1842000D+02
EXPONENTS  0.7240000D+01 0.2922000D+01 0.1568000D+03 0.4998000D+02 0.1842000D+02
EXPONENTS  0.7240000D+01 0.2922000D+01 0.3818000D+00 0.1568000D+03 0.4998000D+02
EXPONENTS  0.1842000D+02 0.7240000D+01 0.2922000D+01 0.3818000D+00 0.1568000D+03
EXPONENTS  0.4998000D+02 0.1842000D+02 0.7240000D+01 0.2922000D+01 0.3818000D+00
EXPONENTS  0.1022000D+01 0.1022000D+01 0.1022000D+01 0.1301000D+00 0.1301000D+00
EXPONENTS  0.1301000D+00 0.4190000D-01 0.4190000D-01 0.4190000D-01 0.1046000D+01
EXPONENTS  0.1046000D+01 0.1046000D+01 0.1046000D+01 0.1046000D+01 0.1046000D+01
EXPONENTS  0.3440000D+00 0.3440000D+00 0.3440000D+00 0.3440000D+00 0.3440000D+00
EXPONENTS  0.3440000D+00 0.1350000D+00 0.1350000D+00 0.1350000D+00 0.1350000D+00
EXPONENTS  0.1350000D+00 0.1350000D+00 0.7060000D+00 0.7060000D+00 0.7060000D+00
EXPONENTS  0.7060000D+00 0.7060000D+00 0.7060000D+00 0.7060000D+00 0.7060000D+00
EXPONENTS  0.7060000D+00 0.7060000D+00 0.3120000D+00 0.3120000D+00 0.3120000D+00
EXPONENTS  0.3120000D+00 0.3120000D+00 0.3120000D+00 0.3120000D+00 0.3120000D+00
EXPONENTS  0.3120000D+00 0.3120000D+00 0.1950000D+05 0.2923000D+04 0.6645000D+03
EXPONENTS  0.1875000D+03 0.6062000D+02 0.2142000D+02 0.7950000D+01 0.6645000D+03
EXPONENTS  0.1875000D+03 0.6062000D+02 0.2142000D+02 0.7950000D+01 0.8815000D+00
EXPONENTS  0.2257000D+01 0.3041000D+00 0.9158000D-01 0.4388000D+02 0.9926000D+01
EXPONENTS  0.2930000D+01 0.4388000D+02 0.9926000D+01 0.2930000D+01 0.4388000D+02
EXPONENTS  0.9926000D+01 0.2930000D+01 0.9132000D+00 0.9132000D+00 0.9132000D+00
EXPONENTS  0.2672000D+00 0.2672000D+00 0.2672000D+00 0.7361000D-01 0.7361000D-01
EXPONENTS  0.7361000D-01 0.3107000D+01 0.3107000D+01 0.3107000D+01 0.3107000D+01
EXPONENTS  0.3107000D+01 0.3107000D+01 0.8550000D+00 0.8550000D+00 0.8550000D+00
EXPONENTS  0.8550000D+00 0.8550000D+00 0.8550000D+00 0.2920000D+00 0.2920000D+00
EXPONENTS  0.2920000D+00 0.2920000D+00 0.2920000D+00 0.2920000D+00 0.1917000D+01
EXPONENTS  0.1917000D+01 0.1917000D+01 0.1917000D+01 0.1917000D+01 0.1917000D+01
EXPONENTS  0.1917000D+01 0.1917000D+01 0.1917000D+01 0.1917000D+01 0.7240000D+00
EXPONENTS  0.7240000D+00 0.7240000D+00 0.7240000D+00 0.7240000D+00 0.7240000D+00
EXPONENTS  0.7240000D+00 0.7240000D+00 0.7240000D+00 0.7240000D+00
MO    1     MO 0.0        OCC NO =    2.0000300  ORB. ENERGY =    0.000000
 -0.25192200D-05 -0.46963336D-05 -0.79374436D-05 -0.11931458D-04 -0.14655659D-04
 -0.12368859D-04 -0.46510142D-05  0.41598529D-08  0.31092323D-07  0.11619911D-06
  0.32417743D-06  0.43430838D-06 -0.51283721D-06 -0.83278793D-06  0.35649553D-05
  0.14874961D-05 -0.78927127D-04 -0.73999198D-04 -0.52691837D-04  0.78153144D-04
  0.73273541D-04  0.52175126D-04 -0.20381972D-05 -0.19109395D-05 -0.13607027D-05
 -0.25742986D-03  0.25489939D-03  0.10036022D-05 -0.32886356D-03  0.32563128D-03
 -0.14178264D-05 -0.65948170D-05  0.65287510D-05 -0.17268546D-07  0.45391508D-04
 -0.44774396D-04 -0.61711224D-06 -0.90826022D-04  0.36241216D-03 -0.35881391D-03
  0.13661301D-03 -0.13609975D-03 -0.51326534D-06 -0.27568297D-03 -0.70112408D-04
  0.69690622D-04  0.28782804D-04 -0.29098652D-04  0.31584759D-06 -0.58453047D-04
  0.46766736D-04 -0.46247429D-04 -0.65676881D-04  0.64921965D-04  0.46448188D-06
 -0.65803930D-04  0.65438424D-04  0.17367174D-04  0.26283457D-03 -0.26020432D-03
 -0.18760619D-04 -0.35914561D-04  0.19042175D-04 -0.18948650D-04 -0.30304467D-06
  0.18646859D-04 -0.18229848D-04  0.35894393D-04 -0.75773386D-04  0.75075797D-04
 -0.34985259D-04 -0.71797999D-04 -0.28070535D-04 -0.50626365D-04 -0.74648546D-04
  0.25526073D-03  0.79094544D-03 -0.86807269D-05 -0.32365523D-05  0.49948756D-04
  0.16827440D-04 -0.58877896D-04  0.20173872D-03  0.19068300D-03 -0.53749693D-04
  0.12141532D-03  0.15795571D-04 -0.76924875D-04  0.29542298D-04  0.47382577D-04
 -0.21586783D-04  0.33551544D-04  0.21018846D-03 -0.30543001D-04 -0.82930457D-05
  0.38836046D-04 -0.20588389D-04 -0.43376653D-04  0.21758054D-04  0.38743776D-04
  0.69875995D-04  0.10303211D-03 -0.35661461D-03 -0.10875400D-02  0.11781540D-04
 -0.59433960D-04  0.35694381D-04 -0.22859424D-04 -0.23101546D-03  0.15728342D-03
 -0.26361536D-03 -0.13484584D-03  0.10007276D-03 -0.22026748D-04 -0.77558384D-06
  0.66383976D-04 -0.65608392D-04  0.13135939D-03 -0.25603588D-03  0.13390901D-03
  0.22478136D-04  0.31337131D-04 -0.53815266D-04  0.30051470D-04 -0.18667045D-04
  0.28516301D-04 -0.10482415D-04 -0.18905467D-04 -0.27876100D-04  0.94202405D-04
  0.29640257D-03 -0.32894618D-05 -0.18200459D-04 -0.55814724D-05  0.64055387D-05
 -0.10561068D-03  0.32590799D-04  0.71123285D-04 -0.75884272D-04  0.40416947D-04
  0.58623014D-05  0.13989454D-04 -0.31747075D-04  0.17757622D-04  0.19290479D-04
 -0.45466206D-04 -0.78856812D-04  0.69402053D-05 -0.21373937D-04  0.14433731D-04
 -0.67266657D-05 -0.36480232D-04  0.47277778D-04 -0.31081549D-04 -0.58150261D-04
 -0.10047075D-03 -0.16287489D-03 -0.24734116D-03 -0.34378094D-03 -0.40872919D-03
 -0.36411017D-03 -0.18082481D-03 -0.29111264D-04 -0.30714103D-06 -0.14600843D-06
 -0.48705969D-05 -0.16973055D-04 -0.61122719D-04 -0.13473743D-03 -0.18966681D-03
  0.90477251D-05  0.24821196D-03  0.14676618D-03 -0.26786620D-08 -0.32445139D-07
 -0.67660916D-07 -0.19403973D-06 -0.10076213D-07  0.83679341D-06  0.21621135D-05
 -0.17615883D-05  0.88623588D-05 -0.95106389D-06 -0.25059184D-06 -0.82502106D+01
 -0.10867457D+02 -0.11988507D+02 -0.99573934D+01 -0.52876522D+01 -0.13642419D+01
  0.81696580D+01  0.10761351D+02  0.11871454D+02  0.98601723D+01  0.52360251D+01
  0.13509218D+01 -0.65760232D-02 -0.86621608D-02 -0.95557193D-02 -0.79367731D-02
 -0.42146468D-02 -0.10874009D-02  0.32651068D-03 -0.31564952D-02 -0.44509877D-02
 -0.63660898D-02  0.32236983D-04  0.58383048D-02 -0.32332200D-03  0.31256691D-02
  0.44075196D-02  0.63039190D-02 -0.31922159D-04 -0.57812883D-02  0.23710699D-06
 -0.22921978D-05 -0.32322382D-05 -0.46229557D-05  0.23409997D-07  0.42396864D-05
 -0.54466507D-01  0.53934696D-01 -0.43345728D-04  0.45740446D-03 -0.45294451D-03
  0.33218681D-06  0.41186228D-04 -0.40784234D-04  0.57510679D-07  0.84600064D-05
 -0.91507696D-05  0.69076329D-06 -0.17193007D-04  0.69673410D-03 -0.68989666D-03
 -0.31169316D-05  0.31443847D-05 -0.27453052D-07  0.61065837D-05 -0.25290660D-03
  0.25041859D-03  0.88838696D-06 -0.95188955D-06  0.63502594D-07 -0.18207969D-05
  0.43349861D-04 -0.42922224D-04 -0.16656961D-05  0.16594674D-05 -0.57066364D-07
 -0.16876568D-05  0.15968139D-05  0.24796439D-04  0.66847450D-05 -0.65752161D-05
 -0.24625240D-04 -0.49927301D-04 -0.10410475D-04  0.10302644D-04 -0.34194093D-08
 -0.10404805D-04  0.10327140D-04 -0.50167756D-05  0.41636230D-04 -0.41235072D-04
  0.50270338D-05  0.10240081D-04  0.39429611D-05  0.73496862D-05  0.12459356D-04
  0.18865149D-04  0.23585592D-04  0.20287838D-04  0.77808226D-05 -0.70987965D-08
 -0.93974773D-07 -0.34133347D-06 -0.10125593D-05 -0.11667701D-05  0.14172161D-05
  0.15118998D-06 -0.24023711D-05 -0.27169572D-05  0.20688895D-03  0.20233288D-03
  0.13368989D-03 -0.20490241D-03 -0.20039008D-03 -0.13240620D-03 -0.48088508D-05
 -0.47029511D-05 -0.31074386D-05  0.69364992D-05 -0.68861583D-05  0.65157414D-06
  0.46782321D-04 -0.46327097D-04 -0.29694414D-05  0.13878054D-04 -0.13744558D-04
 -0.38112683D-06  0.49687916D-04 -0.50430375D-04  0.74245881D-06 -0.10109022D-03
  0.93513452D-04 -0.92495804D-04 -0.25135549D-04  0.25271596D-04 -0.13604715D-06
  0.50870195D-04 -0.71948627D-04  0.71192735D-04  0.13170892D-04 -0.12526954D-04
 -0.64393802D-06 -0.25916802D-04  0.51967114D-04 -0.51432270D-04  0.49193047D-04
 -0.49403175D-04  0.11782159D-05  0.51973108D-04 -0.49092526D-04 -0.13645322D-03
 -0.19955225D-03  0.19730205D-03  0.13291857D-03  0.27170907D-03 -0.17502088D-04
  0.17540700D-04 -0.54932319D-06 -0.18359879D-04  0.17458185D-04  0.43660926D-04
  0.70866144D-04 -0.70080283D-04 -0.42012956D-04 -0.86397369D-04
MO    2     MO 0.0        OCC NO =    2.0000300  ORB. ENERGY =    0.000000
  0.24529063D-05  0.45727115D-05  0.77285053D-05  0.11617385D-04  0.14269877D-04
  0.12043273D-04  0.45285850D-05 -0.41300390D-08 -0.30869483D-07 -0.11536631D-06
 -0.32185403D-06 -0.43119566D-06  0.50916168D-06  0.81934847D-06 -0.35325683D-05
 -0.14798562D-05  0.78134674D-04  0.73256224D-04  0.52162795D-04  0.78903356D-04
  0.73976912D-04  0.52675968D-04  0.19575917D-05  0.18353666D-05  0.13068904D-05
  0.25609452D-03  0.25860160D-03 -0.12311537D-05  0.32682440D-03  0.33002634D-03
  0.11421696D-05  0.66119183D-05  0.66754282D-05  0.11741211D-07  0.45630337D-04
 -0.46562978D-04  0.93264087D-06  0.90928404D-04 -0.35855413D-03 -0.36202612D-03
  0.13790595D-03 -0.13835327D-03  0.44731413D-06  0.27342222D-03  0.68026858D-04
  0.68964690D-04  0.29342408D-04 -0.29070734D-04 -0.27167424D-06  0.57754944D-04
 -0.46856785D-04 -0.47256335D-04  0.65491377D-04  0.66220821D-04 -0.23351538D-06
  0.65396868D-04  0.65729022D-04  0.17829915D-04 -0.26187100D-03 -0.26439149D-03
 -0.17129369D-04  0.33996639D-04 -0.18871176D-04 -0.18992117D-04  0.23534923D-06
 -0.19206521D-04 -0.19635234D-04  0.35414968D-04  0.75820050D-04  0.76611586D-04
 -0.36121016D-04  0.70947895D-04 -0.28631823D-04 -0.51638673D-04 -0.76141193D-04
  0.26440141D-03  0.80026872D-03 -0.84569513D-05  0.31681758D-05  0.51561595D-04
  0.17267564D-04  0.59148809D-04  0.20632922D-03  0.19231421D-03  0.53033553D-04
  0.12256497D-03  0.15622885D-04 -0.79102897D-04  0.30787378D-04  0.48315519D-04
  0.21528686D-04 -0.32722274D-04  0.21087040D-03 -0.30980545D-04 -0.86748286D-05
  0.39655373D-04  0.20434698D-04  0.43271252D-04  0.22399440D-04 -0.10274649D-04
 -0.18530752D-04 -0.27323584D-04  0.96026564D-04  0.28602468D-03 -0.29786347D-05
  0.18357254D-04 -0.54224311D-05  0.60952143D-05  0.10432096D-03  0.32432045D-04
  0.69069556D-04  0.74387248D-04  0.41272802D-04  0.56322854D-05  0.13770805D-04
 -0.31183712D-04  0.17412907D-04 -0.19744826D-04  0.42721890D-04 -0.76495478D-04
  0.70108495D-05 -0.21269688D-04  0.14258838D-04  0.71810198D-05  0.36676334D-04
  0.47234732D-04  0.38713539D-04  0.69821463D-04  0.10295171D-03 -0.35334051D-03
 -0.10861036D-02  0.11623376D-04  0.59480174D-04  0.35644877D-04 -0.23812890D-04
  0.22996419D-03  0.15852371D-03 -0.25993742D-03  0.13422556D-03  0.10039617D-03
 -0.21113403D-04 -0.72550549D-06  0.66210249D-04 -0.65484743D-04 -0.13208421D-03
  0.25426181D-03  0.13239580D-03  0.22435737D-04  0.31032870D-04 -0.53468607D-04
 -0.30123266D-04  0.17641159D-04  0.28908334D-04  0.30973126D-04  0.57947413D-04
  0.10012028D-03  0.16230673D-03  0.24647835D-03  0.34258171D-03  0.40730341D-03
  0.36284003D-03  0.18019403D-03  0.29009714D-04  0.30606962D-06  0.14549400D-06
  0.48534363D-05  0.16913254D-04  0.60907366D-04  0.13426271D-03  0.18899856D-03
 -0.90158473D-05 -0.24733744D-03 -0.14624908D-03  0.26761471D-08  0.32414676D-07
  0.67597390D-07  0.19385755D-06  0.10066752D-07 -0.83600776D-06 -0.21600835D-05
  0.17599344D-05 -0.88317051D-05  0.93255034D-06  0.24594893D-06  0.81696566D+01
  0.10761349D+02  0.11871452D+02  0.98601706D+01  0.52360242D+01  0.13509216D+01
  0.82502092D+01  0.10867456D+02  0.11988505D+02  0.99573918D+01  0.52876513D+01
  0.13642417D+01 -0.60488330D-03 -0.79677281D-03 -0.87896513D-03 -0.73004936D-03
 -0.38767647D-03 -0.10002256D-03 -0.32334861D-03  0.31259264D-02  0.44078825D-02
  0.63044380D-02 -0.31924786D-04 -0.57817642D-02 -0.32653607D-03  0.31567406D-02
  0.44513338D-02  0.63665849D-02 -0.32239490D-04 -0.58387588D-02  0.47199952D-07
 -0.45629877D-06 -0.64342889D-06 -0.92027352D-06  0.46601356D-08  0.84397762D-06
  0.53935658D-01  0.54467445D-01 -0.40651857D-05 -0.45270488D-03 -0.45717456D-03
  0.69902426D-07 -0.40779131D-04 -0.41181371D-04 -0.21464506D-07  0.90787256D-05
 -0.89946319D-05 -0.84093703D-07  0.17283962D-04 -0.69068457D-03 -0.69746016D-03
 -0.30357309D-05  0.32277653D-05 -0.19203442D-06 -0.59781226D-05  0.25103589D-03
  0.25349196D-03  0.89446982D-06 -0.86883251D-06 -0.25637310D-07  0.17060373D-05
 -0.43022650D-04 -0.43442626D-04  0.16634564D-05  0.16484901D-05  0.63082485D-07
  0.16844206D-05  0.17504935D-05  0.24669798D-04 -0.66747898D-05 -0.66959637D-05
 -0.24859045D-04  0.48988276D-04  0.10347209D-04  0.10457754D-04  0.39062592D-07
  0.10344146D-04  0.10425775D-04 -0.50863415D-05 -0.41385774D-04 -0.41799036D-04
  0.49691537D-05 -0.10038654D-04 -0.39196767D-05 -0.73062840D-05 -0.12385779D-04
 -0.18753745D-04 -0.23446311D-04 -0.20168032D-04 -0.77348745D-05  0.71458313D-08
  0.94597427D-07  0.34359507D-06  0.10192683D-05  0.11745008D-05 -0.14266062D-05
 -0.14951252D-06  0.24159901D-05  0.27081658D-05 -0.20471179D-03 -0.20020366D-03
 -0.13228302D-03 -0.20675951D-03 -0.20220628D-03 -0.13360624D-03  0.49400578D-05
  0.48312686D-05  0.31922234D-05 -0.52027503D-05 -0.52721309D-05 -0.65399397D-06
 -0.47620168D-04 -0.48088724D-04  0.30204244D-05 -0.13773529D-04 -0.13911011D-04
  0.39171384D-06  0.50515082D-04 -0.49846731D-04 -0.66835064D-06  0.99213669D-04
 -0.93600413D-04 -0.94419913D-04 -0.25127910D-04  0.25051887D-04  0.76023367D-07
 -0.49579138D-04  0.72039938D-04  0.72697129D-04  0.12265557D-04 -0.12962409D-04
  0.69685266D-06  0.24907675D-04 -0.52786909D-04 -0.53278657D-04 -0.51858266D-04
 -0.51535298D-04 -0.13900237D-05 -0.49342402D-04 -0.52028768D-04 -0.12978319D-03
  0.20491720D-03  0.20663466D-03  0.13395326D-03 -0.26042902D-03  0.18385533D-04
  0.18312970D-04  0.62523572D-06  0.17612676D-04  0.18452959D-04  0.40848099D-04
 -0.72769275D-04 -0.73391869D-04 -0.42723806D-04  0.82502836D-04
MO    3     MO 0.0        OCC NO =    2.0000210  ORB. ENERGY =    0.000000
 -0.14454689D-01 -0.26946453D-01 -0.45543177D-01 -0.68459889D-01 -0.84090712D-01
 -0.70969594D-01 -0.26686421D-01 -0.38142871D-05 -0.28509433D-04 -0.10654626D-03
 -0.29724748D-03 -0.39822967D-03  0.47023498D-03 -0.87197314D-03 -0.19345584D-02
 -0.82091206D-04  0.14242060D-06  0.13352836D-06  0.95080150D-07  0.50715132D-06
  0.47548660D-06  0.33857478D-06  0.11672483D-02  0.10943695D-02  0.77925628D-03
  0.33405576D-06  0.26541634D-06  0.60719107D-03 -0.92107105D-06 -0.16815927D-06
 -0.37921761D-03  0.67902174D-08  0.18528616D-08  0.46684895D-05 -0.10555818D-03
 -0.10555958D-03  0.21111776D-03  0.62387804D-07 -0.38045385D-06  0.27142933D-06
 -0.24079338D-04 -0.24080297D-04  0.48159635D-04 -0.39325297D-06  0.13108769D-05
  0.66876398D-07  0.11426008D-04  0.11426898D-04 -0.22852906D-04 -0.10459816D-06
 -0.30260666D-07 -0.30377592D-07 -0.97622746D-07  0.36270321D-04  0.77207178D-05
 -0.42030530D-07 -0.10882983D-03 -0.11534378D-04  0.33489877D-06  0.18865724D-07
 -0.11627776D-04  0.51906442D-06  0.14091816D-06  0.51881418D-04 -0.85669603D-04
  0.22018805D-06 -0.15541930D-03  0.12857242D-03 -0.64294253D-06 -0.22495271D-06
  0.12843638D-03  0.43312213D-06 -0.48283247D-05 -0.87080825D-05 -0.12840063D-04
  0.75279595D-03  0.23596730D-03  0.50650263D-05  0.76395448D-07  0.95868175D-04
  0.28429559D-04 -0.28167693D-06  0.19934799D-03 -0.42491776D-05 -0.13187709D-06
  0.44037691D-04  0.38734973D-04 -0.73923537D-04  0.54244323D-04  0.19679214D-04
  0.13717836D-07 -0.24664114D-06  0.76007815D-04 -0.96546199D-05 -0.12044956D-04
  0.21699576D-04 -0.12176739D-06  0.10831651D-06 -0.34559194D-04 -0.48547781D-05
 -0.87557922D-05 -0.12910410D-04  0.75244995D-03  0.23440291D-03  0.50502125D-05
  0.82903301D-04 -0.47828158D-04  0.28561885D-04  0.17226537D-03 -0.99667059D-04
 -0.34963536D-05  0.37853898D-04 -0.21924806D-04  0.38779915D-04  0.22138538D-04
 -0.41808138D-04  0.19669600D-04 -0.11078616D-03  0.66224099D-04 -0.38312398D-04
 -0.11489197D-04 -0.10196482D-04  0.21685679D-04  0.20927702D-05 -0.29758145D-04
  0.17278440D-04 -0.48013077D-05 -0.86593561D-05 -0.12768216D-04  0.75314959D-03
  0.23754647D-03  0.50809642D-05 -0.83127045D-04 -0.48003386D-04  0.28424013D-04
 -0.17301672D-03 -0.99688193D-04 -0.47589050D-05 -0.38392004D-04 -0.22063816D-04
  0.38749897D-04  0.22212711D-04 -0.42008688D-04  0.19795976D-04  0.11109479D-03
 -0.65564523D-04 -0.37612965D-04 -0.11382133D-04 -0.10284286D-04  0.21666419D-04
 -0.19950280D-05  0.30154787D-04  0.17367300D-04 -0.15460237D+00 -0.28924454D+00
 -0.49975042D+00 -0.81015414D+00 -0.12302968D+01 -0.17099968D+01 -0.20330552D+01
 -0.18111162D+01 -0.89943860D+00 -0.14480201D+00 -0.15277467D-02 -0.72284101D-03
 -0.24112766D-01 -0.84028162D-01 -0.30259902D+00 -0.66704188D+00 -0.93897968D+00
  0.44792391D-01  0.12288180D+01  0.72659237D+00 -0.15531715D-04 -0.18812700D-03
 -0.39231902D-03 -0.11251027D-02 -0.58425014D-04  0.48519883D-02  0.12536606D-01
 -0.10214236D-01  0.46599973D-01 -0.38429535D-03 -0.13194678D-03  0.25006679D-03
  0.32939645D-03  0.36337585D-03  0.30181210D-03  0.16027060D-03  0.41350652D-04
  0.25952768D-02  0.34185867D-02  0.37712362D-02  0.31323069D-02  0.16633419D-02
  0.42915091D-03  0.59414148D+01  0.78262332D+01  0.86335604D+01  0.71708479D+01
  0.38079192D+01  0.98246306D+00 -0.18551796D-07  0.17934682D-06  0.25289774D-06
  0.36171067D-06 -0.18316519D-08 -0.33172280D-06 -0.92081249D-07  0.89018227D-06
  0.12552499D-05  0.17953394D-05 -0.90913462D-08 -0.16464956D-05 -0.21079736D-03
  0.20378533D-02  0.28735858D-02  0.41099879D-02 -0.20812400D-04 -0.37692466D-02
  0.14079919D-05  0.18193125D-04  0.41654134D-01  0.78073803D-07 -0.21054237D-06
 -0.48396112D-03 -0.54731744D-08 -0.43071338D-08 -0.98426354D-05 -0.71311546D-05
 -0.71306639D-05  0.14261818D-04  0.14259981D-06 -0.12484278D-06  0.19365288D-07
 -0.11142244D-03 -0.11142260D-03  0.22284504D-03 -0.43999426D-07 -0.11374570D-06
  0.29067420D-06 -0.14325480D-04 -0.14325386D-04  0.28650866D-04 -0.17401006D-08
 -0.10325689D-06  0.37048466D-07  0.79201622D-07 -0.72133684D-05  0.54462361D-05
  0.68124518D-07  0.21626881D-04 -0.81789957D-05 -0.30572938D-06  0.13223904D-07
 -0.81597124D-05 -0.16791700D-06 -0.48703022D-07  0.20731508D-05 -0.33741232D-04
 -0.45532505D-07 -0.61318734D-05  0.50614661D-04  0.19164157D-06 -0.87579052D-07
  0.50609034D-04  0.91194444D-07 -0.87946300D-03 -0.16393205D-02 -0.27790135D-02
 -0.42078023D-02 -0.52606797D-02 -0.45251279D-02 -0.17354839D-02 -0.68421368D-06
 -0.90577080D-05 -0.32899243D-04 -0.97594986D-04 -0.11245851D-03  0.13659761D-03
 -0.95964032D-04 -0.15938759D-03  0.12435395D-04  0.22761171D-04  0.22259928D-04
  0.14708076D-04  0.17931106D-05  0.17536230D-05  0.11586928D-05  0.39018075D-02
  0.38158825D-02  0.25213149D-02  0.58955131D-05  0.40391739D-06  0.87917923D-03
 -0.34069276D-06  0.91188863D-08  0.21397863D-04  0.10703037D-06  0.47920951D-08
  0.93385767D-05 -0.35637863D-04 -0.35639994D-04  0.71277857D-04 -0.75569063D-06
  0.12348600D-05  0.10841416D-06  0.21092507D-04  0.21092748D-04 -0.42185255D-04
  0.33383109D-06 -0.49748583D-06 -0.61948989D-07  0.18113133D-04  0.18117762D-04
 -0.36230895D-04 -0.67998124D-07 -0.11602105D-05 -0.50690649D-07 -0.13147290D-05
 -0.30062863D-05  0.46404859D-04 -0.13200485D-05  0.88675604D-05 -0.69581648D-04
  0.52642356D-05  0.15129834D-06 -0.69632929D-04 -0.13859940D-05  0.54871450D-06
  0.95516181D-06 -0.25387081D-04  0.55040975D-06 -0.27871959D-05  0.38070135D-04
 -0.21965532D-05 -0.78289560D-07  0.38091108D-04  0.45261326D-06
MO    4     MO 0.0        OCC NO =    2.0000123  ORB. ENERGY =    0.000000
  0.26825065D-01  0.50007325D-01  0.84519192D-01  0.12704811D+00  0.15605585D+00
  0.13170563D+00  0.49524756D-01 -0.14574056D-05 -0.10893204D-04 -0.40710390D-04
 -0.11357565D-03 -0.15216006D-03  0.17967266D-03  0.26462199D-02 -0.36110773D-02
 -0.42308083D-04  0.41384767D-05  0.38800850D-05  0.27628516D-05  0.15992300D-05
  0.14993798D-05  0.10676477D-05  0.36697323D-02  0.34406073D-02  0.24499174D-02
 -0.11375360D-05  0.57144765D-06  0.13052333D-02 -0.10009246D-05 -0.18164881D-06
 -0.41705192D-03 -0.19125352D-07  0.14047875D-08  0.37027682D-05 -0.31918209D-03
 -0.31919301D-03  0.63837511D-03 -0.44650521D-07  0.53295111D-06  0.83653591D-06
  0.95947635D-05  0.95973837D-05 -0.19192147D-04 -0.13952402D-05  0.14177123D-05
 -0.30738200D-07 -0.17856514D-04 -0.17855910D-04  0.35712424D-04 -0.52171346D-07
  0.45899963D-06  0.47897233D-07 -0.22596351D-06 -0.42204368D-04  0.22565504D-04
 -0.29033021D-06  0.12655942D-03 -0.33907451D-04  0.96822075D-06  0.53684893D-07
 -0.33789060D-04  0.72747503D-07  0.14313626D-06  0.82087247D-04 -0.16373334D-03
  0.26854928D-06 -0.24583632D-03  0.24570736D-03 -0.69795806D-06 -0.42542448D-06
  0.24549267D-03  0.72571240D-06 -0.90319042D-04 -0.16289411D-03 -0.24018727D-03
  0.10231143D-02  0.68432389D-03  0.42693467D-05  0.11946061D-06 -0.57754148D-04
  0.33549576D-04 -0.46766840D-06  0.30467948D-03 -0.43219776D-04 -0.29532742D-07
  0.11106007D-03  0.75812586D-04 -0.14239674D-03  0.24269459D-04  0.11812728D-03
  0.76964470D-07  0.18189687D-06  0.14267030D-03 -0.14796902D-04 -0.21044083D-04
  0.35840985D-04 -0.18130560D-06  0.43046824D-07 -0.62802011D-04 -0.90385642D-04
 -0.16301423D-03 -0.24036438D-03  0.10206617D-02  0.68345045D-03  0.41672184D-05
 -0.50398848D-04  0.29194292D-04  0.33405580D-04  0.26266074D-03 -0.15200658D-03
 -0.42410065D-04  0.96011431D-04 -0.55442277D-04  0.75834788D-04 -0.17422120D-04
 -0.10043441D-03  0.11785653D-03 -0.14373088D-03  0.12401104D-03 -0.71295006D-04
 -0.19612560D-04 -0.16353160D-04  0.35965719D-04  0.54202177D-05 -0.54482871D-04
  0.31538731D-04 -0.90249337D-04 -0.16276840D-03 -0.24000190D-03  0.10255746D-02
  0.68519855D-03  0.43728043D-05  0.49655454D-04  0.28601792D-04  0.33625334D-04
 -0.26507619D-03 -0.15272724D-03 -0.43628916D-04 -0.96289420D-04 -0.55519701D-04
  0.75937080D-04 -0.17479256D-04 -0.10112164D-03  0.11860090D-03  0.14472232D-03
 -0.12309618D-03 -0.70912569D-04 -0.19311263D-04 -0.16321004D-04  0.35632268D-04
 -0.53073537D-05  0.54377458D-04  0.31400320D-04  0.91314038D-01  0.17083882D+00
  0.29517159D+00  0.47850783D+00  0.72666006D+00  0.10099891D+01  0.12007997D+01
  0.10697141D+01  0.53124262D+00  0.85525568D-01  0.90234526D-03  0.42753103D-03
  0.14261720D-01  0.49699237D-01  0.17897500D+00  0.39452812D+00  0.55536826D+00
 -0.26492876D-01 -0.72679581D+00 -0.42974981D+00  0.62779279D-05  0.76041038D-04
  0.15857557D-03  0.45476712D-03  0.23615423D-04 -0.19611764D-02 -0.50673031D-02
  0.41286001D-02 -0.28545185D-01  0.14183059D-02 -0.18170577D-03 -0.50712119D-02
 -0.66799724D-02 -0.73690552D-02 -0.61205773D-02 -0.32501964D-02 -0.83856766D-03
  0.43137632D-02  0.56822353D-02  0.62683950D-02  0.52063928D-02  0.27647391D-02
  0.71331713D-03  0.99146388D+01  0.13059899D+02  0.14407113D+02  0.11966235D+02
  0.63544028D+01  0.16394691D+01  0.15043393D-06 -0.14542984D-05 -0.20507126D-05
 -0.29330615D-05  0.14852610D-07  0.26898940D-05 -0.14652475D-06  0.14165070D-05
  0.19974228D-05  0.28568429D-05 -0.14466650D-07 -0.26199944D-05 -0.33686737D-03
  0.32566169D-02  0.45921698D-02  0.65680176D-02 -0.33259517D-04 -0.60234916D-02
 -0.36437267D-04  0.31568798D-04  0.72557384D-01 -0.15154531D-06 -0.13562270D-06
 -0.30643793D-03 -0.96869815D-08 -0.17498796D-08 -0.39587214D-05  0.45444822D-03
  0.45444824D-03 -0.90889646D-03  0.16988916D-06  0.10281278D-05 -0.11874256D-05
 -0.30966969D-03 -0.30966976D-03  0.61933945D-03 -0.59096932D-07 -0.44703657D-06
  0.80946255D-06  0.43301472D-05  0.43302470D-05 -0.86603941D-05  0.12945450D-07
  0.88479544D-07 -0.10309048D-07  0.77194333D-07 -0.14494807D-04 -0.46949254D-04
  0.55042574D-07  0.43605511D-04  0.70404734D-04 -0.28662557D-06 -0.12109117D-06
  0.70443026D-04  0.37215913D-07 -0.38619201D-07  0.42138100D-05 -0.62583138D-04
 -0.32240628D-07 -0.12476898D-04  0.93880271D-04  0.14809823D-06 -0.16453178D-06
  0.93869142D-04  0.23009692D-07 -0.63570356D-02 -0.11849525D-01 -0.20087585D-01