 title line
GAUSSIAN            211 MOL ORBITALS    339 PRIMITIVES        6 NUCLEI
  C    1    (CENTRE  1)   0.00033070  0.00005480 -0.94053370  CHARGE =  6.0
  H    2    (CENTRE  2)   0.00003590 -1.98906904 -1.17300214  CHARGE =  1.0
  H    3    (CENTRE  3)  -1.72213010  0.97578843 -1.17398291  CHARGE =  1.0
  H    4    (CENTRE  4)   1.72295780  0.99424539 -1.17459707  CHARGE =  1.0
  Cl   5    (CENTRE  5)   0.00104880  0.00181792  3.10806659  CHARGE = 17.0
  F    6    (CENTRE  6)  -0.00035149 -0.00174044 -4.90092914  CHARGE =  9.0
CENTRE ASSIGNMENTS    1  1  1  1  1  1  1  1  1  1  1  1  1  1  1  1  1  1  1  1
CENTRE ASSIGNMENTS    1  1  1  1  1  1  1  1  1  1  1  1  1  1  1  1  1  1  1  1
CENTRE ASSIGNMENTS    1  1  1  1  1  1  1  1  1  1  1  1  1  1  1  1  1  1  1  1
CENTRE ASSIGNMENTS    1  1  1  1  1  1  1  1  1  1  1  1  2  2  2  2  2  2  2  2
CENTRE ASSIGNMENTS    2  2  2  2  2  2  2  2  2  2  2  2  2  2  2  2  2  2  2  3
CENTRE ASSIGNMENTS    3  3  3  3  3  3  3  3  3  3  3  3  3  3  3  3  3  3  3  3
CENTRE ASSIGNMENTS    3  3  3  3  3  3  4  4  4  4  4  4  4  4  4  4  4  4  4  4
CENTRE ASSIGNMENTS    4  4  4  4  4  4  4  4  4  4  4  4  4  5  5  5  5  5  5  5
CENTRE ASSIGNMENTS    5  5  5  5  5  5  5  5  5  5  5  5  5  5  5  5  5  5  5  5
CENTRE ASSIGNMENTS    5  5  5  5  5  5  5  5  5  5  5  5  5  5  5  5  5  5  5  5
CENTRE ASSIGNMENTS    5  5  5  5  5  5  5  5  5  5  5  5  5  5  5  5  5  5  5  5
CENTRE ASSIGNMENTS    5  5  5  5  5  5  5  5  5  5  5  5  5  5  5  5  5  5  5  5
CENTRE ASSIGNMENTS    5  5  5  5  5  5  5  5  5  5  5  5  5  5  5  5  5  5  5  5
CENTRE ASSIGNMENTS    5  5  5  5  5  5  5  6  6  6  6  6  6  6  6  6  6  6  6  6
CENTRE ASSIGNMENTS    6  6  6  6  6  6  6  6  6  6  6  6  6  6  6  6  6  6  6  6
CENTRE ASSIGNMENTS    6  6  6  6  6  6  6  6  6  6  6  6  6  6  6  6  6  6  6  6
CENTRE ASSIGNMENTS    6  6  6  6  6  6  6  6  6  6  6  6  6  6  6  6  6  6  6
TYPE ASSIGNMENTS      1  1  1  1  1  1  1  1  1  1  1  1  1  1  1  1  2  2  2  3
TYPE ASSIGNMENTS      3  3  4  4  4  2  3  4  2  3  4  2  3  4  5  6  7  8  9 10
TYPE ASSIGNMENTS      5  6  7  8  9 10  5  6  7  8  9 10 11 12 13 17 14 15 18 19
TYPE ASSIGNMENTS     16 20 11 12 13 17 14 15 18 19 16 20  1  1  1  1  1  1  2  3
TYPE ASSIGNMENTS      4  2  3  4  2  3  4  5  6  7  8  9 10  5  6  7  8  9 10  1
TYPE ASSIGNMENTS      1  1  1  1  1  2  3  4  2  3  4  2  3  4  5  6  7  8  9 10
TYPE ASSIGNMENTS      5  6  7  8  9 10  1  1  1  1  1  1  2  3  4  2  3  4  2  3
TYPE ASSIGNMENTS      4  5  6  7  8  9 10  5  6  7  8  9 10  1  1  1  1  1  1  1
TYPE ASSIGNMENTS      1  1  1  1  1  1  1  1  1  1  1  1  1  1  1  1  1  1  1  1
TYPE ASSIGNMENTS      1  1  1  1  2  2  2  2  2  2  3  3  3  3  3  3  4  4  4  4
TYPE ASSIGNMENTS      4  4  2  2  2  2  2  2  3  3  3  3  3  3  4  4  4  4  4  4
TYPE ASSIGNMENTS      2  3  4  2  3  4  2  3  4  5  6  7  8  9 10  5  6  7  8  9
TYPE ASSIGNMENTS     10  5  6  7  8  9 10 11 12 13 17 14 15 18 19 16 20 11 12 13
TYPE ASSIGNMENTS     17 14 15 18 19 16 20  1  1  1  1  1  1  1  1  1  1  1  1  1
TYPE ASSIGNMENTS      1  1  1  2  2  2  3  3  3  4  4  4  2  3  4  2  3  4  2  3
TYPE ASSIGNMENTS      4  5  6  7  8  9 10  5  6  7  8  9 10  5  6  7  8  9 10 11
TYPE ASSIGNMENTS     12 13 17 14 15 18 19 16 20 11 12 13 17 14 15 18 19 16 20
EXPONENTS  0.8236000D+04 0.1235000D+04 0.2808000D+03 0.7927000D+02 0.2559000D+02
EXPONENTS  0.8997000D+01 0.3319000D+01 0.2808000D+03 0.7927000D+02 0.2559000D+02
EXPONENTS  0.8997000D+01 0.3319000D+01 0.3643000D+00 0.9059000D+00 0.1285000D+00
EXPONENTS  0.4402000D-01 0.1871000D+02 0.4133000D+01 0.1200000D+01 0.1871000D+02
EXPONENTS  0.4133000D+01 0.1200000D+01 0.1871000D+02 0.4133000D+01 0.1200000D+01
EXPONENTS  0.3827000D+00 0.3827000D+00 0.3827000D+00 0.1209000D+00 0.1209000D+00
EXPONENTS  0.1209000D+00 0.3569000D-01 0.3569000D-01 0.3569000D-01 0.1097000D+01
EXPONENTS  0.1097000D+01 0.1097000D+01 0.1097000D+01 0.1097000D+01 0.1097000D+01
EXPONENTS  0.3180000D+00 0.3180000D+00 0.3180000D+00 0.3180000D+00 0.3180000D+00
EXPONENTS  0.3180000D+00 0.1000000D+00 0.1000000D+00 0.1000000D+00 0.1000000D+00
EXPONENTS  0.1000000D+00 0.1000000D+00 0.7610000D+00 0.7610000D+00 0.7610000D+00
EXPONENTS  0.7610000D+00 0.7610000D+00 0.7610000D+00 0.7610000D+00 0.7610000D+00
EXPONENTS  0.7610000D+00 0.7610000D+00 0.2680000D+00 0.2680000D+00 0.2680000D+00
EXPONENTS  0.2680000D+00 0.2680000D+00 0.2680000D+00 0.2680000D+00 0.2680000D+00
EXPONENTS  0.2680000D+00 0.2680000D+00 0.3387000D+02 0.5095000D+01 0.1159000D+01
EXPONENTS  0.3258000D+00 0.1027000D+00 0.2526000D-01 0.1407000D+01 0.1407000D+01
EXPONENTS  0.1407000D+01 0.3880000D+00 0.3880000D+00 0.3880000D+00 0.1020000D+00
EXPONENTS  0.1020000D+00 0.1020000D+00 0.1057000D+01 0.1057000D+01 0.1057000D+01
EXPONENTS  0.1057000D+01 0.1057000D+01 0.1057000D+01 0.2470000D+00 0.2470000D+00
EXPONENTS  0.2470000D+00 0.2470000D+00 0.2470000D+00 0.2470000D+00 0.3387000D+02
EXPONENTS  0.5095000D+01 0.1159000D+01 0.3258000D+00 0.1027000D+00 0.2526000D-01
EXPONENTS  0.1407000D+01 0.1407000D+01 0.1407000D+01 0.3880000D+00 0.3880000D+00
EXPONENTS  0.3880000D+00 0.1020000D+00 0.1020000D+00 0.1020000D+00 0.1057000D+01
EXPONENTS  0.1057000D+01 0.1057000D+01 0.1057000D+01 0.1057000D+01 0.1057000D+01
EXPONENTS  0.2470000D+00 0.2470000D+00 0.2470000D+00 0.2470000D+00 0.2470000D+00
EXPONENTS  0.2470000D+00 0.3387000D+02 0.5095000D+01 0.1159000D+01 0.3258000D+00
EXPONENTS  0.1027000D+00 0.2526000D-01 0.1407000D+01 0.1407000D+01 0.1407000D+01
EXPONENTS  0.3880000D+00 0.3880000D+00 0.3880000D+00 0.1020000D+00 0.1020000D+00
EXPONENTS  0.1020000D+00 0.1057000D+01 0.1057000D+01 0.1057000D+01 0.1057000D+01
EXPONENTS  0.1057000D+01 0.1057000D+01 0.2470000D+00 0.2470000D+00 0.2470000D+00
EXPONENTS  0.2470000D+00 0.2470000D+00 0.2470000D+00 0.4561000D+06 0.6833000D+05
EXPONENTS  0.1555000D+05 0.4405000D+04 0.1439000D+04 0.5204000D+03 0.2031000D+03
EXPONENTS  0.8396000D+02 0.3620000D+02 0.1583000D+02 0.6334000D+01 0.4405000D+04
EXPONENTS  0.1439000D+04 0.5204000D+03 0.2031000D+03 0.8396000D+02 0.3620000D+02
EXPONENTS  0.1583000D+02 0.6334000D+01 0.2694000D+01 0.1439000D+04 0.2031000D+03
EXPONENTS  0.8396000D+02 0.3620000D+02 0.1583000D+02 0.6334000D+01 0.2694000D+01
EXPONENTS  0.4313000D+00 0.9768000D+00 0.1625000D+00 0.5910000D-01 0.6633000D+03
EXPONENTS  0.1568000D+03 0.4998000D+02 0.1842000D+02 0.7240000D+01 0.2922000D+01
EXPONENTS  0.6633000D+03 0.1568000D+03 0.4998000D+02 0.1842000D+02 0.7240000D+01
EXPONENTS  0.2922000D+01 0.6633000D+03 0.1568000D+03 0.4998000D+02 0.1842000D+02
EXPONENTS  0.7240000D+01 0.2922000D+01 0.1568000D+03 0.4998000D+02 0.1842000D+02
EXPONENTS  0.7240000D+01 0.2922000D+01 0.3818000D+00 0.1568000D+03 0.4998000D+02
EXPONENTS  0.1842000D+02 0.7240000D+01 0.2922000D+01 0.3818000D+00 0.1568000D+03
EXPONENTS  0.4998000D+02 0.1842000D+02 0.7240000D+01 0.2922000D+01 0.3818000D+00
EXPONENTS  0.1022000D+01 0.1022000D+01 0.1022000D+01 0.1301000D+00 0.1301000D+00
EXPONENTS  0.1301000D+00 0.4190000D-01 0.4190000D-01 0.4190000D-01 0.1046000D+01
EXPONENTS  0.1046000D+01 0.1046000D+01 0.1046000D+01 0.1046000D+01 0.1046000D+01
EXPONENTS  0.3440000D+00 0.3440000D+00 0.3440000D+00 0.3440000D+00 0.3440000D+00
EXPONENTS  0.3440000D+00 0.1350000D+00 0.1350000D+00 0.1350000D+00 0.1350000D+00
EXPONENTS  0.1350000D+00 0.1350000D+00 0.7060000D+00 0.7060000D+00 0.7060000D+00
EXPONENTS  0.7060000D+00 0.7060000D+00 0.7060000D+00 0.7060000D+00 0.7060000D+00
EXPONENTS  0.7060000D+00 0.7060000D+00 0.3120000D+00 0.3120000D+00 0.3120000D+00
EXPONENTS  0.3120000D+00 0.3120000D+00 0.3120000D+00 0.3120000D+00 0.3120000D+00
EXPONENTS  0.3120000D+00 0.3120000D+00 0.1950000D+05 0.2923000D+04 0.6645000D+03
EXPONENTS  0.1875000D+03 0.6062000D+02 0.2142000D+02 0.7950000D+01 0.6645000D+03
EXPONENTS  0.1875000D+03 0.6062000D+02 0.2142000D+02 0.7950000D+01 0.8815000D+00
EXPONENTS  0.2257000D+01 0.3041000D+00 0.9158000D-01 0.4388000D+02 0.9926000D+01
EXPONENTS  0.2930000D+01 0.4388000D+02 0.9926000D+01 0.2930000D+01 0.4388000D+02
EXPONENTS  0.9926000D+01 0.2930000D+01 0.9132000D+00 0.9132000D+00 0.9132000D+00
EXPONENTS  0.2672000D+00 0.2672000D+00 0.2672000D+00 0.7361000D-01 0.7361000D-01
EXPONENTS  0.7361000D-01 0.3107000D+01 0.3107000D+01 0.3107000D+01 0.3107000D+01
EXPONENTS  0.3107000D+01 0.3107000D+01 0.8550000D+00 0.8550000D+00 0.8550000D+00
EXPONENTS  0.8550000D+00 0.8550000D+00 0.8550000D+00 0.2920000D+00 0.2920000D+00
EXPONENTS  0.2920000D+00 0.2920000D+00 0.2920000D+00 0.2920000D+00 0.1917000D+01
EXPONENTS  0.1917000D+01 0.1917000D+01 0.1917000D+01 0.1917000D+01 0.1917000D+01
EXPONENTS  0.1917000D+01 0.1917000D+01 0.1917000D+01 0.1917000D+01 0.7240000D+00
EXPONENTS  0.7240000D+00 0.7240000D+00 0.7240000D+00 0.7240000D+00 0.7240000D+00
EXPONENTS  0.7240000D+00 0.7240000D+00 0.7240000D+00 0.7240000D+00
MO    1     MO 0.0        OCC NO =    2.0000300  ORB. ENERGY =    0.000000
  0.87769795D-05  0.16362058D-04  0.27654107D-04  0.41569281D-04  0.51060416D-04
  0.43093190D-04  0.16204165D-04 -0.13040223D-07 -0.97467587D-07 -0.36425863D-06
 -0.10162249D-05 -0.13614611D-05  0.16076317D-05  0.36091394D-05 -0.15162021D-04
 -0.51403757D-06 -0.30724151D-05 -0.28805844D-05 -0.20511477D-05  0.11083357D-03
  0.10391351D-03  0.73992612D-04 -0.42345548D-06 -0.39701643D-06 -0.28269935D-06
 -0.10222740D-04  0.36134378D-03  0.10837657D-05 -0.11908649D-04  0.46233520D-03
  0.34787673D-06 -0.30193443D-06  0.94588480D-05  0.24212369D-08  0.65388285D-04
 -0.64222762D-04 -0.11655238D-05 -0.30421714D-05  0.12227777D-04 -0.50867189D-03
  0.19289684D-03 -0.19564709D-03  0.27502469D-05 -0.62928126D-05 -0.35432269D-05
  0.98675093D-04  0.41388175D-04 -0.40661026D-04 -0.72714893D-06 -0.11422327D-05
  0.14926268D-05 -0.65909498D-04 -0.31183933D-05  0.92387276D-04 -0.16731304D-06
  0.60491722D-06  0.92563096D-04  0.26318102D-04  0.87502627D-05 -0.36972493D-03
 -0.25816163D-04 -0.38462364D-05  0.13265390D-06 -0.25506511D-04 -0.12466945D-06
  0.20092663D-05 -0.30220479D-04  0.50991342D-04 -0.24072280D-05  0.10674001D-03
 -0.50617334D-04 -0.16202382D-05 -0.39931724D-04 -0.72018508D-04 -0.10619125D-03
  0.37595767D-03  0.11255953D-02 -0.11889524D-04 -0.23819544D-06  0.71670093D-04
  0.23808893D-04 -0.28661677D-05  0.28935089D-03  0.27281803D-03 -0.12981675D-05
  0.17299165D-03  0.22146409D-04 -0.11028365D-03  0.42262752D-04  0.68020893D-04
 -0.11419795D-05  0.13777333D-05  0.29838431D-03 -0.43968371D-04 -0.12215775D-04
  0.56184146D-04 -0.67222746D-06 -0.11236833D-05  0.31297069D-04  0.20630688D-04
  0.37208296D-04  0.54863610D-04 -0.18273400D-03 -0.58548004D-03  0.61251457D-05
 -0.30331775D-04  0.21324855D-04 -0.12635719D-04 -0.91918720D-04  0.13691170D-03
 -0.14266281D-03 -0.45050134D-04  0.99918048D-04 -0.12033753D-04  0.93672384D-05
  0.26277755D-04 -0.35644994D-04  0.80064917D-04 -0.15535941D-03  0.41357916D-04
  0.20639599D-04  0.72886147D-05 -0.27928214D-04  0.26246208D-04  0.11931870D-04
  0.54062974D-04  0.19330415D-04  0.34863199D-04  0.51405766D-04 -0.16694834D-03
 -0.53862803D-03  0.58241511D-05  0.27154027D-04  0.20850230D-04 -0.11075518D-04
  0.83638111D-04  0.12855670D-03 -0.12992920D-03  0.38195831D-04  0.97488640D-04
 -0.10923275D-04  0.82451995D-05  0.24233218D-04 -0.32478418D-04 -0.75222422D-04
  0.14404902D-03  0.35321034D-04  0.20102793D-04  0.57304044D-05 -0.25833197D-04
 -0.25142656D-04 -0.13758040D-04  0.53817372D-04 -0.46372274D-05 -0.86757577D-05
 -0.14989785D-04 -0.24300203D-04 -0.36902190D-04 -0.51290572D-04 -0.60980560D-04
 -0.54323601D-04 -0.26978249D-04 -0.43432699D-05 -0.45824063D-07 -0.20732671D-07
 -0.69160720D-06 -0.24101126D-05 -0.86792058D-05 -0.19132229D-04 -0.26932004D-04
  0.12847443D-05  0.35245204D-04  0.20840268D-04 -0.22896350D-08 -0.27733071D-07
 -0.57834397D-07 -0.16585898D-06 -0.86128259D-08  0.71526436D-06  0.18481057D-05
 -0.15057496D-05  0.15690523D-05  0.35238497D-05  0.70687024D-06 -0.29382466D+00
 -0.38703581D+00 -0.42696108D+00 -0.35462461D+00 -0.18831551D+00 -0.48586385D-01
  0.11607031D+02  0.15289175D+02  0.16866354D+02  0.14008827D+02  0.74390761D+01
  0.19193205D+01 -0.46631244D-02 -0.61424256D-02 -0.67760570D-02 -0.56280459D-02
 -0.29886485D-02 -0.77108694D-03  0.11606665D-04 -0.11220577D-03 -0.15822185D-03
 -0.22629910D-03  0.11459468D-05  0.20753762D-03 -0.45937191D-03  0.44409121D-02
  0.62621496D-02  0.89565305D-02 -0.45354610D-04 -0.82139832D-02  0.13762485D-06
 -0.13304685D-05 -0.18760994D-05 -0.26833185D-05  0.13587947D-07  0.24608561D-05
 -0.19391863D-02  0.76626035D-01 -0.30078302D-04  0.16513977D-04 -0.64380672D-03
 -0.64209943D-06  0.14856656D-05 -0.57965247D-04 -0.21633625D-07  0.12415943D-04
 -0.13124452D-04  0.70850853D-06 -0.10731230D-05  0.24402233D-04 -0.98065329D-03
 -0.43603119D-05  0.46030230D-05 -0.24271110D-06  0.28208597D-06 -0.87168573D-05
  0.35583228D-03  0.12688794D-05 -0.13100177D-05  0.41138270D-07 -0.72922717D-07
  0.14111911D-05 -0.60855998D-04  0.38753752D-07  0.20400210D-05 -0.40821720D-07
 -0.69905183D-07  0.27303130D-05  0.35080303D-04 -0.46356073D-07 -0.88503759D-05
 -0.34957838D-04 -0.12353567D-05 -0.38740490D-06  0.14762523D-04  0.13942985D-06
 -0.37828386D-06  0.14536565D-04 -0.72972444D-05  0.15404986D-05 -0.58824132D-04
  0.68789549D-05  0.24343573D-06 -0.12376788D-05 -0.23070353D-05 -0.39109389D-05
 -0.59216903D-05 -0.74034172D-05 -0.63682664D-05 -0.24423672D-05  0.47801397D-08
  0.63280099D-07  0.22984483D-06  0.68183037D-06  0.78567178D-06 -0.95431540D-06
  0.26827211D-07  0.23552686D-05  0.13261270D-05  0.63210873D-05  0.61818853D-05
  0.40846330D-05 -0.29022505D-03 -0.28383376D-03 -0.18754097D-03  0.21741228D-05
  0.21262446D-05  0.14048997D-05  0.20912444D-08 -0.83685788D-05  0.96882813D-06
  0.14596071D-05 -0.66546568D-04  0.69139089D-06  0.50536377D-06 -0.19604122D-04
  0.14143926D-06  0.71139223D-04 -0.70691797D-04 -0.44742612D-06 -0.24803192D-05
  0.42729834D-05 -0.13340498D-03 -0.35763147D-04  0.35406385D-04  0.35676214D-06
  0.12658915D-05 -0.29359139D-05  0.10222374D-03  0.18186125D-04 -0.17910629D-04
 -0.27549665D-06 -0.69346146D-06  0.18022071D-05 -0.73950286D-04  0.15284043D-05
 -0.71362482D-04  0.11641644D-05  0.15146758D-05 -0.69920195D-04 -0.19092023D-03
 -0.60998886D-05  0.28400764D-03  0.18742774D-03  0.78544579D-05 -0.53254027D-06
  0.25311434D-04 -0.41715490D-06 -0.53193662D-06  0.24891832D-04  0.60707067D-04
  0.21295574D-05 -0.10082614D-03 -0.59455603D-04 -0.25238488D-05
MO    2     MO 0.0        OCC NO =    2.0000300  ORB. ENERGY =    0.000000
  0.13763399D-04  0.25657749D-04  0.43365092D-04  0.65185821D-04  0.80069106D-04
  0.67575501D-04  0.25410153D-04  0.32358617D-08  0.24186062D-07  0.90388835D-07
  0.25217077D-06  0.33783931D-06 -0.39892524D-06  0.17203196D-05 -0.22958922D-04
 -0.59087941D-06  0.11244574D-03  0.10542503D-03  0.75068904D-04  0.26093890D-05
  0.24464681D-05  0.17420310D-05 -0.29156103D-06 -0.27335700D-06 -0.19464647D-06
  0.37120205D-03  0.82400736D-05 -0.18568141D-05  0.46785602D-03  0.11627473D-04
  0.12682953D-05  0.91888092D-05  0.17011072D-06  0.12836833D-07  0.97558212D-06
 -0.46979312D-06 -0.50578900D-06  0.13010332D-03 -0.50869891D-03 -0.13498670D-04
  0.25760090D-05 -0.46545950D-05  0.20785860D-05  0.39192763D-03  0.98378605D-04
  0.14487166D-05  0.10814745D-05 -0.65945697D-06 -0.42201756D-06  0.82730648D-04
 -0.66586077D-04 -0.18575411D-05  0.94237229D-04  0.24688314D-05  0.40841494D-06
  0.90269353D-04  0.26386043D-05 -0.16658240D-05 -0.37298104D-03 -0.10045098D-04
  0.44057924D-06  0.48533009D-04 -0.26411511D-04  0.14824156D-06  0.80897095D-07
 -0.28659103D-04 -0.34634651D-05  0.83451637D-06  0.10789364D-03  0.30187404D-05
 -0.10772077D-05  0.10131674D-03 -0.89425134D-06 -0.16128191D-05 -0.23781009D-05
  0.17052994D-04  0.27837859D-04 -0.34337006D-06  0.40188994D-05  0.24913405D-05
  0.81201683D-06  0.87519809D-04  0.78864772D-05  0.62668853D-05  0.76545444D-04
  0.46124256D-05  0.20605717D-06 -0.29074141D-05  0.96310251D-06  0.19443116D-05
  0.33342273D-04 -0.46636610D-04  0.66471806D-05 -0.15003143D-05 -0.56234973D-06
  0.20626640D-05  0.29561343D-04  0.61830862D-04  0.68501118D-06 -0.33907091D-04
 -0.61152836D-04 -0.90169820D-04  0.33051410D-03  0.97665863D-03 -0.10462068D-04
  0.56330746D-04 -0.30003137D-04  0.22082591D-04  0.23947256D-03 -0.85389032D-04
  0.23485827D-03  0.15008316D-03 -0.38486397D-04  0.18874688D-04  0.10728567D-04
 -0.69757969D-04  0.59029402D-04 -0.10375263D-03  0.21130002D-03 -0.14715333D-03
 -0.10643845D-04 -0.37877537D-04  0.48521382D-04 -0.15605743D-04  0.39448000D-04
  0.15241175D-04  0.35316557D-04  0.63694865D-04  0.93918042D-04 -0.31935129D-03
 -0.99362300D-03  0.10904259D-04  0.56080089D-04  0.29911415D-04 -0.21057159D-04
  0.24022655D-03  0.94751295D-04 -0.23736251D-03  0.15011545D-03  0.44631443D-04
 -0.19597166D-04 -0.10211082D-04  0.69129054D-04 -0.58917972D-04 -0.11132619D-03
  0.21489161D-03  0.14966999D-03  0.11170945D-04  0.37156586D-04 -0.48327531D-04
 -0.17229821D-04  0.38523083D-04 -0.11814406D-04 -0.36939947D-04 -0.69110699D-04
 -0.11940796D-03 -0.19357433D-03 -0.29396120D-03 -0.40857841D-03 -0.48576842D-03
 -0.43273939D-03 -0.21490753D-03 -0.34598294D-04 -0.36503244D-06 -0.17289787D-06
 -0.57675835D-05 -0.20098874D-04 -0.72379299D-04 -0.15955116D-03 -0.22459654D-03
  0.10713987D-04  0.29392357D-03  0.17379517D-03 -0.44155782D-08 -0.53483435D-07
 -0.11153407D-06 -0.31986028D-06 -0.16609899D-07  0.13793927D-05  0.35640857D-05
 -0.29038493D-05  0.10939988D-04  0.77896748D-06  0.44130197D-06  0.11607015D+02
  0.15289154D+02  0.16866330D+02  0.14008807D+02  0.74390655D+01  0.19193178D+01
  0.29381974D+00  0.38702933D+00  0.42695393D+00  0.35461867D+00  0.18831235D+00
  0.48585571D-01 -0.47065105D-02 -0.61995753D-02 -0.68391021D-02 -0.56804097D-02
 -0.30164552D-02 -0.77826121D-03 -0.45941832D-03  0.44413607D-02  0.62627822D-02
  0.89574352D-02 -0.45359191D-04 -0.82148129D-02 -0.11651621D-04  0.11264037D-03
  0.15883469D-03  0.22717562D-03 -0.11503854D-05 -0.20834147D-03  0.17731958D-06
 -0.17142116D-05 -0.24172173D-05 -0.34572602D-05  0.17507079D-07  0.31706337D-05
  0.76630111D-01  0.19403645D-02 -0.31174125D-04 -0.64280535D-03 -0.16058882D-04
 -0.88391125D-07 -0.57881586D-04 -0.14469574D-05 -0.75567160D-08 -0.49833554D-06
 -0.29289846D-06  0.79123400D-06  0.24008334D-04 -0.98158492D-03 -0.25271978D-04
  0.15200646D-06  0.17512731D-06 -0.32713376D-06 -0.84497010D-05  0.35708289D-03
  0.93292784D-05 -0.67986385D-08 -0.20410291D-07  0.27208930D-07  0.24143841D-05
 -0.61276018D-04 -0.16791483D-05  0.24604441D-05  0.74822763D-07  0.62676334D-08
  0.25861856D-05  0.29441250D-06  0.58673361D-06 -0.99675180D-05 -0.51888079D-06
 -0.60553651D-06  0.69553272D-04  0.14685511D-04  0.37782267D-06  0.96402775D-07
  0.14685281D-04  0.30281310D-06 -0.26841376D-06 -0.58741814D-04 -0.14362811D-05
 -0.20794566D-07 -0.14161629D-04  0.63277022D-06  0.11794848D-05  0.19994895D-05
  0.30274975D-05  0.37850386D-05  0.32558120D-05  0.12486740D-05  0.38276495D-08
  0.50670912D-07  0.18404597D-06  0.54596891D-06  0.62911889D-06 -0.76415860D-06
  0.18497165D-06  0.16910155D-05  0.68859891D-06 -0.28972840D-03 -0.28334804D-03
 -0.18722003D-03 -0.83594527D-05 -0.81753622D-05 -0.54018075D-05 -0.12495880D-05
 -0.12220698D-05 -0.80747316D-06 -0.87982706D-05 -0.42782791D-06 -0.19016993D-06
 -0.66599760D-04 -0.19137280D-05  0.70513077D-06 -0.19481206D-04 -0.48451699D-06
  0.39426962D-07  0.13416684D-05 -0.11144702D-05 -0.22719825D-06  0.14160161D-03
 -0.13073056D-03 -0.24162927D-05 -0.68316625D-06  0.52676675D-06  0.15639951D-06
 -0.71052841D-04  0.10102904D-03  0.22118999D-05  0.28161400D-06 -0.27745547D-06
 -0.41585371D-08  0.35963786D-04 -0.73879087D-04 -0.19420073D-05 -0.71835809D-04
 -0.22764479D-05  0.41380084D-06 -0.70846351D-04 -0.15178382D-05 -0.32443845D-05
  0.28635378D-03  0.83471818D-05  0.20029820D-05 -0.37590144D-03  0.25511281D-04
  0.80861222D-06 -0.14214408D-06  0.25214007D-04  0.57502703D-06  0.10309642D-05
 -0.10174785D-03 -0.30008637D-05 -0.60453191D-06  0.11933519D-03
MO    3     MO 0.0        OCC NO =    2.0000210  ORB. ENERGY =    0.000000
 -0.14446973D-01 -0.26932068D-01 -0.45518865D-01 -0.68423343D-01 -0.84045822D-01
 -0.70931709D-01 -0.26672175D-01 -0.38098246D-05 -0.28476079D-04 -0.10642161D-03
 -0.29689972D-03 -0.39776376D-03  0.46968484D-03 -0.87251448D-03 -0.19387451D-02
 -0.82423229D-04 -0.15976996D-05 -0.14979450D-05 -0.10666261D-05  0.18607123D-05
  0.17445361D-05  0.12422136D-05  0.11681657D-02  0.10952296D-02  0.77986870D-03
  0.69155727D-05 -0.19153016D-05  0.60872171D-03  0.37635472D-05  0.16409519D-05
 -0.37982577D-03 -0.23666068D-07 -0.57573875D-07  0.46637350D-05 -0.10678083D-03
 -0.10521981D-03  0.21200064D-03  0.18801668D-05  0.10772899D-06  0.83216435D-06
 -0.24706346D-04 -0.22759396D-04  0.47465742D-04  0.23974825D-05 -0.18174976D-05
 -0.67591626D-07  0.11602583D-04  0.11188397D-04 -0.22790980D-04  0.47691782D-06
  0.35896395D-06  0.29816884D-06  0.43038808D-06  0.36308675D-04  0.78325073D-05
 -0.71985954D-06 -0.10879434D-03 -0.11316225D-04 -0.57130469D-06 -0.13168610D-06
 -0.12181297D-04 -0.22010041D-06  0.35799269D-06  0.51734751D-04 -0.85781916D-04
 -0.12632082D-05 -0.15508450D-03  0.12886198D-03  0.18923012D-06 -0.11975360D-06
  0.12848377D-03 -0.40390105D-06 -0.49847826D-05 -0.89902606D-05 -0.13256134D-04
  0.75121618D-03  0.23987923D-03  0.49501198D-05 -0.89268469D-06  0.95909219D-04
  0.28092718D-04  0.27210655D-05  0.19775256D-03 -0.43378687D-05  0.75443882D-06
  0.44434769D-04  0.39263247D-04 -0.73727461D-04  0.53781457D-04  0.19946004D-04
  0.76687471D-06  0.95493774D-06  0.75826788D-04 -0.95493056D-05 -0.12239091D-04
  0.21788396D-04  0.54497463D-06 -0.13543525D-06 -0.34667534D-04 -0.43058565D-05
 -0.77657895D-05 -0.11450652D-04  0.76058142D-03  0.24402701D-03  0.51947505D-05
  0.84474787D-04 -0.49097176D-04  0.30005533D-04  0.17614023D-03 -0.95089737D-04
 -0.55208138D-05  0.39831846D-04 -0.21423834D-04  0.39298746D-04  0.23331027D-04
 -0.43719195D-04  0.20388168D-04 -0.10903814D-03  0.67345684D-04 -0.36380768D-04
 -0.11082277D-04 -0.10488151D-04  0.21570428D-04  0.19979458D-05 -0.30414488D-04
  0.17240977D-04 -0.48009104D-05 -0.86586396D-05 -0.12767159D-04  0.74773089D-03
  0.22774220D-03  0.51259606D-05 -0.82487120D-04 -0.47807566D-04  0.28404047D-04
 -0.17110510D-03 -0.97222243D-04 -0.39008925D-05 -0.37079972D-04 -0.21122677D-04
  0.38120453D-04  0.22043603D-04 -0.42158540D-04  0.20114937D-04  0.10970834D-03
 -0.66232641D-04 -0.37548054D-04 -0.11477259D-04 -0.10096633D-04  0.21573892D-04
 -0.23499215D-05  0.29769176D-04  0.17340997D-04 -0.15457512D+00 -0.28919355D+00
 -0.49966231D+00 -0.81001130D+00 -0.12300799D+01 -0.17096953D+01 -0.20326967D+01
 -0.18107969D+01 -0.89928002D+00 -0.14477648D+00 -0.15274773D-02 -0.72271385D-03
 -0.24108524D-01 -0.84013380D-01 -0.30254579D+00 -0.66692453D+00 -0.93881450D+00
  0.44784511D-01  0.12286018D+01  0.72646455D+00 -0.15530183D-04 -0.18810844D-03
 -0.39228032D-03 -0.11249917D-02 -0.58419250D-04  0.48515096D-02  0.12535369D-01
 -0.10213229D-01  0.46591124D-01 -0.38384034D-03 -0.13187940D-03  0.34218286D-03
  0.45073488D-03  0.49723113D-03  0.41298938D-03  0.21930882D-03  0.56582822D-04
  0.21569359D-02  0.28411891D-02  0.31342763D-02  0.26032619D-02  0.13824043D-02
  0.35666754D-03  0.59443753D+01  0.78301329D+01  0.86378623D+01  0.71744209D+01
  0.38098166D+01  0.98295260D+00 -0.11687095D-07  0.11298332D-06  0.15931827D-06
  0.22786727D-06 -0.11538878D-08 -0.20897578D-06 -0.89499675D-07  0.86522527D-06
  0.12200580D-05  0.17450056D-05 -0.88364628D-08 -0.16003347D-05 -0.21093849D-03
  0.20392176D-02  0.28755097D-02  0.41127396D-02 -0.20826334D-04 -0.37717701D-02
  0.28537723D-05  0.15542785D-04  0.41675138D-01 -0.21857036D-06 -0.35900628D-06
 -0.48431339D-03  0.22465269D-07  0.25929397D-07 -0.98485898D-05 -0.67327413D-05
 -0.69754463D-05  0.13708188D-04 -0.14020779D-06 -0.39098844D-07 -0.66083274D-06
 -0.11167306D-03 -0.11159804D-03  0.22327110D-03  0.27874243D-07  0.31155857D-06
  0.68652526D-06 -0.14371223D-04 -0.14319567D-04  0.28690790D-04 -0.66996380D-08
  0.87643522D-07  0.49177516D-07 -0.82974530D-07 -0.71950333D-05  0.54288303D-05
  0.14520458D-06  0.21575448D-04 -0.84635742D-05  0.10371901D-06  0.96520622D-08
 -0.78229166D-05 -0.10833574D-06  0.46277397D-07  0.20890717D-05 -0.33820753D-04
 -0.19023121D-07 -0.61010377D-05  0.50867945D-04 -0.11980907D-06 -0.16617744D-06
  0.50594314D-04  0.10948889D-08 -0.87985186D-03 -0.16400454D-02 -0.27802423D-02
 -0.42096629D-02 -0.52630058D-02 -0.45271287D-02 -0.17362513D-02 -0.68592721D-06
 -0.90803919D-05 -0.32981635D-04 -0.97839400D-04 -0.11274015D-03  0.13693970D-03
 -0.96043882D-04 -0.15997737D-03  0.12303961D-04  0.10475957D-05  0.10245257D-05
  0.67694744D-06  0.11935284D-05  0.11672447D-05  0.77124791D-06  0.39033141D-02
  0.38173560D-02  0.25222885D-02  0.81593754D-08 -0.16965304D-06  0.87950260D-03
  0.11418178D-06  0.13232088D-06  0.21180332D-04  0.47584488D-07  0.23260504D-07
  0.93346414D-05 -0.35704648D-04 -0.35587376D-04  0.71292024D-04 -0.44792968D-06
  0.42496766D-06  0.96968152D-06  0.21155972D-04  0.21093072D-04 -0.42249044D-04
  0.20672605D-06 -0.21367987D-06 -0.44574683D-06  0.18094548D-04  0.18141746D-04
 -0.36236294D-04 -0.92267725D-07 -0.47669268D-07  0.44561127D-07 -0.22210103D-06
 -0.30666786D-05  0.46192951D-04 -0.12963623D-06  0.83613796D-05 -0.68658165D-04
  0.79593931D-06  0.83865638D-06 -0.69920688D-04  0.69253779D-06  0.89473360D-07
  0.98284870D-06 -0.25321035D-04  0.60171186D-07 -0.26328871D-05  0.37799352D-04
 -0.32859126D-06 -0.31565900D-06  0.38163754D-04 -0.21965439D-06
MO    4     MO 0.0        OCC NO =    2.0000123  ORB. ENERGY =    0.000000
  0.27012966D-01  0.50357610D-01  0.85111221D-01  0.12793804D+00  0.15714897D+00
  0.13262818D+00  0.49871661D-01 -0.14226227D-05 -0.10633223D-04 -0.39738783D-04
 -0.11086502D-03 -0.14852856D-03  0.17538453D-03  0.26610004D-02 -0.36213548D-02
 -0.43147659D-04  0.38234791D-05  0.35847546D-05  0.25525589D-05  0.29038358D-06
  0.27225306D-06  0.19386040D-06  0.36702704D-02  0.34411118D-02  0.24502766D-02
  0.10063841D-04 -0.50345696D-05  0.13073118D-02  0.66470163D-05  0.56658908D-06
 -0.41814367D-03 -0.82809158D-08 -0.64543290D-07  0.36772327D-05 -0.31941309D-03
 -0.31867239D-03  0.63808548D-03  0.18577757D-05  0.86645667D-06  0.15999825D-05
  0.66502158D-05  0.13120838D-04 -0.19771053D-04  0.25484168D-05 -0.33661749D-05
  0.33862402D-06 -0.18169673D-04 -0.17557759D-04  0.35727432D-04  0.31088753D-06
  0.53339202D-06  0.36731053D-06 -0.30120132D-06 -0.42562511D-04  0.22834109D-04
  0.10059419D-05  0.12773955D-03 -0.33883297D-04 -0.10233794D-06 -0.52018316D-07
 -0.34619031D-04 -0.71933430D-06  0.53393817D-06  0.82002947D-04 -0.16388828D-03
 -0.20384876D-05 -0.24585278D-03  0.24672396D-03  0.43667308D-06 -0.15606286D-06
  0.24494088D-03 -0.16103750D-06 -0.90429866D-04 -0.16309399D-03 -0.24048199D-03
  0.10189501D-02  0.68239892D-03  0.41704789D-05 -0.13513523D-05 -0.58303724D-04
  0.32624975D-04  0.33802023D-05  0.30108232D-03 -0.42426223D-04  0.71800133D-06
  0.11078452D-03  0.76197013D-04 -0.14185467D-03  0.23206720D-04  0.11864795D-03
 -0.24945299D-06  0.17060974D-05  0.14234128D-03 -0.14611134D-04 -0.21443816D-04
  0.36054950D-04  0.67531077D-06 -0.61676721D-07 -0.62837352D-04 -0.90802525D-04
 -0.16376609D-03 -0.24147301D-03  0.10376112D-02  0.70166897D-03  0.44554618D-05
 -0.48338870D-04  0.25232986D-04  0.36368891D-04  0.26880304D-03 -0.14733208D-03
 -0.45837292D-04  0.98525964D-04 -0.55620059D-04  0.76852256D-04 -0.15579200D-04
 -0.10249851D-03  0.11807771D-03 -0.14663640D-03  0.12680356D-03 -0.69026744D-04
 -0.19360394D-04 -0.16534221D-04  0.35894615D-04  0.51888637D-05 -0.55191974D-04
  0.31736057D-04 -0.90481206D-04 -0.16318658D-03 -0.24061852D-03  0.10198868D-02
  0.67598546D-03  0.43083813D-05  0.51151204D-04  0.28939028D-04  0.33278846D-04
 -0.26231320D-03 -0.15036454D-03 -0.42703223D-04 -0.94407483D-04 -0.55095637D-04
  0.75115798D-04 -0.18492479D-04 -0.10026575D-03  0.11875823D-03  0.14259918D-03
 -0.12389630D-03 -0.70627375D-04 -0.19677458D-04 -0.16030151D-04  0.35707609D-04
 -0.54834836D-05  0.53969240D-04  0.31673752D-04  0.91351958D-01  0.17090977D+00
  0.29529417D+00  0.47870654D+00  0.72696182D+00  0.10104085D+01  0.12012983D+01
  0.10701583D+01  0.53146323D+00  0.85561085D-01  0.90271998D-03  0.42770852D-03
  0.14267640D-01  0.49719870D-01  0.17904930D+00  0.39469191D+00  0.55559882D+00
 -0.26503874D-01 -0.72709754D+00 -0.42992822D+00  0.62805334D-05  0.76072596D-04
  0.15864138D-03  0.45495586D-03  0.23625224D-04 -0.19619903D-02 -0.50694061D-02
  0.41303135D-02 -0.28556996D-01  0.14195566D-02 -0.18109356D-03  0.50783228D-02
  0.66893391D-02  0.73793882D-02  0.61291597D-02  0.32547539D-02  0.83974351D-03
  0.42311856D-02  0.55734612D-02  0.61484002D-02  0.51067277D-02  0.27118141D-02
  0.69966222D-03  0.99125585D+01  0.13057158D+02  0.14404090D+02  0.11963724D+02
  0.63530695D+01  0.16391251D+01 -0.17175947D-06  0.16604600D-05  0.23414220D-05
  0.33488528D-05 -0.16958119D-07 -0.30712139D-05 -0.16442944D-06  0.15895980D-05
  0.22414991D-05  0.32059366D-05 -0.16234412D-07 -0.29401463D-05 -0.33687923D-03
  0.32567316D-02  0.45923316D-02  0.65682490D-02 -0.33260688D-04 -0.60237038D-02
  0.37046639D-04  0.31571850D-04  0.72542846D-01 -0.35625045D-06 -0.26815334D-06
 -0.30726773D-03  0.13692339D-07  0.36838532D-07 -0.39814500D-05  0.45484559D-03
  0.45478603D-03 -0.90963162D-03 -0.22404920D-06 -0.16048777D-05 -0.21406525D-05
 -0.30997157D-03 -0.30989504D-03  0.61986661D-03  0.42968384D-07  0.99212500D-06
  0.14207698D-05  0.42401612D-05  0.42877390D-05 -0.85279002D-05  0.25597247D-07
  0.69051122D-07 -0.35766621D-07 -0.14067862D-06 -0.14446965D-04 -0.46931008D-04
  0.32047980D-06  0.43553558D-04  0.69883419D-04  0.10155605D-06 -0.21266243D-06
  0.70909605D-04  0.11236342D-06  0.93345338D-07  0.42363112D-05 -0.62715814D-04
 -0.39864109D-07 -0.12432616D-04  0.94313430D-04 -0.24017191D-06 -0.27631759D-06
  0.93834010D-04 -0.93514297D-07 -0.63637707D-02 -0.11862080D-01 -0.20108868D-01