 Entering Gaussian System, Link 0=g09
 Input=GAUSSIAN+YH_4.com
 Output=GAUSSIAN+YH_4.log
 Initial command:
 /home/bruns/programas/chemistry/gaussian/g09/l1.exe /home/bruns/programas/chemistry/gaussian/work/Gau-19968.inp -scrdir=/home/bruns/programas/chemistry/gaussian/work/
 Entering Link 1 = /home/bruns/programas/chemistry/gaussian/g09/l1.exe PID=     19970.
  
 Copyright (c) 1988,1990,1992,1993,1995,1998,2003,2009,2010,
            Gaussian, Inc.  All Rights Reserved.
  
 This is part of the Gaussian(R) 09 program.  It is based on
 the Gaussian(R) 03 system (copyright 2003, Gaussian, Inc.),
 the Gaussian(R) 98 system (copyright 1998, Gaussian, Inc.),
 the Gaussian(R) 94 system (copyright 1995, Gaussian, Inc.),
 the Gaussian 92(TM) system (copyright 1992, Gaussian, Inc.),
 the Gaussian 90(TM) system (copyright 1990, Gaussian, Inc.),
 the Gaussian 88(TM) system (copyright 1988, Gaussian, Inc.),
 the Gaussian 86(TM) system (copyright 1986, Carnegie Mellon
 University), and the Gaussian 82(TM) system (copyright 1983,
 Carnegie Mellon University). Gaussian is a federally registered
 trademark of Gaussian, Inc.
  
 This software contains proprietary and confidential information,
 including trade secrets, belonging to Gaussian, Inc.
  
 This software is provided under written license and may be
 used, copied, transmitted, or stored only in accord with that
 written license.
  
 The following legend is applicable only to US Government
 contracts under FAR:
  
                    RESTRICTED RIGHTS LEGEND
  
 Use, reproduction and disclosure by the US Government is
 subject to restrictions as set forth in subparagraphs (a)
 and (c) of the Commercial Computer Software - Restricted
 Rights clause in FAR 52.227-19.
  
 Gaussian, Inc.
 340 Quinnipiac St., Bldg. 40, Wallingford CT 06492
  
  
 ---------------------------------------------------------------
 Warning -- This program may not be used in any manner that
 competes with the business of Gaussian, Inc. or will provide
 assistance to any competitor of Gaussian, Inc.  The licensee
 of this program is prohibited from giving any competitor of
 Gaussian, Inc. access to this program.  By using this program,
 the user acknowledges that Gaussian, Inc. is engaged in the
 business of creating and licensing software in the field of
 computational chemistry and represents and warrants to the
 licensee that it is not a competitor of Gaussian, Inc. and that
 it will not use this program in any manner prohibited above.
 ---------------------------------------------------------------
  

 Cite this work as:
 Gaussian 09, Revision B.01,
 M. J. Frisch, G. W. Trucks, H. B. Schlegel, G. E. Scuseria, 
 M. A. Robb, J. R. Cheeseman, G. Scalmani, V. Barone, B. Mennucci, 
 G. A. Petersson, H. Nakatsuji, M. Caricato, X. Li, H. P. Hratchian, 
 A. F. Izmaylov, J. Bloino, G. Zheng, J. L. Sonnenberg, M. Hada, 
 M. Ehara, K. Toyota, R. Fukuda, J. Hasegawa, M. Ishida, T. Nakajima, 
 Y. Honda, O. Kitao, H. Nakai, T. Vreven, J. A. Montgomery, Jr., 
 J. E. Peralta, F. Ogliaro, M. Bearpark, J. J. Heyd, E. Brothers, 
 K. N. Kudin, V. N. Staroverov, T. Keith, R. Kobayashi, J. Normand, 
 K. Raghavachari, A. Rendell, J. C. Burant, S. S. Iyengar, J. Tomasi, 
 M. Cossi, N. Rega, J. M. Millam, M. Klene, J. E. Knox, J. B. Cross, 
 V. Bakken, C. Adamo, J. Jaramillo, R. Gomperts, R. E. Stratmann, 
 O. Yazyev, A. J. Austin, R. Cammi, C. Pomelli, J. W. Ochterski, 
 R. L. Martin, K. Morokuma, V. G. Zakrzewski, G. A. Voth, 
 P. Salvador, J. J. Dannenberg, S. Dapprich, A. D. Daniels, 
 O. Farkas, J. B. Foresman, J. V. Ortiz, J. Cioslowski, 
 and D. J. Fox, Gaussian, Inc., Wallingford CT, 2010.
 
 ******************************************
 Gaussian 09:  EM64L-G09RevB.01 12-Aug-2010
                10-Aug-2021 
 ******************************************
 %nproc=8
 Will use up to    8 processors via shared memory.
 %mem=8GB
 -----------------------------------------------------
 # QCISD aug-cc-pvtz nosymm density=current output=wfn
 -----------------------------------------------------
 1/30=1,38=1/1;
 2/12=2,15=1,17=6,18=5,40=1/2;
 3/5=16,6=1,7=10,11=9,16=1,25=1,30=1,71=1/1,2,3;
 4//1;
 5/5=2,38=5/2;
 8/6=4,9=120000,10=1/1,4;
 9/5=8,15=1/13;
 11/28=-7,31=1,32=3,42=3/11;
 10/5=6,13=10,31=1/2;
 6/7=2,8=2,9=2,10=2,22=-1,31=1/1;
 99/5=1,6=1100,9=1/99;
 ----------
 title line
 ----------
 Symbolic Z-matrix:
 Charge = -1 Multiplicity = 1
 C                     0.00018   0.00003  -0.49771 
 H                     0.00002  -1.05257  -0.62073 
 H                    -0.91131   0.52637  -0.62125 
 H                     0.91175   0.53613  -0.62157 
 Cl                    0.00056   0.00096   1.64472 
 F                    -0.00019  -0.00092  -2.59346 
 
                          Input orientation:                          
 ---------------------------------------------------------------------
 Center     Atomic      Atomic             Coordinates (Angstroms)
 Number     Number       Type             X           Y           Z
 ---------------------------------------------------------------------
      1          6           0        0.000175    0.000029   -0.497709
      2          1           0        0.000019   -1.052570   -0.620726
      3          1           0       -0.911312    0.526365   -0.621245
      4          1           0        0.911750    0.536132   -0.621570
      5         17           0        0.000555    0.000962    1.644718
      6          9           0       -0.000186   -0.000921   -2.593460
 ---------------------------------------------------------------------
                    Distance matrix (angstroms):
                    1          2          3          4          5
     1  C    0.000000
     2  H    1.059763   0.000000
     3  H    1.059764   1.823063   0.000000
     4  H    1.064761   1.831728   1.823088   0.000000
     5  Cl   2.142427   2.498433   2.498427   2.500549   0.000000
     6  F    2.095751   2.235541   2.235579   2.237946   4.238178
                    6
     6  F    0.000000
 Symmetry turned off by external request.
 Stoichiometry    CH3ClF(1-)
 Framework group  C1[X(CH3ClF)]
 Deg. of freedom    12
 Full point group                 C1      NOp   1
 Rotational constants (GHZ):    150.3984044      2.2147812      2.2145748
 Standard basis: Aug-CC-pVTZ (5D, 7F)
 Integral buffers will be    131072 words long.
 Raffenetti 1 integral format.
 Two-electron integral symmetry is turned off.
   211 basis functions,   339 primitive gaussians,   244 cartesian basis functions
    18 alpha electrons       18 beta electrons
       nuclear repulsion energy        84.9636239819 Hartrees.
 NAtoms=    6 NActive=    6 NUniq=    6 SFac= 1.00D+00 NAtFMM=   50 NAOKFM=F Big=F
 One-electron integrals computed using PRISM.
 NBasis=   211 RedAO= T  NBF=   211
 NBsUse=   211 1.00D-06 NBFU=   211
 Harris functional with IExCor=  205 diagonalized for initial guess.
 ExpMin= 2.53D-02 ExpMax= 4.56D+05 ExpMxC= 1.44D+03 IAcc=3 IRadAn=         0 AccDes= 0.00D+00
 HarFok:  IExCor=  205 AccDes= 0.00D+00 IRadAn=         0 IDoV= 1
 ScaDFX=  1.000000  1.000000  1.000000  1.000000
 FoFCou: FMM=F IPFlag=           0 FMFlag=      100000 FMFlg1=           0
         NFxFlg=           0 DoJE=T BraDBF=F KetDBF=T FulRan=T
         Omega=  0.000000  0.000000  1.000000  0.000000  0.000000 ICntrl=     500 IOpCl=  0
         NMat0=    1 NMatS0=    1 NMatT0=    0 NMatD0=    1 NMtDS0=    0 NMtDT0=    0
         I1Cent=           4 NGrid=           0.
 Symmetry not used in FoFCou.
 Requested convergence on RMS density matrix=1.00D-08 within 128 cycles.
 Requested convergence on MAX density matrix=1.00D-06.
 Requested convergence on             energy=1.00D-06.
 No special actions if energy rises.
 Keep R1 ints in memory in canonical form, NReq=454274131.
 SCF Done:  E(RHF) =  -598.617098417     A.U. after   12 cycles
             Convg  =    0.9384D-08             -V/T =  2.0001
 ExpMin= 2.53D-02 ExpMax= 4.56D+05 ExpMxC= 1.44D+03 IAcc=3 IRadAn=         5 AccDes= 0.00D+00
 HarFok:  IExCor=  205 AccDes= 0.00D+00 IRadAn=         5 IDoV=-2
 ScaDFX=  1.000000  1.000000  1.000000  1.000000
 DSYEVD returned Info=         101 IAlg= 4 N=    50 NDim=    50 NE2=    21472034 trying DSYEV.
 Range of M.O.s used for correlation:     8   211
 NBasis=   211 NAE=    18 NBE=    18 NFC=     7 NFV=     0
 NROrb=    204 NOA=    11 NOB=    11 NVA=   193 NVB=   193

 **** Warning!!: The largest alpha MO coefficient is  0.35263942D+02

 Semi-Direct transformation.
 ModeAB=           2 MOrb=            11 LenV=    1072528236
 LASXX=     44979418 LTotXX=    44979418 LenRXX=    44979418
 LTotAB=    45631872 MaxLAS=    67073160 LenRXY=    67073160
 NonZer=    89958836 LenScr=   135708672 LnRSAI=           0
 LnScr1=           0 LExtra=           0 Total=    247761250
 MaxDsk=          -1 SrtSym=           F ITran=            4
 JobTyp=0 Pass  1:  I=   1 to  11.
 (rs|ai) integrals will be sorted in core.
 Spin components of T(2) and E(2):
     alpha-alpha T2 =       0.2568355670D-01 E2=     -0.8209069891D-01
     alpha-beta  T2 =       0.1453372054D+00 E2=     -0.5100382980D+00
     beta-beta   T2 =       0.2568355670D-01 E2=     -0.8209069891D-01
 ANorm=    0.1093939815D+01
 E2 =    -0.6742196958D+00 EUMP2 =    -0.59929131811262D+03
 R2 and R3 integrals will be kept in memory, NReq=   900794930.
 Iterations=  50 Convergence= 0.100D-07
 Iteration Nr.   1
 **********************
 DD1Dir will call FoFMem   1 times, MxPair=       132
 NAB=    66 NAA=     0 NBB=     0.
 MP4(R+Q)=  0.14446025D-01
 E3=       -0.18694774D-01        EUMP3=      -0.59931001289D+03
 E4(DQ)=   -0.45451510D-03        UMP4(DQ)=   -0.59931046740D+03
 E4(SDQ)=  -0.98267020D-02        UMP4(SDQ)=  -0.59931983959D+03
 DE(Corr)= -0.67846845     E(Corr)=     -599.29556686    
 NORM(A)=   0.10997366D+01
 Iteration Nr.   2
 **********************
 DD1Dir will call FoFMem   1 times, MxPair=       132
 NAB=    66 NAA=     0 NBB=     0.
 DE(Corr)= -0.70068230     E(CORR)=     -599.31778071     Delta=-2.22D-02
 NORM(A)=   0.11070993D+01
 Iteration Nr.   3
 **********************
 DD1Dir will call FoFMem   1 times, MxPair=       132
 NAB=    66 NAA=     0 NBB=     0.
 DE(Corr)= -0.69828509     E(CORR)=     -599.31538351     Delta= 2.40D-03
 NORM(A)=   0.11110880D+01
 Iteration Nr.   4
 **********************
 DD1Dir will call FoFMem   1 times, MxPair=       132
 NAB=    66 NAA=     0 NBB=     0.
 DE(Corr)= -0.70134701     E(CORR)=     -599.31844543     Delta=-3.06D-03
 NORM(A)=   0.11131920D+01
 Iteration Nr.   5
 **********************
 DD1Dir will call FoFMem   1 times, MxPair=       132
 NAB=    66 NAA=     0 NBB=     0.
 DE(Corr)= -0.70194218     E(CORR)=     -599.31904059     Delta=-5.95D-04
 NORM(A)=   0.11142234D+01
 Iteration Nr.   6
 **********************
 DD1Dir will call FoFMem   1 times, MxPair=       132
 NAB=    66 NAA=     0 NBB=     0.
 DE(Corr)= -0.70208904     E(CORR)=     -599.31918746     Delta=-1.47D-04
 NORM(A)=   0.11145498D+01
 Iteration Nr.   7
 **********************
 DD1Dir will call FoFMem   1 times, MxPair=       132
 NAB=    66 NAA=     0 NBB=     0.
 DE(Corr)= -0.70211881     E(CORR)=     -599.31921722     Delta=-2.98D-05
 NORM(A)=   0.11145809D+01
 Iteration Nr.   8
 **********************
 DD1Dir will call FoFMem   1 times, MxPair=       132
 NAB=    66 NAA=     0 NBB=     0.
 DE(Corr)= -0.70213270     E(CORR)=     -599.31923112     Delta=-1.39D-05
 NORM(A)=   0.11145988D+01
 Iteration Nr.   9
 **********************
 DD1Dir will call FoFMem   1 times, MxPair=       132
 NAB=    66 NAA=     0 NBB=     0.
 DE(Corr)= -0.70210946     E(CORR)=     -599.31920788     Delta= 2.32D-05
 NORM(A)=   0.11146019D+01
 Iteration Nr.  10
 **********************
 DD1Dir will call FoFMem   1 times, MxPair=       132
 NAB=    66 NAA=     0 NBB=     0.
 DE(Corr)= -0.70212877     E(CORR)=     -599.31922719     Delta=-1.93D-05
 NORM(A)=   0.11146021D+01
 Iteration Nr.  11
 **********************
 DD1Dir will call FoFMem   1 times, MxPair=       132
 NAB=    66 NAA=     0 NBB=     0.
 DE(Corr)= -0.70211957     E(CORR)=     -599.31921799     Delta= 9.20D-06
 NORM(A)=   0.11146050D+01
 Iteration Nr.  12
 **********************
 DD1Dir will call FoFMem   1 times, MxPair=       132
 NAB=    66 NAA=     0 NBB=     0.
 DE(Corr)= -0.70212333     E(CORR)=     -599.31922174     Delta=-3.76D-06
 NORM(A)=   0.11146055D+01
 Iteration Nr.  13
 **********************
 DD1Dir will call FoFMem   1 times, MxPair=       132
 NAB=    66 NAA=     0 NBB=     0.
 DE(Corr)= -0.70212390     E(CORR)=     -599.31922231     Delta=-5.68D-07
 NORM(A)=   0.11146062D+01
 Iteration Nr.  14
 **********************
 DD1Dir will call FoFMem   1 times, MxPair=       132
 NAB=    66 NAA=     0 NBB=     0.
 DE(Corr)= -0.70212412     E(CORR)=     -599.31922254     Delta=-2.25D-07
 NORM(A)=   0.11146063D+01
 Iteration Nr.  15
 **********************
 DD1Dir will call FoFMem   1 times, MxPair=       132
 NAB=    66 NAA=     0 NBB=     0.
 DE(Corr)= -0.70212403     E(CORR)=     -599.31922245     Delta= 9.07D-08
 NORM(A)=   0.11146062D+01
 Iteration Nr.  16
 **********************
 DD1Dir will call FoFMem   1 times, MxPair=       132
 NAB=    66 NAA=     0 NBB=     0.
 DE(Corr)= -0.70212423     E(CORR)=     -599.31922265     Delta=-2.03D-07
 NORM(A)=   0.11146061D+01
 Iteration Nr.  17
 **********************
 DD1Dir will call FoFMem   1 times, MxPair=       132
 NAB=    66 NAA=     0 NBB=     0.
 DE(Corr)= -0.70212410     E(CORR)=     -599.31922252     Delta= 1.31D-07
 NORM(A)=   0.11146059D+01
 Iteration Nr.  18
 **********************
 DD1Dir will call FoFMem   1 times, MxPair=       132
 NAB=    66 NAA=     0 NBB=     0.
 DE(Corr)= -0.70212414     E(CORR)=     -599.31922256     Delta=-3.68D-08
 NORM(A)=   0.11146058D+01
 Iteration Nr.  19
 **********************
 DD1Dir will call FoFMem   1 times, MxPair=       132
 NAB=    66 NAA=     0 NBB=     0.
 DE(Corr)= -0.70212409     E(CORR)=     -599.31922250     Delta= 5.28D-08
 NORM(A)=   0.11146057D+01
 Iteration Nr.  20
 **********************
 DD1Dir will call FoFMem   1 times, MxPair=       132
 NAB=    66 NAA=     0 NBB=     0.
 DE(Corr)= -0.70212409     E(CORR)=     -599.31922251     Delta=-2.46D-09
 NORM(A)=   0.11146056D+01
 Iteration Nr.  21
 **********************
 DD1Dir will call FoFMem   1 times, MxPair=       132
 NAB=    66 NAA=     0 NBB=     0.
 DE(Corr)= -0.70212407     E(CORR)=     -599.31922249     Delta= 1.90D-08
 NORM(A)=   0.11146056D+01
 Iteration Nr.  22
 **********************
 DD1Dir will call FoFMem   1 times, MxPair=       132
 NAB=    66 NAA=     0 NBB=     0.
 DE(Corr)= -0.70212407     E(CORR)=     -599.31922248     Delta= 3.55D-09
 NORM(A)=   0.11146056D+01
 Iteration Nr.  23
 **********************
 DD1Dir will call FoFMem   1 times, MxPair=       132
 NAB=    66 NAA=     0 NBB=     0.
 DE(Corr)= -0.70212406     E(CORR)=     -599.31922248     Delta= 4.84D-09
 NORM(A)=   0.11146056D+01
 Iteration Nr.  24
 **********************
 DD1Dir will call FoFMem   1 times, MxPair=       132
 NAB=    66 NAA=     0 NBB=     0.
 DE(Corr)= -0.70212406     E(CORR)=     -599.31922248     Delta=-1.33D-09
 NORM(A)=   0.11146056D+01
 Iteration Nr.  25
 **********************
 DD1Dir will call FoFMem   1 times, MxPair=       132
 NAB=    66 NAA=     0 NBB=     0.
 DE(Corr)= -0.70212406     E(CORR)=     -599.31922247     Delta= 4.98D-09
 NORM(A)=   0.11146056D+01
 Iteration Nr.  26
 **********************
 DD1Dir will call FoFMem   1 times, MxPair=       132
 NAB=    66 NAA=     0 NBB=     0.
 DE(Corr)= -0.70212406     E(CORR)=     -599.31922248     Delta=-4.44D-09
 NORM(A)=   0.11146056D+01
 Iteration Nr.  27
 **********************
 DD1Dir will call FoFMem   1 times, MxPair=       132
 NAB=    66 NAA=     0 NBB=     0.
 DE(Corr)= -0.70212406     E(CORR)=     -599.31922248     Delta= 3.88D-09
 NORM(A)=   0.11146056D+01
 Iteration Nr.  28
 **********************
 DD1Dir will call FoFMem   1 times, MxPair=       132
 NAB=    66 NAA=     0 NBB=     0.
 DE(Corr)= -0.70212406     E(CORR)=     -599.31922248     Delta=-3.82D-09
 NORM(A)=   0.11146056D+01
 Largest amplitude= 6.61D-02

 Z-AMPLITUDE ITERATIONS

 Iteration Nr.   1
 **********************
 DD1Dir will call FoFMem   1 times, MxPair=       132
 NAB=    66 NAA=     0 NBB=     0.
 DE(Z)  -0.68272057D+00          E(Z)=    -0.59929981899D+03
 NORM(A)=   0.10892335D+01
 Iteration Nr.   2
 **********************
 DD1Dir will call FoFMem   1 times, MxPair=       132
 NAB=    66 NAA=     0 NBB=     0.
 DE(Z)  -0.67970290D+00          E(Z)=    -0.59929680131D+03
 NORM(A)=   0.11159307D+01
 Iteration Nr.   3
 **********************
 DD1Dir will call FoFMem   1 times, MxPair=       132
 NAB=    66 NAA=     0 NBB=     0.
 DE(Z)  -0.68284606D+00          E(Z)=    -0.59929994447D+03
 NORM(A)=   0.11165330D+01
 Iteration Nr.   4
 **********************
 DD1Dir will call FoFMem   1 times, MxPair=       132
 NAB=    66 NAA=     0 NBB=     0.
 DE(Z)  -0.68291192D+00          E(Z)=    -0.59930001033D+03
 NORM(A)=   0.11136282D+01
 Iteration Nr.   5
 **********************
 DD1Dir will call FoFMem   1 times, MxPair=       132
 NAB=    66 NAA=     0 NBB=     0.
 DE(Z)  -0.68262495D+00          E(Z)=    -0.59929972337D+03
 NORM(A)=   0.11079438D+01
 Iteration Nr.   6
 **********************
 DD1Dir will call FoFMem   1 times, MxPair=       132
 NAB=    66 NAA=     0 NBB=     0.
 DE(Z)  -0.68205117D+00          E(Z)=    -0.59929914959D+03
 NORM(A)=   0.11079372D+01
 Iteration Nr.   7
 **********************
 DD1Dir will call FoFMem   1 times, MxPair=       132
 NAB=    66 NAA=     0 NBB=     0.
 DE(Z)  -0.68205376D+00          E(Z)=    -0.59929915218D+03
 NORM(A)=   0.11079337D+01
 Iteration Nr.   8
 **********************
 DD1Dir will call FoFMem   1 times, MxPair=       132
 NAB=    66 NAA=     0 NBB=     0.
 DE(Z)  -0.68205149D+00          E(Z)=    -0.59929914991D+03
 NORM(A)=   0.11079296D+01
 Iteration Nr.   9
 **********************
 DD1Dir will call FoFMem   1 times, MxPair=       132
 NAB=    66 NAA=     0 NBB=     0.
 DE(Z)  -0.68205152D+00          E(Z)=    -0.59929914994D+03
 NORM(A)=   0.11079287D+01
 Iteration Nr.  10
 **********************
 DD1Dir will call FoFMem   1 times, MxPair=       132
 NAB=    66 NAA=     0 NBB=     0.
 DE(Z)  -0.68205146D+00          E(Z)=    -0.59929914988D+03
 NORM(A)=   0.11079284D+01
 Iteration Nr.  11
 **********************
 DD1Dir will call FoFMem   1 times, MxPair=       132
 NAB=    66 NAA=     0 NBB=     0.
 DE(Z)  -0.68205145D+00          E(Z)=    -0.59929914987D+03
 NORM(A)=   0.11079283D+01
 Iteration Nr.  12
 **********************
 DD1Dir will call FoFMem   1 times, MxPair=       132
 NAB=    66 NAA=     0 NBB=     0.
 DE(Z)  -0.68205147D+00          E(Z)=    -0.59929914989D+03
 NORM(A)=   0.11079284D+01
 Iteration Nr.  13
 **********************
 DD1Dir will call FoFMem   1 times, MxPair=       132
 NAB=    66 NAA=     0 NBB=     0.
 DE(Z)  -0.68205151D+00          E(Z)=    -0.59929914993D+03
 NORM(A)=   0.11079284D+01
 Iteration Nr.  14
 **********************
 DD1Dir will call FoFMem   1 times, MxPair=       132
 NAB=    66 NAA=     0 NBB=     0.
 DE(Z)  -0.68205150D+00          E(Z)=    -0.59929914992D+03
 NORM(A)=   0.11079284D+01
 Iteration Nr.  15
 **********************
 DD1Dir will call FoFMem   1 times, MxPair=       132
 NAB=    66 NAA=     0 NBB=     0.
 DE(Z)  -0.68205152D+00          E(Z)=    -0.59929914993D+03
 NORM(A)=   0.11079283D+01
 Iteration Nr.  16
 **********************
 DD1Dir will call FoFMem   1 times, MxPair=       132
 NAB=    66 NAA=     0 NBB=     0.
 DE(Z)  -0.68205151D+00          E(Z)=    -0.59929914993D+03
 NORM(A)=   0.11079283D+01
 Iteration Nr.  17
 **********************
 DD1Dir will call FoFMem   1 times, MxPair=       132
 NAB=    66 NAA=     0 NBB=     0.
 DE(Z)  -0.68205151D+00          E(Z)=    -0.59929914993D+03
 NORM(A)=   0.11079284D+01
 Iteration Nr.  18
 **********************
 DD1Dir will call FoFMem   1 times, MxPair=       132
 NAB=    66 NAA=     0 NBB=     0.
 DE(Z)  -0.68205153D+00          E(Z)=    -0.59929914994D+03
 NORM(A)=   0.11079284D+01
 Iteration Nr.  19
 **********************
 DD1Dir will call FoFMem   1 times, MxPair=       132
 NAB=    66 NAA=     0 NBB=     0.
 DE(Z)  -0.68205152D+00          E(Z)=    -0.59929914994D+03
 NORM(A)=   0.11079282D+01
 Iteration Nr.  20
 **********************
 DD1Dir will call FoFMem   1 times, MxPair=       132
 NAB=    66 NAA=     0 NBB=     0.
 DE(Z)  -0.68205152D+00          E(Z)=    -0.59929914994D+03
 NORM(A)=   0.11079283D+01
 Iteration Nr.  21
 **********************
 DD1Dir will call FoFMem   1 times, MxPair=       132
 NAB=    66 NAA=     0 NBB=     0.
 DE(Z)  -0.68205145D+00          E(Z)=    -0.59929914986D+03
 NORM(A)=   0.11079283D+01
 Iteration Nr.  22
 **********************
 DD1Dir will call FoFMem   1 times, MxPair=       132
 NAB=    66 NAA=     0 NBB=     0.
 DE(Z)  -0.68205151D+00          E(Z)=    -0.59929914993D+03
 NORM(A)=   0.11079283D+01
 Iteration Nr.  23
 **********************
 DD1Dir will call FoFMem   1 times, MxPair=       132
 NAB=    66 NAA=     0 NBB=     0.
 DE(Z)  -0.68205151D+00          E(Z)=    -0.59929914993D+03
 NORM(A)=   0.11079283D+01
 Discarding MO integrals.
          Differentiating once with respect to electric field.
                with respect to dipole field.
          Electric field/nuclear overlap derivatives assumed to be zero.
          Keep R1 ints in memory in canonical form, NReq=448662239.
          There are     1 degrees of freedom in the 1st order CPHF.  IDoFFX=0.
 LinEq1:  Iter=  0 NonCon=     1 RMS=3.11D-03 Max=1.20D-01
 AX will form     1 AO Fock derivatives at one time.
 LinEq1:  Iter=  1 NonCon=     1 RMS=6.95D-04 Max=9.28D-03
 LinEq1:  Iter=  2 NonCon=     1 RMS=2.30D-04 Max=5.73D-03
 LinEq1:  Iter=  3 NonCon=     1 RMS=9.49D-05 Max=1.42D-03
 LinEq1:  Iter=  4 NonCon=     1 RMS=3.84D-05 Max=4.11D-04
 LinEq1:  Iter=  5 NonCon=     1 RMS=1.06D-05 Max=2.27D-04
 LinEq1:  Iter=  6 NonCon=     1 RMS=2.43D-06 Max=4.26D-05
 LinEq1:  Iter=  7 NonCon=     1 RMS=6.07D-07 Max=9.15D-06
 LinEq1:  Iter=  8 NonCon=     1 RMS=1.50D-07 Max=1.80D-06
 LinEq1:  Iter=  9 NonCon=     1 RMS=3.04D-08 Max=7.50D-07
 LinEq1:  Iter= 10 NonCon=     1 RMS=6.56D-09 Max=8.73D-08
 LinEq1:  Iter= 11 NonCon=     1 RMS=1.06D-09 Max=1.16D-08
 LinEq1:  Iter= 12 NonCon=     1 RMS=1.69D-10 Max=2.85D-09
 LinEq1:  Iter= 13 NonCon=     0 RMS=2.41D-11 Max=3.22D-10
 Linear equations converged to 1.000D-10 1.000D-09 after    13 iterations.
 End of Minotr Frequency-dependent properties file   721 does not exist.
 End of Minotr Frequency-dependent properties file   722 does not exist.

 **********************************************************************

            Population analysis using the QCI/CC density.

 **********************************************************************

     Natural Orbital Coefficients:
                           1         2         3         4         5
     Eigenvalues --     2.00003   2.00003   2.00002   2.00001   2.00001
   1 1   C  1S          0.00004  -0.00003  -0.04331   0.07976   0.97624
   2        2S          0.00000   0.00000   0.00131   0.00051  -0.01332
   3        3S          0.00000  -0.00001  -0.00132   0.00398   0.03983
   4        4S         -0.00015   0.00009  -0.01262  -0.02354   0.00317
   5        5S         -0.00001   0.00001  -0.00119  -0.00060  -0.00059
   6        6PX         0.00005   0.00000   0.00000   0.00000   0.00002
   7        6PY         0.00000   0.00005   0.00000   0.00000   0.00001
   8        6PZ         0.00000   0.00000   0.00053   0.00168   0.00087
   9        7PX         0.00083   0.00001   0.00002   0.00002  -0.00005
  10        7PY        -0.00001   0.00085   0.00001   0.00001   0.00001
  11        7PZ         0.00000   0.00000   0.00141   0.00304  -0.00090
  12        8PX         0.00452   0.00005   0.00004   0.00007  -0.00006
  13        8PY        -0.00005   0.00457  -0.00002  -0.00001   0.00002
  14        8PZ         0.00001  -0.00001  -0.00373  -0.00409  -0.00309
  15        9PX         0.00043   0.00000   0.00000   0.00000   0.00000
  16        9PY        -0.00001   0.00042   0.00000   0.00000   0.00000
  17        9PZ         0.00000   0.00000   0.00021   0.00017  -0.00049
  18       10D 0        0.00000   0.00000   0.00011   0.00033  -0.00057
  19       10D+1       -0.00015   0.00000   0.00000   0.00000   0.00000
  20       10D-1        0.00000  -0.00015   0.00000   0.00000   0.00000
  21       10D+2        0.00000   0.00004   0.00000   0.00000  -0.00001
  22       10D-2        0.00004   0.00000   0.00000   0.00000   0.00000
  23       11D 0        0.00001  -0.00001   0.00022  -0.00008  -0.00030
  24       11D+1        0.00025   0.00000   0.00000  -0.00001   0.00001
  25       11D-1       -0.00001   0.00025   0.00000   0.00000   0.00000
  26       11D+2       -0.00002   0.00101   0.00001   0.00002   0.00001
  27       11D-2        0.00100   0.00002   0.00001   0.00001  -0.00003
  28       12D 0       -0.00001   0.00003  -0.00078   0.00122  -0.00235
  29       12D+1       -0.00130  -0.00002   0.00001   0.00001  -0.00001
  30       12D-1        0.00001  -0.00131  -0.00001  -0.00001   0.00001
  31       12D+2       -0.00002   0.00162  -0.00001   0.00001   0.00001
  32       12D-2        0.00161   0.00004   0.00001   0.00001  -0.00002
  33       13F 0        0.00000   0.00000   0.00001   0.00003   0.00019
  34       13F+1       -0.00019   0.00000   0.00000   0.00000   0.00000
  35       13F-1        0.00000  -0.00019   0.00000   0.00000   0.00000
  36       13F+2        0.00000   0.00002   0.00000   0.00000   0.00000
  37       13F-2        0.00002   0.00000   0.00000   0.00000   0.00000
  38       13F+3        0.00000   0.00000   0.00000   0.00000  -0.00001
  39       13F-3        0.00000   0.00000  -0.00006   0.00007   0.00090
  40       14F 0        0.00000   0.00000  -0.00112  -0.00215  -0.00019
  41       14F+1        0.00057   0.00001   0.00000   0.00000   0.00001
  42       14F-1        0.00000   0.00058   0.00000   0.00000   0.00000
  43       14F+2       -0.00001   0.00034   0.00000   0.00000   0.00000
  44       14F-2        0.00034   0.00001   0.00000   0.00000   0.00001
  45       14F+3       -0.00001  -0.00001   0.00001   0.00001   0.00001
  46       14F-3       -0.00001   0.00002  -0.00086  -0.00136  -0.00189
  47 2   H  1S          0.00000  -0.00016  -0.00002  -0.00035  -0.00135
  48        2S          0.00001   0.00117   0.00245   0.00334  -0.00070
  49        3S         -0.00010   0.00870   0.00180   0.00531  -0.00436
  50        4S          0.00000  -0.00027   0.00011   0.00010  -0.00014
  51        5PX         0.00000   0.00000   0.00000   0.00000   0.00000
  52        5PY         0.00000   0.00003   0.00004  -0.00003  -0.00048
  53        5PZ         0.00000   0.00001   0.00001   0.00002  -0.00009
  54        6PX         0.00018   0.00000   0.00001   0.00001   0.00000
  55        6PY        -0.00001   0.00066   0.00046   0.00071  -0.00081
  56        6PZ        -0.00001   0.00062  -0.00001  -0.00010   0.00024
  57        7PX         0.00091   0.00002   0.00001   0.00001  -0.00002
  58        7PY        -0.00002   0.00209   0.00053   0.00135  -0.00102
  59        7PZ        -0.00001   0.00027   0.00047   0.00092  -0.00005
  60        8D 0        0.00000   0.00004   0.00001   0.00006   0.00014
  61        8D+1       -0.00001   0.00000   0.00000   0.00000   0.00000
  62        8D-1        0.00000   0.00009   0.00002   0.00005  -0.00004
  63        8D+2        0.00000  -0.00005  -0.00004  -0.00005   0.00028
  64        8D-2        0.00001   0.00000   0.00000   0.00000   0.00000
  65        9D 0        0.00000   0.00038   0.00015   0.00025   0.00062
  66        9D+1        0.00025   0.00000   0.00000   0.00000   0.00000
  67        9D-1        0.00000   0.00013  -0.00014  -0.00025   0.00001
  68        9D+2        0.00000  -0.00013   0.00001   0.00002  -0.00010
  69        9D-2        0.00012   0.00000   0.00000   0.00000  -0.00001
  70 3   H  1S         -0.00014   0.00008  -0.00002  -0.00035  -0.00135
  71        2S          0.00105  -0.00061   0.00247   0.00334  -0.00076
  72        3S          0.00755  -0.00426   0.00189   0.00536  -0.00445
  73        4S         -0.00023   0.00013   0.00011   0.00009  -0.00013
  74        5PX         0.00003  -0.00001   0.00004  -0.00002  -0.00042
  75        5PY        -0.00001   0.00001  -0.00002   0.00001   0.00024
  76        5PZ         0.00001  -0.00001   0.00001   0.00002  -0.00009
  77        6PX         0.00054  -0.00020   0.00040   0.00061  -0.00072
  78        6PY        -0.00020   0.00032  -0.00023  -0.00035   0.00041
  79        6PZ         0.00054  -0.00030  -0.00001  -0.00010   0.00023
  80        7PX         0.00180  -0.00049   0.00048   0.00119  -0.00090
  81        7PY        -0.00052   0.00122  -0.00028  -0.00068   0.00052
  82        7PZ         0.00024  -0.00013   0.00048   0.00093  -0.00007
  83        8D 0        0.00003  -0.00002   0.00001   0.00006   0.00014
  84        8D+1        0.00007  -0.00005   0.00002   0.00004  -0.00003
  85        8D-1       -0.00005   0.00001  -0.00001  -0.00002   0.00002
  86        8D+2        0.00003   0.00000   0.00002   0.00003  -0.00014
  87        8D-2       -0.00003   0.00003  -0.00004  -0.00005   0.00024
  88        9D 0        0.00034  -0.00020   0.00015   0.00025   0.00063
  89        9D+1        0.00016   0.00006  -0.00012  -0.00022   0.00001
  90        9D-1        0.00005   0.00022   0.00007   0.00013   0.00000
  91        9D+2        0.00010   0.00006   0.00000  -0.00001   0.00005
  92        9D-2       -0.00007   0.00011   0.00001   0.00002  -0.00008
  93 4   H  1S          0.00014   0.00008  -0.00002  -0.00035  -0.00132
  94        2S         -0.00097  -0.00064   0.00242   0.00328  -0.00061
  95        3S         -0.00736  -0.00444   0.00176   0.00516  -0.00424
  96        4S          0.00023   0.00014   0.00011   0.00009  -0.00013
  97        5PX         0.00002   0.00001  -0.00004   0.00002   0.00041
  98        5PY         0.00001   0.00001  -0.00002   0.00001   0.00024
  99        5PZ        -0.00001  -0.00001   0.00001   0.00001  -0.00009
 100        6PX         0.00053   0.00022  -0.00039  -0.00059   0.00066
 101        6PY         0.00020   0.00031  -0.00024  -0.00036   0.00038
 102        6PZ        -0.00053  -0.00031  -0.00001  -0.00009   0.00023
 103        7PX         0.00176   0.00054  -0.00044  -0.00114   0.00084
 104        7PY         0.00051   0.00123  -0.00027  -0.00067   0.00052
 105        7PZ        -0.00024  -0.00013   0.00047   0.00091  -0.00006
 106        8D 0       -0.00003  -0.00002   0.00001   0.00007   0.00014
 107        8D+1        0.00007   0.00005  -0.00002  -0.00004   0.00003
 108        8D-1        0.00005   0.00001  -0.00001  -0.00002   0.00002
 109        8D+2       -0.00002  -0.00001   0.00002   0.00003  -0.00014
 110        8D-2       -0.00003  -0.00003   0.00004   0.00005  -0.00025
 111        9D 0       -0.00033  -0.00021   0.00015   0.00025   0.00061
 112        9D+1        0.00016  -0.00005   0.00012   0.00022  -0.00001
 113        9D-1       -0.00005   0.00021   0.00007   0.00013  -0.00001
 114        9D+2       -0.00010   0.00005  -0.00001  -0.00001   0.00006
 115        9D-2       -0.00007  -0.00011  -0.00001  -0.00002   0.00009
 116 5   Cl 1S         -0.00006   0.00001  -0.25063   0.14795  -0.02274
 117        2S          0.00021  -0.00003   0.84603  -0.50011   0.07796
 118        3S         -0.00001   0.00000  -0.02309   0.00933  -0.00238
 119        4S          0.00002   0.00000   0.06656  -0.04075   0.00640
 120        5S          0.00000  -0.00002  -0.00211   0.00777   0.00350
 121        6S          0.00001  -0.00001  -0.00155  -0.00213   0.00300
 122        7PX         0.97880   0.01088   0.00002   0.00043  -0.00007
 123        7PY        -0.01088   0.97880   0.00026   0.00038   0.00001
 124        7PZ        -0.00038  -0.00046   0.50066   0.83604  -0.04669
 125        8PX        -0.01915  -0.00021   0.00000  -0.00001   0.00000
 126        8PY         0.00021  -0.01915   0.00000  -0.00001   0.00000
 127        8PZ         0.00001   0.00001  -0.00878  -0.01404   0.00010
 128        9PX         0.05233   0.00058   0.00000   0.00003   0.00000
 129        9PY        -0.00058   0.05233   0.00001   0.00002   0.00000
 130        9PZ        -0.00002  -0.00002   0.02842   0.04955  -0.00265
 131       10PX        -0.00578  -0.00006   0.00000   0.00000   0.00000
 132       10PY         0.00007  -0.00577   0.00000   0.00000  -0.00001
 133       10PZ         0.00000   0.00001  -0.00434  -0.00274  -0.00346
 134       11PX        -0.00215  -0.00002   0.00000   0.00000   0.00000
 135       11PY         0.00002  -0.00214   0.00000   0.00000   0.00000
 136       11PZ         0.00000   0.00000  -0.00036  -0.00015  -0.00053
 137       12D 0        0.00000   0.00000   0.00001  -0.00051  -0.00017
 138       12D+1       -0.00032   0.00000   0.00000   0.00000   0.00000
 139       12D-1        0.00000  -0.00032   0.00000   0.00000   0.00000
 140       12D+2        0.00000   0.00001   0.00000   0.00000   0.00000
 141       12D-2        0.00001   0.00000   0.00000   0.00000   0.00000
 142       13D 0        0.00000   0.00000   0.00087   0.00243   0.00042
 143       13D+1        0.00081   0.00001   0.00000   0.00000   0.00000
 144       13D-1       -0.00001   0.00081   0.00000   0.00000   0.00000
 145       13D+2        0.00000  -0.00002   0.00000   0.00000   0.00000
 146       13D-2       -0.00002   0.00000   0.00000   0.00000   0.00000
 147       14D 0        0.00000   0.00000   0.00058  -0.00018   0.00080
 148       14D+1       -0.00071  -0.00001   0.00000   0.00000   0.00000
 149       14D-1        0.00001  -0.00071   0.00000   0.00000   0.00000
 150       14D+2        0.00000   0.00003   0.00000   0.00000   0.00000
 151       14D-2        0.00003   0.00000   0.00000   0.00000   0.00000
 152       15F 0        0.00000   0.00000   0.00001  -0.00007  -0.00003
 153       15F+1       -0.00001   0.00000   0.00000   0.00000   0.00000
 154       15F-1        0.00000  -0.00001   0.00000   0.00000   0.00000
 155       15F+2        0.00000   0.00003   0.00000   0.00000   0.00000
 156       15F-2        0.00003   0.00000   0.00000   0.00000   0.00000
 157       15F+3        0.00000   0.00000   0.00000   0.00000   0.00000
 158       15F-3        0.00000   0.00000   0.00001   0.00003   0.00000
 159       16F 0        0.00000   0.00000  -0.00031  -0.00058  -0.00031
 160       16F+1       -0.00022   0.00000   0.00000   0.00000   0.00000
 161       16F-1        0.00000  -0.00022   0.00000   0.00000   0.00000
 162       16F+2        0.00000  -0.00003   0.00000   0.00000   0.00000
 163       16F-2       -0.00003   0.00000   0.00000   0.00000   0.00000
 164       16F+3        0.00000   0.00000   0.00000   0.00000   0.00000
 165       16F-3        0.00000   0.00000  -0.00002  -0.00005   0.00002
 166 6   F  1S          0.00000   0.00000  -0.00144  -0.01040  -0.04981
 167        2S          0.00000   0.00000   0.00020   0.00043   0.00080
 168        3S          0.00000   0.00000  -0.00007  -0.00045  -0.00203
 169        4S          0.00001  -0.00001  -0.00054  -0.00105   0.00056
 170        5S          0.00001  -0.00001   0.00011  -0.00168   0.00177
 171        6PX        -0.00004   0.00000   0.00000   0.00000   0.00000
 172        6PY         0.00000  -0.00004   0.00000   0.00000   0.00000
 173        6PZ         0.00000   0.00000   0.00058   0.00111   0.00011
 174        7PX        -0.00001   0.00000   0.00000   0.00000   0.00000
 175        7PY         0.00000  -0.00001   0.00000   0.00000   0.00000
 176        7PZ         0.00000   0.00000   0.00069   0.00132   0.00002
 177        8PX        -0.00024   0.00000   0.00000   0.00000   0.00000
 178        8PY         0.00000  -0.00024   0.00000   0.00000   0.00000
 179        8PZ         0.00000   0.00000   0.00008   0.00017   0.00048
 180        9PX        -0.00036   0.00000   0.00000   0.00000   0.00000
 181        9PY         0.00000  -0.00036   0.00000   0.00000   0.00000
 182        9PZ         0.00000   0.00000   0.00017  -0.00009   0.00071
 183       10D 0        0.00000   0.00000   0.00001   0.00001  -0.00002
 184       10D+1       -0.00001   0.00000   0.00000   0.00000   0.00000
 185       10D-1        0.00000  -0.00001   0.00000   0.00000   0.00000
 186       10D+2        0.00000   0.00001   0.00000   0.00000   0.00000
 187       10D-2        0.00001   0.00000   0.00000   0.00000   0.00000
 188       11D 0        0.00000   0.00000  -0.00003  -0.00010   0.00001
 189       11D+1        0.00005   0.00000   0.00000   0.00000   0.00000
 190       11D-1        0.00000   0.00005   0.00000   0.00000   0.00000
 191       11D+2        0.00000  -0.00003   0.00000   0.00000   0.00000
 192       11D-2       -0.00003   0.00000   0.00000   0.00000   0.00000
 193       12D 0        0.00000   0.00000  -0.00019  -0.00012   0.00011
 194       12D+1       -0.00022   0.00000   0.00000   0.00000   0.00000
 195       12D-1        0.00000  -0.00022   0.00000   0.00000   0.00000
 196       12D+2        0.00000   0.00011   0.00000   0.00000   0.00000
 197       12D-2        0.00011   0.00000   0.00000   0.00000   0.00000
 198       13F 0        0.00000   0.00000   0.00001  -0.00001  -0.00004
 199       13F+1        0.00002   0.00000   0.00000   0.00000   0.00000
 200       13F-1        0.00000   0.00002   0.00000   0.00000   0.00000
 201       13F+2        0.00000  -0.00002   0.00000   0.00000   0.00000
 202       13F-2       -0.00002   0.00000   0.00000   0.00000   0.00000
 203       13F+3        0.00000   0.00000   0.00000   0.00000   0.00000
 204       13F-3        0.00000   0.00000   0.00000   0.00000   0.00000
 205       14F 0        0.00000   0.00000  -0.00004   0.00002   0.00013
 206       14F+1       -0.00006   0.00000   0.00000   0.00000   0.00000
 207       14F-1        0.00000  -0.00006   0.00000   0.00000   0.00000
 208       14F+2        0.00000   0.00004   0.00000   0.00000   0.00000
 209       14F-2        0.00004   0.00000   0.00000   0.00000   0.00000
 210       14F+3        0.00000   0.00000   0.00000   0.00000   0.00000
 211       14F-3        0.00000   0.00000   0.00000  -0.00001  -0.00001
                           6         7         8         9        10
     Eigenvalues --     2.00000   2.00000   1.98361   1.97542   1.96944
   1 1   C  1S          0.05043  -0.00046   0.01536  -0.07288  -0.14388
   2        2S         -0.00012  -0.00001  -0.04185   0.19775   0.39778
   3        3S          0.00230  -0.00003  -0.01036   0.04586   0.09623
   4        4S         -0.00697   0.00016   0.00568   0.07847   0.19100
   5        5S         -0.00016   0.00010   0.00785  -0.00677  -0.02891
   6        6PX         0.00000   0.00000   0.00008  -0.00061  -0.00236
   7        6PY         0.00000   0.00000   0.00003  -0.00016  -0.00056
   8        6PZ         0.00004   0.00000   0.00645   0.01045  -0.02715
   9        7PX         0.00000   0.00000   0.00013  -0.00079  -0.00305
  10        7PY         0.00000   0.00000   0.00002  -0.00016  -0.00063
  11        7PZ        -0.00075   0.00000   0.00705   0.01804  -0.03235
  12        8PX         0.00001   0.00000   0.00001  -0.00033  -0.00176
  13        8PY        -0.00001   0.00000   0.00009  -0.00038  -0.00086
  14        8PZ         0.00518   0.00009   0.01656   0.00592  -0.02272
  15        9PX         0.00000   0.00000  -0.00001   0.00001  -0.00004
  16        9PY         0.00000   0.00000   0.00002  -0.00004  -0.00011
  17        9PZ         0.00011   0.00001  -0.00071   0.00034  -0.00407
  18       10D 0        0.00004   0.00000   0.00050  -0.00210  -0.00955
  19       10D+1        0.00000   0.00000   0.00000   0.00001   0.00004
  20       10D-1        0.00000   0.00000   0.00000   0.00000   0.00000
  21       10D+2        0.00000   0.00000   0.00001  -0.00005  -0.00012
  22       10D-2        0.00000   0.00000   0.00000  -0.00002  -0.00012
  23       11D 0       -0.00023  -0.00002  -0.00529   0.00468  -0.01873
  24       11D+1        0.00000   0.00000  -0.00003   0.00004   0.00007
  25       11D-1        0.00000   0.00000   0.00000   0.00000  -0.00001
  26       11D+2        0.00000   0.00000   0.00000  -0.00014  -0.00035
  27       11D-2        0.00000   0.00000   0.00004  -0.00007  -0.00031
  28       12D 0        0.00027   0.00008   0.00206  -0.00835  -0.01670
  29       12D+1       -0.00001   0.00000  -0.00002  -0.00004  -0.00002
  30       12D-1        0.00001   0.00000   0.00001   0.00003   0.00002
  31       12D+2       -0.00001   0.00000  -0.00007  -0.00006  -0.00014
  32       12D-2        0.00000   0.00000   0.00006  -0.00010  -0.00033
  33       13F 0       -0.00007   0.00000   0.00001   0.00242   0.00065
  34       13F+1        0.00000   0.00000   0.00000   0.00000   0.00001
  35       13F-1        0.00000   0.00000   0.00000   0.00000  -0.00001
  36       13F+2        0.00000   0.00000   0.00000   0.00000   0.00001
  37       13F-2        0.00000   0.00000   0.00000   0.00000  -0.00001
  38       13F+3        0.00000   0.00000   0.00000  -0.00002  -0.00003
  39       13F-3        0.00001   0.00000  -0.00014   0.00194   0.00400
  40       14F 0        0.00126  -0.00001   0.00470   0.00261  -0.00198
  41       14F+1        0.00000   0.00000   0.00001   0.00001   0.00004
  42       14F-1        0.00000   0.00000  -0.00001   0.00002   0.00002
  43       14F+2        0.00000   0.00000   0.00001   0.00002   0.00002
  44       14F-2        0.00000   0.00000  -0.00002   0.00001   0.00002
  45       14F+3        0.00000   0.00000  -0.00001   0.00001  -0.00003
  46       14F-3       -0.00044   0.00003   0.00189  -0.00102   0.00402
  47 2   H  1S         -0.00008   0.00000  -0.00857   0.03704   0.08105
  48        2S          0.00097  -0.00006  -0.01533   0.04355   0.08417
  49        3S          0.00178   0.00004  -0.00096  -0.00529  -0.01279
  50        4S          0.00003   0.00000  -0.00045   0.00047   0.00030
  51        5PX         0.00000   0.00000   0.00000  -0.00001  -0.00004
  52        5PY         0.00001   0.00000  -0.00109   0.00397   0.00867
  53        5PZ        -0.00004   0.00000   0.00028   0.00095   0.00035
  54        6PX         0.00000   0.00000   0.00001  -0.00001  -0.00010
  55        6PY         0.00007   0.00000  -0.00075   0.00080   0.00120
  56        6PZ         0.00032  -0.00001   0.00009   0.00243  -0.00051
  57        7PX         0.00000   0.00000   0.00005  -0.00007  -0.00016
  58        7PY         0.00043   0.00001   0.00134  -0.00502  -0.01050
  59        7PZ        -0.00054   0.00001  -0.00280  -0.00172  -0.00133
  60        8D 0        0.00006   0.00000   0.00014  -0.00035  -0.00092
  61        8D+1        0.00000   0.00000   0.00000   0.00000   0.00000
  62        8D-1       -0.00001   0.00000  -0.00015   0.00049   0.00024
  63        8D+2       -0.00002   0.00000   0.00003  -0.00054  -0.00137
  64        8D-2        0.00000   0.00000   0.00000   0.00000  -0.00002
  65        9D 0        0.00008  -0.00001  -0.00006   0.00121   0.00099
  66        9D+1        0.00000   0.00000   0.00000   0.00000   0.00000
  67        9D-1        0.00014   0.00000  -0.00006   0.00004  -0.00038
  68        9D+2        0.00004   0.00000  -0.00097   0.00223   0.00414
  69        9D-2        0.00000   0.00000   0.00000   0.00001   0.00000
  70 3   H  1S         -0.00008   0.00000  -0.00857   0.03713   0.08163
  71        2S          0.00098  -0.00006  -0.01526   0.04370   0.08484
  72        3S          0.00183   0.00004  -0.00083  -0.00483  -0.01250
  73        4S          0.00003   0.00000  -0.00049   0.00054   0.00044
  74        5PX         0.00001   0.00000  -0.00094   0.00344   0.00755
  75        5PY        -0.00001   0.00000   0.00054  -0.00199  -0.00439
  76        5PZ        -0.00004   0.00000   0.00028   0.00096   0.00036
  77        6PX         0.00007   0.00000  -0.00060   0.00063   0.00091
  78        6PY        -0.00004   0.00000   0.00036  -0.00042  -0.00065
  79        6PZ         0.00032  -0.00001   0.00006   0.00243  -0.00049
  80        7PX         0.00038   0.00001   0.00116  -0.00430  -0.00919
  81        7PY        -0.00023   0.00000  -0.00070   0.00243   0.00518
  82        7PZ        -0.00056   0.00001  -0.00281  -0.00175  -0.00136
  83        8D 0        0.00006   0.00000   0.00014  -0.00035  -0.00092
  84        8D+1       -0.00001   0.00000  -0.00013   0.00043   0.00021
  85        8D-1        0.00000   0.00000   0.00007  -0.00025  -0.00012
  86        8D+2        0.00001   0.00000  -0.00001   0.00027   0.00068
  87        8D-2       -0.00001   0.00000   0.00003  -0.00047  -0.00120
  88        9D 0        0.00009  -0.00001  -0.00006   0.00122   0.00102
  89        9D+1        0.00012   0.00000  -0.00005   0.00003  -0.00033
  90        9D-1       -0.00007   0.00000   0.00003  -0.00002   0.00019
  91        9D+2       -0.00002   0.00000   0.00050  -0.00114  -0.00213
  92        9D-2        0.00003   0.00000  -0.00086   0.00195   0.00362
  93 4   H  1S         -0.00008   0.00000  -0.00845   0.03633   0.07873
  94        2S          0.00097  -0.00006  -0.01531   0.04329   0.08272
  95        3S          0.00180   0.00004  -0.00098  -0.00442  -0.01068
  96        4S          0.00003   0.00000  -0.00047   0.00051   0.00043
  97        5PX        -0.00001   0.00000   0.00093  -0.00336  -0.00728
  98        5PY        -0.00001   0.00000   0.00054  -0.00197  -0.00426
  99        5PZ        -0.00004   0.00000   0.00028   0.00094   0.00033
 100        6PX        -0.00006   0.00000   0.00069  -0.00080  -0.00130
 101        6PY        -0.00004   0.00000   0.00042  -0.00052  -0.00078
 102        6PZ         0.00032  -0.00001   0.00009   0.00241  -0.00051
 103        7PX        -0.00037  -0.00001  -0.00110   0.00412   0.00851
 104        7PY        -0.00022   0.00000  -0.00074   0.00244   0.00506
 105        7PZ        -0.00054   0.00001  -0.00277  -0.00169  -0.00125
 106        8D 0        0.00006   0.00000   0.00014  -0.00034  -0.00089
 107        8D+1        0.00001   0.00000   0.00012  -0.00042  -0.00020
 108        8D-1        0.00000   0.00000   0.00007  -0.00025  -0.00011
 109        8D+2        0.00001   0.00000  -0.00002   0.00026   0.00065
 110        8D-2        0.00001   0.00000  -0.00003   0.00046   0.00118
 111        9D 0        0.00009  -0.00001  -0.00006   0.00120   0.00098
 112        9D+1       -0.00012   0.00000   0.00004  -0.00004   0.00032
 113        9D-1       -0.00007   0.00000   0.00003  -0.00002   0.00019
 114        9D+2       -0.00002   0.00000   0.00047  -0.00109  -0.00202
 115        9D-2       -0.00003   0.00000   0.00084  -0.00191  -0.00355
 116 5   Cl 1S          0.00007   0.99708  -0.00063   0.06660  -0.03457
 117        2S         -0.00007   0.01040   0.00290  -0.25237   0.12991
 118        3S          0.00005   0.00017  -0.00387   0.52563  -0.27646
 119        4S          0.00008   0.00026  -0.00025   0.06441  -0.03727
 120        5S         -0.00181  -0.00020  -0.01227   0.35153  -0.16937
 121        6S         -0.00050  -0.00011  -0.00461   0.02449   0.01139
 122        7PX         0.00000   0.00000   0.00000   0.00002   0.00014
 123        7PY         0.00000   0.00000   0.00000   0.00001   0.00003
 124        7PZ         0.00734   0.00016   0.00153   0.00452   0.02890
 125        8PX         0.00000   0.00000   0.00000  -0.00006  -0.00035
 126        8PY         0.00000   0.00000   0.00000  -0.00002  -0.00007
 127        8PZ         0.00051  -0.00003  -0.00228  -0.00584  -0.07229
 128        9PX         0.00000   0.00000   0.00000  -0.00002  -0.00015
 129        9PY         0.00000   0.00000   0.00000  -0.00001  -0.00003
 130        9PZ         0.00032   0.00003  -0.00264   0.00076  -0.03149
 131       10PX         0.00000   0.00000   0.00000  -0.00001  -0.00012
 132       10PY         0.00000   0.00000  -0.00001  -0.00001  -0.00002
 133       10PZ         0.00095   0.00015   0.00271   0.00314  -0.05250
 134       11PX         0.00000   0.00000   0.00000   0.00000   0.00000
 135       11PY         0.00000   0.00000   0.00000   0.00000   0.00001
 136       11PZ         0.00002   0.00002  -0.00040   0.00265  -0.00876
 137       12D 0       -0.00003   0.00001  -0.00035   0.00447   0.00455
 138       12D+1        0.00000   0.00000   0.00000   0.00001   0.00005
 139       12D-1        0.00000   0.00000   0.00000   0.00001   0.00002
 140       12D+2        0.00000   0.00000   0.00000   0.00000   0.00000
 141       12D-2        0.00000   0.00000   0.00000   0.00000   0.00000
 142       13D 0       -0.00022   0.00000  -0.00163   0.00817   0.00974
 143       13D+1        0.00000   0.00000   0.00000   0.00002   0.00008
 144       13D-1        0.00000   0.00000   0.00000   0.00001   0.00002
 145       13D+2        0.00000   0.00000   0.00000   0.00000   0.00000
 146       13D-2        0.00000   0.00000   0.00000   0.00000  -0.00001
 147       14D 0       -0.00014  -0.00004  -0.00184  -0.00019   0.00540
 148       14D+1        0.00000   0.00000   0.00000   0.00000   0.00000
 149       14D-1        0.00000   0.00000   0.00000   0.00000   0.00000
 150       14D+2        0.00000   0.00000   0.00000   0.00000   0.00000
 151       14D-2        0.00000   0.00000   0.00000   0.00001   0.00001
 152       15F 0        0.00005   0.00000   0.00023  -0.00179  -0.00192
 153       15F+1        0.00000   0.00000   0.00000  -0.00001  -0.00002
 154       15F-1        0.00000   0.00000   0.00000   0.00000  -0.00001
 155       15F+2        0.00000   0.00000   0.00000   0.00000   0.00000
 156       15F-2        0.00000   0.00000   0.00000   0.00000   0.00000
 157       15F+3        0.00000   0.00000   0.00000   0.00000   0.00000
 158       15F-3       -0.00001   0.00000  -0.00001   0.00002   0.00009
 159       16F 0       -0.00005   0.00001   0.00005  -0.00093  -0.00172
 160       16F+1        0.00000   0.00000   0.00000   0.00000  -0.00001
 161       16F-1        0.00000   0.00000   0.00000   0.00000   0.00000
 162       16F+2        0.00000   0.00000   0.00000   0.00000   0.00000
 163       16F-2        0.00000   0.00000   0.00000   0.00000   0.00000
 164       16F+3        0.00000   0.00000   0.00000   0.00000   0.00000
 165       16F-3        0.00003   0.00000   0.00002   0.00000  -0.00021
 166 6   F  1S          0.97742  -0.00002   0.21189   0.01304   0.02159
 167        2S         -0.01503   0.00000  -0.53163  -0.03374  -0.05726
 168        3S          0.04206   0.00000  -0.16471  -0.01071  -0.01852
 169        4S          0.00193  -0.00001  -0.36878  -0.02341  -0.04388
 170        5S         -0.00084  -0.00006  -0.04529   0.00418   0.00783
 171        6PX         0.00000   0.00000  -0.00002  -0.00009  -0.00083
 172        6PY         0.00000   0.00000   0.00002  -0.00002  -0.00011
 173        6PZ         0.00048   0.00000   0.01353   0.01250   0.08777
 174        7PX         0.00000   0.00000  -0.00002  -0.00012  -0.00099
 175        7PY         0.00000   0.00000   0.00002  -0.00002  -0.00014
 176        7PZ        -0.00012   0.00000   0.01476   0.01527   0.10560
 177        8PX         0.00000   0.00000  -0.00002  -0.00008  -0.00076
 178        8PY         0.00000   0.00000   0.00001  -0.00001  -0.00009
 179        8PZ         0.00240  -0.00001   0.01248   0.01206   0.08400
 180        9PX         0.00000   0.00000   0.00000  -0.00002  -0.00021
 181        9PY         0.00000   0.00000   0.00000   0.00000  -0.00002
 182        9PZ        -0.00008  -0.00002   0.00220   0.00310   0.02432
 183       10D 0       -0.00002   0.00000  -0.00013   0.00017   0.00060
 184       10D+1        0.00000   0.00000   0.00000   0.00000   0.00000
 185       10D-1        0.00000   0.00000   0.00000   0.00000   0.00000
 186       10D+2        0.00000   0.00000   0.00000   0.00000   0.00000
 187       10D-2        0.00000   0.00000   0.00000   0.00000   0.00000
 188       11D 0       -0.00003   0.00000  -0.00104   0.00090   0.00276
 189       11D+1        0.00000   0.00000   0.00000   0.00000  -0.00002
 190       11D-1        0.00000   0.00000   0.00000   0.00000   0.00000
 191       11D+2        0.00000   0.00000   0.00000   0.00000   0.00000
 192       11D-2        0.00000   0.00000   0.00000   0.00000   0.00000
 193       12D 0        0.00080   0.00000  -0.00055   0.00034   0.00388
 194       12D+1        0.00000   0.00000   0.00000   0.00000  -0.00001
 195       12D-1        0.00000   0.00000   0.00000   0.00000   0.00001
 196       12D+2        0.00000   0.00000   0.00001   0.00000   0.00000
 197       12D-2        0.00000   0.00000   0.00000   0.00000   0.00001
 198       13F 0       -0.00006   0.00000  -0.00002   0.00013   0.00027
 199       13F+1        0.00000   0.00000   0.00000   0.00000   0.00000
 200       13F-1        0.00000   0.00000   0.00000   0.00000   0.00000
 201       13F+2        0.00000   0.00000   0.00000   0.00000   0.00000
 202       13F-2        0.00000   0.00000   0.00000   0.00000   0.00000
 203       13F+3        0.00000   0.00000   0.00000   0.00000   0.00000
 204       13F-3        0.00001   0.00000   0.00001   0.00002   0.00003
 205       14F 0        0.00020   0.00000  -0.00040  -0.00006   0.00063
 206       14F+1        0.00000   0.00000   0.00000   0.00000   0.00000
 207       14F-1        0.00000   0.00000   0.00000   0.00000   0.00000
 208       14F+2        0.00000   0.00000   0.00000   0.00000   0.00000
 209       14F-2        0.00000   0.00000   0.00000   0.00000   0.00000
 210       14F+3        0.00000   0.00000   0.00000   0.00000   0.00000
 211       14F-3       -0.00001   0.00000  -0.00007  -0.00006  -0.00009
                          11        12        13        14        15
     Eigenvalues --     1.96436   1.96434   1.95923   1.95909   1.94911
   1 1   C  1S         -0.00015  -0.00085  -0.00014  -0.00089   0.00024
   2        2S          0.00045   0.00233   0.00044   0.00242  -0.00067
   3        3S          0.00011   0.00051   0.00012   0.00047  -0.00016
   4        4S          0.00061   0.00057   0.00093  -0.00060  -0.00105
   5        5S          0.00011  -0.00033   0.00038  -0.00053  -0.00009
   6        6PX         0.03328   0.08919   0.06604   0.22190   0.02442
   7        6PY        -0.09208   0.03271  -0.22137   0.06586  -0.06345
   8        6PZ         0.00000  -0.00014   0.00005  -0.00016  -0.00022
   9        7PX         0.04460   0.11960   0.08756   0.29416   0.03393
  10        7PY        -0.12342   0.04387  -0.29347   0.08729  -0.08821
  11        7PZ        -0.00001  -0.00013   0.00007  -0.00022  -0.00031
  12        8PX         0.03282   0.08752   0.06774   0.22704   0.02616
  13        8PY        -0.09007   0.03182  -0.22617   0.06710  -0.06772
  14        8PZ         0.00003  -0.00016   0.00001  -0.00024  -0.00032
  15        9PX        -0.00069  -0.00222   0.00548   0.01815   0.00441
  16        9PY         0.00216  -0.00091  -0.01804   0.00529  -0.01141
  17        9PZ         0.00001  -0.00003   0.00000  -0.00003   0.00001
  18       10D 0        0.00000  -0.00004   0.00001  -0.00001   0.00005
  19       10D+1       -0.00092  -0.00251  -0.00036  -0.00122  -0.00133
  20       10D-1        0.00254  -0.00092   0.00121  -0.00036   0.00348
  21       10D+2       -0.00587   0.00201  -0.01419   0.00403  -0.00469
  22       10D-2        0.00210   0.00571   0.00420   0.01431   0.00180
  23       11D 0       -0.00002  -0.00004  -0.00001   0.00008   0.00021
  24       11D+1       -0.00433  -0.01197   0.00219   0.00725  -0.00553
  25       11D-1        0.01198  -0.00438  -0.00734   0.00215   0.01446
  26       11D+2       -0.01943   0.00670  -0.04335   0.01239  -0.01592
  27       11D-2        0.00695   0.01897   0.01280   0.04379   0.00608
  28       12D 0       -0.00012  -0.00016  -0.00002  -0.00012   0.00021
  29       12D+1       -0.00208  -0.00580   0.00161   0.00541   0.00041
  30       12D-1        0.00571  -0.00211  -0.00546   0.00162  -0.00111
  31       12D+2       -0.01879   0.00642  -0.03429   0.00975  -0.00936
  32       12D-2        0.00685   0.01857   0.01025   0.03489   0.00365
  33       13F 0        0.00000   0.00000   0.00000   0.00001  -0.00001
  34       13F+1        0.00009   0.00025  -0.00057  -0.00192  -0.00080
  35       13F-1       -0.00023   0.00008   0.00193  -0.00058   0.00209
  36       13F+2        0.00060  -0.00021   0.00012  -0.00004   0.00031
  37       13F-2       -0.00022  -0.00060  -0.00003  -0.00014  -0.00012
  38       13F+3        0.00001  -0.00001   0.00002  -0.00004   0.00001
  39       13F-3        0.00001   0.00004   0.00002   0.00006  -0.00001
  40       14F 0        0.00001  -0.00001   0.00000  -0.00003  -0.00004
  41       14F+1        0.00013   0.00042  -0.00164  -0.00553  -0.00259
  42       14F-1       -0.00036   0.00015   0.00560  -0.00167   0.00678
  43       14F+2        0.00364  -0.00129   0.00012  -0.00006   0.00302
  44       14F-2       -0.00129  -0.00363  -0.00002  -0.00016  -0.00115
  45       14F+3        0.00001  -0.00006   0.00006  -0.00020   0.00000
  46       14F-3       -0.00001  -0.00001   0.00000  -0.00004  -0.00005
  47 2   H  1S          0.06342  -0.02198   0.14525  -0.04249   0.04351
  48        2S          0.05716  -0.01964   0.14788  -0.04311   0.04290
  49        3S         -0.05432   0.01882  -0.11410   0.03324  -0.00479
  50        4S          0.00551  -0.00208  -0.01658   0.00479  -0.00101
  51        5PX         0.00071   0.00191   0.00125   0.00421   0.00038
  52        5PY         0.00498  -0.00172   0.01188  -0.00348   0.00335
  53        5PZ        -0.00003   0.00002   0.00268  -0.00079  -0.00018
  54        6PX         0.00271   0.00742   0.00387   0.01314   0.00132
  55        6PY        -0.00682   0.00245  -0.01081   0.00320  -0.00524
  56        6PZ         0.00263  -0.00095  -0.00036   0.00007   0.00108
  57        7PX         0.00314   0.00864   0.00381   0.01299   0.00102
  58        7PY        -0.01324   0.00458  -0.04365   0.01281  -0.00901
  59        7PZ        -0.00062   0.00017  -0.00725   0.00211  -0.00271
  60        8D 0       -0.00039   0.00013  -0.00130   0.00038  -0.00038
  61        8D+1        0.00001   0.00001   0.00009   0.00030  -0.00001
  62        8D-1        0.00070  -0.00025   0.00023  -0.00007   0.00027
  63        8D+2       -0.00057   0.00019  -0.00184   0.00055  -0.00048
  64        8D-2        0.00036   0.00097   0.00064   0.00217   0.00022
  65        9D 0        0.00053  -0.00019  -0.00139   0.00040   0.00014
  66        9D+1       -0.00052  -0.00146   0.00029   0.00094  -0.00041
  67        9D-1        0.00313  -0.00115  -0.00328   0.00096   0.00044
  68        9D+2        0.00152  -0.00052   0.00255  -0.00072   0.00101
  69        9D-2        0.00055   0.00154   0.00080   0.00281   0.00040
  70 3   H  1S         -0.05139  -0.04160  -0.10996  -0.10431  -0.03651
  71        2S         -0.04637  -0.03720  -0.11211  -0.10610  -0.03589
  72        3S          0.04413   0.03647   0.08638   0.08257   0.00421
  73        4S         -0.00443  -0.00376   0.01258   0.01198   0.00083
  74        5PX        -0.00416  -0.00202  -0.00929  -0.00576  -0.00277
  75        5PY         0.00085   0.00298   0.00190   0.00701   0.00083
  76        5PZ         0.00002   0.00004  -0.00203  -0.00193   0.00012
  77        6PX         0.00217   0.00699   0.00237   0.01180   0.00261
  78        6PY        -0.00726   0.00295  -0.01221   0.00475  -0.00422
  79        6PZ        -0.00210  -0.00177   0.00030   0.00026  -0.00092
  80        7PX         0.00633   0.01089   0.02411   0.03204   0.00572
  81        7PY        -0.01052   0.00162  -0.02446  -0.00735  -0.00530
  82        7PZ         0.00050   0.00036   0.00552   0.00522   0.00233
  83        8D 0        0.00031   0.00025   0.00098   0.00093   0.00032
  84        8D+1       -0.00050  -0.00041  -0.00026  -0.00003  -0.00019
  85        8D-1        0.00027   0.00025  -0.00010   0.00028   0.00013
  86        8D+2       -0.00082   0.00050  -0.00203   0.00076  -0.00053
  87        8D-2        0.00006   0.00070   0.00044   0.00196   0.00017
  88        9D 0       -0.00041  -0.00033   0.00106   0.00105  -0.00013
  89        9D+1       -0.00171  -0.00246   0.00181   0.00236   0.00007
  90        9D-1        0.00213   0.00006  -0.00183  -0.00055   0.00082
  91        9D+2       -0.00030   0.00156  -0.00073   0.00271  -0.00020
  92        9D-2       -0.00161  -0.00024  -0.00269  -0.00052  -0.00108
  93 4   H  1S         -0.01207   0.06480  -0.03563   0.14785  -0.00760
  94        2S         -0.01111   0.05913  -0.03683   0.15264  -0.00752
  95        3S          0.00966  -0.05495   0.02690  -0.11395   0.00069
  96        4S         -0.00111   0.00585   0.00393  -0.01667   0.00014
  97        5PX         0.00185  -0.00419   0.00465  -0.00986   0.00103
  98        5PY        -0.00126  -0.00289  -0.00212  -0.00701  -0.00059
  99        5PZ         0.00001  -0.00007  -0.00066   0.00270   0.00002
 100        6PX         0.00290   0.00660   0.00449   0.01084   0.00110
 101        6PY        -0.00744   0.00230  -0.01260   0.00258  -0.00361
 102        6PZ        -0.00049   0.00270   0.00004  -0.00024  -0.00017
 103        7PX         0.00242   0.01234  -0.00267   0.03978   0.00003
 104        7PY        -0.00916   0.00548  -0.01659   0.01973  -0.00320
 105        7PZ         0.00008  -0.00053   0.00177  -0.00730   0.00053
 106        8D 0        0.00007  -0.00040   0.00032  -0.00134   0.00007
 107        8D+1        0.00012  -0.00063   0.00021  -0.00018   0.00003
 108        8D-1        0.00006  -0.00037  -0.00023  -0.00019   0.00005
 109        8D+2       -0.00095   0.00013  -0.00211   0.00046  -0.00056
 110        8D-2        0.00040   0.00060   0.00063   0.00192   0.00021
 111        9D 0       -0.00012   0.00058   0.00030  -0.00142  -0.00005
 112        9D+1       -0.00025  -0.00298  -0.00021   0.00293  -0.00053
 113        9D-1        0.00160  -0.00145  -0.00124   0.00144   0.00104
 114        9D+2       -0.00129  -0.00100  -0.00215  -0.00187  -0.00090
 115        9D-2        0.00107  -0.00127   0.00194  -0.00199   0.00070
 116 5   Cl 1S         -0.00002  -0.00012  -0.00001  -0.00010   0.00005
 117        2S          0.00007   0.00044   0.00004   0.00037  -0.00019
 118        3S         -0.00016  -0.00097  -0.00007  -0.00085   0.00040
 119        4S         -0.00002  -0.00014  -0.00001  -0.00013   0.00006
 120        5S         -0.00007  -0.00051  -0.00009  -0.00043   0.00028
 121        6S         -0.00001   0.00016  -0.00011   0.00020   0.00004
 122        7PX        -0.00299  -0.00803  -0.01244  -0.04278   0.07997
 123        7PY         0.00828  -0.00295   0.04176  -0.01272  -0.20880
 124        7PZ         0.00003   0.00025   0.00002   0.00046   0.00020
 125        8PX         0.00707   0.01900   0.02939   0.10102  -0.18295
 126        8PY        -0.01962   0.00699  -0.09869   0.03003   0.47765
 127        8PZ        -0.00007  -0.00061  -0.00003  -0.00108  -0.00045
 128        9PX         0.00328   0.00882   0.01360   0.04676  -0.08837
 129        9PY        -0.00910   0.00324  -0.04565   0.01390   0.23074
 130        9PZ        -0.00003  -0.00026  -0.00002  -0.00048  -0.00022
 131       10PX         0.00352   0.00953   0.01589   0.05497  -0.13150
 132       10PY        -0.00980   0.00351  -0.05346   0.01638   0.34334
 133       10PZ        -0.00004  -0.00046   0.00004  -0.00080  -0.00042
 134       11PX         0.00072   0.00201   0.00095   0.00346  -0.02224
 135       11PY        -0.00201   0.00074  -0.00327   0.00105   0.05804
 136       11PZ         0.00000  -0.00008   0.00003  -0.00013  -0.00012
 137       12D 0        0.00001   0.00004   0.00001   0.00005  -0.00002
 138       12D+1       -0.00064  -0.00171  -0.00177  -0.00596   0.00007
 139       12D-1        0.00178  -0.00063   0.00592  -0.00177  -0.00021
 140       12D+2       -0.00011   0.00004  -0.00052   0.00015  -0.00023
 141       12D-2        0.00004   0.00010   0.00015   0.00053   0.00009
 142       13D 0        0.00001   0.00008   0.00000   0.00011  -0.00004
 143       13D+1       -0.00099  -0.00263  -0.00313  -0.01057   0.00024
 144       13D-1        0.00273  -0.00096   0.01050  -0.00314  -0.00064
 145       13D+2       -0.00030   0.00010  -0.00062   0.00018  -0.00052
 146       13D-2        0.00011   0.00030   0.00018   0.00062   0.00020
 147       14D 0       -0.00001   0.00004  -0.00001   0.00008   0.00001
 148       14D+1        0.00002   0.00006   0.00002   0.00003   0.00119
 149       14D-1       -0.00006   0.00002  -0.00003   0.00000  -0.00314
 150       14D+2        0.00061  -0.00022   0.00007  -0.00002  -0.00006
 151       14D-2       -0.00022  -0.00062  -0.00002  -0.00007   0.00002
 152       15F 0        0.00000  -0.00002   0.00000  -0.00002   0.00000
 153       15F+1        0.00030   0.00081   0.00075   0.00253  -0.00050
 154       15F-1       -0.00083   0.00030  -0.00251   0.00075   0.00131
 155       15F+2        0.00011  -0.00004   0.00033  -0.00009   0.00010
 156       15F-2       -0.00004  -0.00010  -0.00010  -0.00033  -0.00004
 157       15F+3        0.00000   0.00000   0.00000   0.00000   0.00000
 158       15F-3        0.00000   0.00000   0.00000   0.00000   0.00000
 159       16F 0        0.00000  -0.00002   0.00000  -0.00002   0.00000
 160       16F+1        0.00020   0.00054   0.00057   0.00195  -0.00064
 161       16F-1       -0.00056   0.00020  -0.00193   0.00059   0.00168
 162       16F+2       -0.00001   0.00001  -0.00018   0.00005   0.00019
 163       16F-2        0.00000   0.00002   0.00005   0.00018  -0.00007
 164       16F+3        0.00000   0.00000   0.00000   0.00000   0.00000
 165       16F-3        0.00000   0.00000   0.00000   0.00000   0.00000
 166 6   F  1S          0.00002   0.00011   0.00001   0.00009  -0.00006
 167        2S         -0.00006  -0.00031  -0.00002  -0.00027   0.00013
 168        3S         -0.00002  -0.00010  -0.00001  -0.00009   0.00004
 169        4S         -0.00003  -0.00023  -0.00005  -0.00022   0.00006
 170        5S          0.00002   0.00012  -0.00006   0.00010  -0.00005
 171        6PX         0.11380   0.31395  -0.04607  -0.15150  -0.00810
 172        6PY        -0.31205   0.11407   0.15541  -0.04525   0.02114
 173        6PZ         0.00032   0.00072   0.00004   0.00159   0.00176
 174        7PX         0.13574   0.37449  -0.05463  -0.17961  -0.00959
 175        7PY        -0.37224   0.13606   0.18428  -0.05364   0.02502
 176        7PZ         0.00039   0.00086   0.00006   0.00189   0.00210
 177        8PX         0.10974   0.30282  -0.04596  -0.15124  -0.00822
 178        8PY        -0.30095   0.11003   0.15500  -0.04516   0.02143
 179        8PZ         0.00031   0.00071   0.00002   0.00156   0.00171
 180        9PX         0.03449   0.09525  -0.01622  -0.05349  -0.00400
 181        9PY        -0.09462   0.03462   0.05464  -0.01595   0.01043
 182        9PZ         0.00010   0.00022  -0.00001   0.00046   0.00052
 183       10D 0        0.00000   0.00000   0.00000   0.00001   0.00000
 184       10D+1        0.00021   0.00056   0.00003   0.00009   0.00004
 185       10D-1       -0.00057   0.00021  -0.00009   0.00003  -0.00011
 186       10D+2       -0.00002   0.00001  -0.00003   0.00001  -0.00001
 187       10D-2        0.00001   0.00002   0.00001   0.00004   0.00000
 188       11D 0        0.00001   0.00002   0.00000   0.00003   0.00001
 189       11D+1        0.00083   0.00226   0.00035   0.00120   0.00021
 190       11D-1       -0.00228   0.00082  -0.00117   0.00036  -0.00056
 191       11D+2       -0.00005   0.00001  -0.00024   0.00007  -0.00016
 192       11D-2        0.00002   0.00005   0.00007   0.00025   0.00006
 193       12D 0        0.00001   0.00003   0.00000   0.00007   0.00005
 194       12D+1        0.00203   0.00561  -0.00101  -0.00334   0.00011
 195       12D-1       -0.00557   0.00204   0.00341  -0.00100  -0.00029
 196       12D+2       -0.00003   0.00001   0.00027  -0.00008   0.00034
 197       12D-2        0.00002   0.00004  -0.00008  -0.00027  -0.00013
 198       13F 0        0.00000   0.00000   0.00000   0.00000   0.00000
 199       13F+1        0.00007   0.00020   0.00007   0.00024   0.00002
 200       13F-1       -0.00021   0.00007  -0.00024   0.00007  -0.00006
 201       13F+2       -0.00005   0.00002  -0.00011   0.00003  -0.00006
 202       13F-2        0.00002   0.00005   0.00003   0.00011   0.00002
 203       13F+3        0.00000   0.00000   0.00000   0.00000   0.00000
 204       13F-3        0.00000   0.00000   0.00000   0.00000   0.00000
 205       14F 0        0.00000   0.00001   0.00000   0.00001   0.00001
 206       14F+1        0.00050   0.00138  -0.00025  -0.00082   0.00000
 207       14F-1       -0.00137   0.00050   0.00084  -0.00025  -0.00001
 208       14F+2        0.00012  -0.00005   0.00023  -0.00007   0.00015
 209       14F-2       -0.00004  -0.00012  -0.00007  -0.00023  -0.00006
 210       14F+3        0.00000   0.00000   0.00000   0.00000   0.00000
 211       14F-3        0.00000   0.00000   0.00000   0.00000   0.00000
                          16        17        18        19        20
     Eigenvalues --     1.94909   1.94878   1.93533   0.06020   0.02495
   1 1   C  1S          0.00123   0.05341  -0.01582  -0.02405  -0.00096
   2        2S         -0.00354  -0.15206   0.05106   0.06671   0.00350
   3        3S         -0.00088  -0.03587   0.01676   0.02432   0.00160
   4        4S         -0.00727  -0.29236   0.08712  -0.22079   0.00031
   5        5S         -0.00142  -0.05761   0.03919  -0.02878  -0.00050
   6        6PX         0.06439  -0.00232   0.00013   0.00004   0.11732
   7        6PY         0.02456  -0.00040  -0.00002   0.00013   0.10436
   8        6PZ        -0.00112  -0.04569  -0.12873   0.27944  -0.00032
   9        7PX         0.08944  -0.00327   0.00028  -0.00009   0.21845
  10        7PY         0.03414  -0.00057  -0.00001   0.00019   0.19406
  11        7PZ        -0.00157  -0.06471  -0.18064   0.44337  -0.00053
  12        8PX         0.06887  -0.00241   0.00034   0.00019   0.10005
  13        8PY         0.02616  -0.00064   0.00006  -0.00005   0.08951
  14        8PZ        -0.00163  -0.06413  -0.07650   0.20153  -0.00009
  15        9PX         0.01154  -0.00033   0.00002   0.00001   0.02175
  16        9PY         0.00438  -0.00013   0.00004   0.00004   0.01995
  17        9PZ        -0.00003  -0.00123  -0.00164  -0.00007   0.00000
  18       10D 0        0.00024   0.00935  -0.01106  -0.00878  -0.00005
  19       10D+1       -0.00349   0.00011   0.00000  -0.00005   0.01887
  20       10D-1       -0.00134   0.00003  -0.00001  -0.00002   0.01710
  21       10D+2        0.00175   0.00002  -0.00004   0.00000   0.00261
  22       10D-2        0.00478  -0.00019   0.00003  -0.00002   0.00279
  23       11D 0        0.00125   0.04987  -0.04571   0.06668   0.00030
  24       11D+1       -0.01440   0.00047  -0.00003   0.00000   0.04414
  25       11D-1       -0.00552   0.00008  -0.00004   0.00010   0.04018
  26       11D+2        0.00596   0.00014  -0.00013   0.00029   0.04652
  27       11D-2        0.01623  -0.00078   0.00017  -0.00026   0.05363
  28       12D 0        0.00069   0.02816  -0.00383  -0.01687   0.00003
  29       12D+1        0.00110  -0.00006   0.00012  -0.00013   0.01407
  30       12D-1        0.00044   0.00008  -0.00012   0.00010   0.01247
  31       12D+2        0.00347   0.00024  -0.00014   0.00045   0.00971
  32       12D-2        0.00965  -0.00063   0.00016  -0.00028   0.01197
  33       13F 0       -0.00005  -0.00209  -0.00328  -0.00587   0.00008
  34       13F+1       -0.00210   0.00006   0.00000   0.00001  -0.00727
  35       13F-1       -0.00081   0.00001  -0.00001  -0.00001  -0.00650
  36       13F+2       -0.00011   0.00001   0.00000  -0.00006   0.00205
  37       13F-2       -0.00032   0.00002  -0.00001   0.00005   0.00232
  38       13F+3       -0.00001   0.00002  -0.00001   0.00000  -0.00006
  39       13F-3       -0.00006  -0.00309   0.00116  -0.00055   0.00005
  40       14F 0       -0.00014  -0.00545  -0.00087   0.01162   0.00010
  41       14F+1       -0.00679   0.00015  -0.00001   0.00006  -0.00204
  42       14F-1       -0.00261   0.00007  -0.00001   0.00002  -0.00179
  43       14F+2       -0.00113  -0.00002   0.00000   0.00012  -0.00141
  44       14F-2       -0.00305   0.00015  -0.00003  -0.00004  -0.00176
  45       14F+3       -0.00001   0.00012  -0.00007   0.00030  -0.00032
  46       14F-3       -0.00036  -0.01514   0.00917  -0.03764   0.00001
  47 2   H  1S         -0.01760  -0.03365   0.02891  -0.00684   0.02629
  48        2S         -0.01661  -0.00286   0.02291   0.08001   0.17183
  49        3S          0.00243   0.02210   0.02040   0.06916   0.11112
  50        4S          0.00039   0.00002   0.00199   0.00729   0.04827
  51        5PX         0.00101  -0.00004   0.00000  -0.00001   0.00221
  52        5PY        -0.00135  -0.00213   0.00249  -0.00201  -0.00586
  53        5PZ         0.00000  -0.00267  -0.00321   0.01430  -0.00821
  54        6PX         0.00361  -0.00015   0.00001   0.00012   0.00593
  55        6PY         0.00214   0.00555  -0.00154   0.00982   0.03960
  56        6PZ        -0.00043  -0.00102  -0.01030   0.02830  -0.00380
  57        7PX         0.00274  -0.00029   0.00012  -0.00016  -0.00073
  58        7PY         0.00378   0.01109  -0.00161   0.01265   0.03412
  59        7PZ         0.00126   0.00811   0.00308  -0.01391   0.00353
  60        8D 0        0.00015   0.00015  -0.00085   0.00060   0.00171
  61        8D+1       -0.00003   0.00000   0.00000   0.00001   0.00135
  62        8D-1       -0.00011  -0.00020  -0.00171   0.00673  -0.00267
  63        8D+2        0.00020   0.00052  -0.00060   0.00186   0.00173
  64        8D-2        0.00058  -0.00002   0.00000   0.00000   0.00164
  65        9D 0       -0.00005   0.00085  -0.00283   0.00598  -0.00224
  66        9D+1       -0.00111   0.00006  -0.00001  -0.00004   0.00326
  67        9D-1       -0.00011   0.00201  -0.00054  -0.00588   0.01041
  68        9D+2       -0.00035   0.00106   0.00036  -0.00116  -0.00631
  69        9D-2        0.00109  -0.00006   0.00002  -0.00001   0.00096
  70 3   H  1S         -0.03081  -0.03250   0.02870  -0.00680   0.01261
  71        2S         -0.02964  -0.00191   0.02278   0.07956   0.08269
  72        3S          0.00424   0.02153   0.02053   0.06843   0.05347
  73        4S          0.00073   0.00017   0.00189   0.00716   0.02203
  74        5PX        -0.00162  -0.00179   0.00215  -0.00174  -0.00098
  75        5PY         0.00191   0.00100  -0.00124   0.00102   0.00374
  76        5PZ         0.00004  -0.00268  -0.00322   0.01430  -0.00377
  77        6PX         0.00469   0.00452  -0.00124   0.00832   0.02031
  78        6PY         0.00068  -0.00278   0.00077  -0.00498  -0.00321
  79        6PZ        -0.00078  -0.00090  -0.01030   0.02809  -0.00160
  80        7PX         0.00678   0.00938  -0.00136   0.01117   0.01322
  81        7PY        -0.00139  -0.00541   0.00076  -0.00628  -0.00920
  82        7PZ         0.00206   0.00796   0.00326  -0.01407   0.00198
  83        8D 0        0.00026   0.00013  -0.00085   0.00060   0.00080
  84        8D+1       -0.00018  -0.00017  -0.00148   0.00582  -0.00020
  85        8D-1        0.00008   0.00010   0.00085  -0.00337   0.00211
  86        8D+2        0.00023  -0.00027   0.00031  -0.00094   0.00140
  87        8D-2        0.00054   0.00043  -0.00052   0.00161   0.00171
  88        9D 0       -0.00007   0.00083  -0.00282   0.00593  -0.00107
  89        9D+1       -0.00065   0.00177  -0.00047  -0.00510   0.00631
  90        9D-1       -0.00067  -0.00102   0.00028   0.00296   0.00128
  91        9D+2        0.00109  -0.00059  -0.00017   0.00054   0.00250
  92        9D-2       -0.00013   0.00097   0.00029  -0.00096  -0.00214
  93 4   H  1S          0.04596  -0.03533   0.02894  -0.00683  -0.04226
  94        2S          0.04659  -0.00486   0.02313   0.07980  -0.26010
  95        3S         -0.00462   0.02188   0.02034   0.06809  -0.16573
  96        4S         -0.00108   0.00011   0.00195   0.00722  -0.07015
  97        5PX        -0.00296   0.00193  -0.00213   0.00168  -0.00763
  98        5PY        -0.00195   0.00114  -0.00125   0.00101  -0.00389
  99        5PZ        -0.00024  -0.00266  -0.00317   0.01413   0.01184
 100        6PX         0.00495  -0.00505   0.00139  -0.00867   0.05065
 101        6PY         0.00223  -0.00296   0.00086  -0.00542   0.03146
 102        6PZ         0.00111  -0.00108  -0.01023   0.02828   0.00550
 103        7PX         0.00848  -0.01002   0.00157  -0.01103   0.04394
 104        7PY         0.00445  -0.00556   0.00076  -0.00613   0.02506
 105        7PZ        -0.00270   0.00810   0.00307  -0.01368  -0.00537
 106        8D 0       -0.00041   0.00015  -0.00084   0.00058  -0.00246
 107        8D+1       -0.00025   0.00019   0.00146  -0.00576  -0.00355
 108        8D-1       -0.00014   0.00011   0.00086  -0.00342  -0.00168
 109        8D+2        0.00017  -0.00025   0.00029  -0.00088   0.00153
 110        8D-2        0.00050  -0.00046   0.00053  -0.00157   0.00196
 111        9D 0        0.00016   0.00085  -0.00281   0.00587   0.00345
 112        9D+1       -0.00052  -0.00169   0.00048   0.00490   0.01258
 113        9D-1       -0.00011  -0.00106   0.00029   0.00295   0.00849
 114        9D+2       -0.00069  -0.00047  -0.00020   0.00057  -0.00446
 115        9D-2       -0.00090  -0.00091  -0.00031   0.00101  -0.00855
 116 5   Cl 1S          0.00024   0.01022   0.00049  -0.01679  -0.00001
 117        2S         -0.00092  -0.03900  -0.00165   0.05630   0.00002
 118        3S          0.00187   0.08060   0.01119  -0.15674  -0.00008
 119        4S          0.00029   0.01244   0.00451  -0.03985   0.00000
 120        5S          0.00165   0.06911   0.01216  -0.04608  -0.00008
 121        6S          0.00053   0.02043  -0.01254   0.01572   0.00001
 122        7PX         0.20854  -0.00558   0.00001  -0.00005   0.01563
 123        7PY         0.07993  -0.00095  -0.00005  -0.00006   0.01412
 124        7PZ         0.00071   0.02661  -0.21012  -0.16339  -0.00027
 125        8PX        -0.47705   0.01277  -0.00002   0.00010  -0.02439
 126        8PY        -0.18284   0.00216   0.00011   0.00014  -0.02203
 127        8PZ        -0.00166  -0.06213   0.46460   0.36065   0.00060
 128        9PX        -0.23046   0.00617  -0.00002   0.00006  -0.02598
 129        9PY        -0.08833   0.00105   0.00005   0.00008  -0.02346
 130        9PZ        -0.00081  -0.03100   0.21828   0.20644   0.00041
 131       10PX        -0.34299   0.00925  -0.00007   0.00003   0.01247
 132       10PY        -0.13147   0.00154   0.00010  -0.00003   0.01133
 133       10PZ        -0.00188  -0.07218   0.31777   0.02943  -0.00028
 134       11PX        -0.05803   0.00158  -0.00003   0.00000   0.00446
 135       11PY        -0.02223   0.00027   0.00000   0.00000   0.00399
 136       11PZ        -0.00060  -0.02400   0.04619   0.00732  -0.00013
 137       12D 0       -0.00011  -0.00473  -0.01240   0.06745   0.00063
 138       12D+1        0.00017   0.00002  -0.00002   0.00003  -0.04294
 139       12D-1        0.00007   0.00000  -0.00001   0.00005  -0.03883
 140       12D+2        0.00009   0.00000   0.00000  -0.00001   0.00062
 141       12D-2        0.00023  -0.00001   0.00000   0.00000   0.00053
 142       13D 0       -0.00016  -0.00756  -0.01943   0.09784   0.00094
 143       13D+1        0.00058   0.00001  -0.00003   0.00006  -0.06407
 144       13D-1        0.00023   0.00001  -0.00002   0.00008  -0.05796
 145       13D+2        0.00020   0.00000   0.00000  -0.00001   0.00097
 146       13D-2        0.00053  -0.00002   0.00000   0.00001   0.00084
 147       14D 0        0.00006   0.00152  -0.01324   0.03013   0.00009
 148       14D+1        0.00311  -0.00009   0.00000   0.00000  -0.00695
 149       14D-1        0.00121  -0.00001  -0.00002   0.00005  -0.00637
 150       14D+2        0.00003   0.00000   0.00000  -0.00003   0.00020
 151       14D-2        0.00006   0.00000   0.00000   0.00002   0.00017
 152       15F 0        0.00002   0.00099   0.00459  -0.00358  -0.00005
[...]
  84        8D+1        0.01150  -0.02980   0.00040   0.00829   0.01192
  85        8D-1       -0.00594  -0.01840  -0.03501  -0.00500  -0.00916
  86        8D+2        0.06272   0.07422   0.07594   0.02316  -0.02825
  87        8D-2       -0.11263   0.04196   0.03748  -0.04076   0.02753
  88        9D 0       -0.50134   0.30989  -0.33316  -0.14581   0.25029
  89        9D+1       -0.21203   0.00794   0.26691  -0.03487  -0.20415
  90        9D-1        0.11494   0.31887   0.16620   0.01977   0.15630
  91        9D+2       -0.07340  -1.59796  -0.62536  -0.36619   0.05963
  92        9D-2        0.17195   0.18012  -1.47770   0.61489   0.32409
  93 4   H  1S         -0.03510  -0.01011  -0.00156  -0.01091  -0.01876
  94        2S          0.03537   3.17323   0.73062  -0.48448   1.65886
  95        3S          6.01283  27.05396   6.73030  -3.19724  20.08902
  96        4S          1.57766  -1.70045  -0.54123  -1.93315   8.69408
  97        5PX        -0.03186   0.10395  -0.02760  -0.08185   0.06378
  98        5PY        -0.01098   0.02810   0.10280  -0.04618   0.07484
  99        5PZ         0.05927   0.01265   0.00022   0.03078  -0.00817
 100        6PX        -0.43746  -2.15194   0.22287   0.60637  -0.70911
 101        6PY        -0.34475  -0.82054  -1.51510   0.33714  -0.78810
 102        6PZ        -0.33388   0.00661   0.01763  -0.16332   0.12793
 103        7PX        -0.44039  -9.33835   3.01773   1.76717  -3.94800
 104        7PY        -0.93947  -2.33943 -10.05022   0.94716  -4.79850
 105        7PZ        -1.70652   3.12518   0.91006   0.00305   0.64108
 106        8D 0       -0.03610  -0.00896  -0.00284   0.02448  -0.01376
 107        8D+1       -0.01021  -0.02539   0.01574  -0.00842   0.00948
 108        8D-1       -0.00782  -0.00201  -0.03875  -0.00566   0.00953
 109        8D+2        0.06528  -0.02426   0.10056   0.02440   0.02999
 110        8D-2        0.10894   0.02005  -0.05771   0.04467   0.01605
 111        9D 0       -0.48501  -0.48131  -0.12660  -0.14557  -0.20308
 112        9D+1        0.22793  -0.10339  -0.24021   0.04004  -0.15629
 113        9D-1        0.15187  -0.17280   0.29308   0.02751  -0.15745
 114        9D+2       -0.22480   1.04850  -1.38274  -0.36853  -0.20303
 115        9D-2       -0.20346   0.89204   1.17919  -0.61854   0.36880
 116 5   Cl 1S          0.02031   0.00101  -0.00054   0.01174  -0.00012
 117        2S          0.28107   0.01389  -0.00716   0.16327  -0.00188
 118        3S          0.78343   0.03906  -0.02056   0.45877  -0.00476
 119        4S         -0.04256  -0.00158   0.00022  -0.01460   0.00095
 120        5S         -4.36345  -0.21892   0.12426  -3.02433   0.03137
 121        6S         -9.80239  -0.53080   0.29787 -13.23074   0.04675
 122        7PX        -0.00001   0.00066  -0.00020   0.00003   0.00298
 123        7PY        -0.00009   0.00018   0.00076  -0.00014  -0.00047
 124        7PZ        -0.00452  -0.00047   0.00037  -0.02270   0.00002
 125        8PX        -0.00039   0.01650  -0.00439   0.00048   0.05935
 126        8PY        -0.00139   0.00493   0.01774  -0.00232  -0.00921
 127        8PZ        -0.06366  -0.00629   0.00491  -0.31653   0.00014
 128        9PX         0.00015  -0.00334   0.00105  -0.00009  -0.01000
 129        9PY         0.00033  -0.00088  -0.00375   0.00050   0.00162
 130        9PZ         0.00167   0.00098  -0.00091   0.07950  -0.00008
 131       10PX        -0.01216  -0.05921   0.00977  -0.00246  -0.42126
 132       10PY         0.01369  -0.02163  -0.05841   0.01475   0.06393
 133       10PZ         5.90866   0.31517  -0.18048   5.07076  -0.02438
 134       11PX         0.05711  -1.09800   0.29383   0.00506   0.24052
 135       11PY        -0.00703  -0.31420  -1.10878   0.00177  -0.03242
 136       11PZ         0.78787   0.04536  -0.02267   3.35315  -0.00930
 137       12D 0        0.06812   0.00347  -0.00203   0.00185   0.00002
 138       12D+1       -0.00192   0.02925  -0.00795  -0.00013   0.00374
 139       12D-1        0.00027   0.00834   0.02983  -0.00011  -0.00072
 140       12D+2       -0.00078  -0.00195  -0.00794  -0.00016   0.00189
 141       12D-2        0.00151  -0.00763   0.00226   0.00010  -0.01210
 142       13D 0       -0.38825  -0.01958   0.01099  -0.07059   0.00009
 143       13D+1        0.00738  -0.10729   0.02944   0.00018  -0.02575
 144       13D-1       -0.00096  -0.03045  -0.11004   0.00082   0.00452
 145       13D+2        0.00220   0.00441   0.01837   0.00042  -0.00681
 146       13D-2       -0.00418   0.01745  -0.00528  -0.00036   0.04362
 147       14D 0       -1.39071  -0.07694   0.04466  -1.23730   0.00373
 148       14D+1       -0.01030   0.29151  -0.07404   0.00058   0.32551
 149       14D-1       -0.00493   0.08699   0.29489  -0.01004  -0.04968
 150       14D+2       -0.00086  -0.01890  -0.06231   0.00046   0.03136
 151       14D-2        0.00373  -0.06343   0.01469   0.00211  -0.20053
 152       15F 0       -0.04295  -0.00261   0.00148   0.00126  -0.00011
 153       15F+1       -0.00016   0.00462  -0.00118   0.00025   0.01850
 154       15F-1       -0.00011   0.00139   0.00477  -0.00061  -0.00269
 155       15F+2        0.00001  -0.00266  -0.00892   0.00009   0.00165
 156       15F-2        0.00020  -0.00931   0.00220   0.00039  -0.01029
 157       15F+3        0.00009  -0.00020  -0.00006  -0.00018  -0.00021
 158       15F-3       -0.00934  -0.00042   0.00070   0.02289  -0.00001
 159       16F 0        0.23303   0.01306  -0.00783   0.08859   0.00036
 160       16F+1       -0.00004  -0.01526   0.00311  -0.00055  -0.06332
 161       16F-1        0.00087  -0.00517  -0.01509   0.00218   0.00916
 162       16F+2        0.00009   0.01267   0.04324  -0.00035  -0.00669
 163       16F-2       -0.00144   0.04440  -0.01071  -0.00114   0.04231
 164       16F+3       -0.00019   0.00036   0.00011   0.00033   0.00045
 165       16F-3        0.01947   0.00094  -0.00158  -0.04273  -0.00002
 166 6   F  1S          0.04023   0.00175  -0.00094  -0.02269  -0.00017
 167        2S          0.14158   0.00591  -0.00302  -0.08615  -0.00072
 168        3S         -0.07206  -0.00332   0.00191   0.03675   0.00015
 169        4S         -0.37842  -0.01562   0.00714  -0.01989   0.00481
 170        5S         -0.07131  -0.00001  -0.02589  -5.93829   0.03166
 171        6PX         0.00043  -0.00698   0.00189  -0.00001  -0.00168
 172        6PY        -0.00012  -0.00201  -0.00715   0.00002   0.00027
 173        6PZ         0.00533   0.00040  -0.00032   0.00222   0.00003
 174        7PX        -0.00200   0.03618  -0.00963   0.00002   0.00608
 175        7PY         0.00049   0.01051   0.03688  -0.00005  -0.00098
 176        7PZ        -0.06325  -0.00384   0.00268   0.00270  -0.00012
 177        8PX         0.01200  -0.25351   0.06662   0.00043  -0.00167
 178        8PY        -0.00264  -0.07392  -0.25625  -0.00080   0.00042
 179        8PZ         0.62608   0.03516  -0.02563  -0.24728   0.00215
 180        9PX         0.02937  -0.80263   0.21323   0.00074   0.22548
 181        9PY        -0.00159  -0.23031  -0.80748  -0.00089  -0.03202
 182        9PZ        -0.87369  -0.04774   0.02583  -2.49329   0.01185
 183       10D 0        0.01130   0.00053  -0.00013  -0.00797   0.00003
 184       10D+1        0.00048  -0.01414   0.00374  -0.00010  -0.00226
 185       10D-1        0.00010  -0.00409  -0.01432   0.00019   0.00036
 186       10D+2        0.00011   0.00127   0.00491   0.00003   0.00048
 187       10D-2       -0.00044   0.00472  -0.00131  -0.00002  -0.00286
 188       11D 0       -0.04181  -0.00205   0.00059   0.01569  -0.00001
 189       11D+1       -0.00149   0.04544  -0.01201   0.00030   0.00401
 190       11D-1       -0.00030   0.01317   0.04604  -0.00056  -0.00068
 191       11D+2       -0.00056  -0.00423  -0.01668  -0.00018  -0.00168
 192       11D-2        0.00172  -0.01607   0.00454   0.00010   0.01009
 193       12D 0        0.41466   0.02170  -0.01176  -0.01137  -0.00051
 194       12D+1        0.00353  -0.13336   0.03382  -0.00043   0.03031
 195       12D-1        0.00055  -0.03997  -0.13464   0.00066  -0.00463
 196       12D+2        0.00234   0.01526   0.06198   0.00052   0.00316
 197       12D-2       -0.00674   0.06003  -0.01746  -0.00033  -0.01908
 198       13F 0       -0.02732  -0.00149   0.00083  -0.00759   0.00007
 199       13F+1        0.00073  -0.01780   0.00484   0.00009  -0.00798
 200       13F-1       -0.00004  -0.00495  -0.01777   0.00003   0.00121
 201       13F+2       -0.00009  -0.00228  -0.00891   0.00015   0.00042
 202       13F-2        0.00057  -0.00882   0.00246  -0.00012  -0.00276
 203       13F+3       -0.00012   0.00039   0.00006   0.00001  -0.00004
 204       13F-3        0.01286   0.00047  -0.00006  -0.00131   0.00007
 205       14F 0        0.06786   0.00367  -0.00195   0.01177  -0.00014
 206       14F+1       -0.00196   0.03833  -0.01070  -0.00016   0.01760
 207       14F-1        0.00027   0.01045   0.03844  -0.00008  -0.00274
 208       14F+2        0.00022   0.00628   0.02450  -0.00025  -0.00103
 209       14F-2       -0.00154   0.02439  -0.00678   0.00016   0.00658
 210       14F+3        0.00017  -0.00064  -0.00010  -0.00002   0.00006
 211       14F-3       -0.01739  -0.00058   0.00004   0.00249  -0.00013
                         211
     Eigenvalues --     0.00000
   1 1   C  1S         -0.00259
   2        2S         -0.01513
   3        3S         -0.00239
   4        4S         -0.21023
   5        5S         -0.08983
   6        6PX        -0.00103
   7        6PY        -0.00751
   8        6PZ        -0.00003
   9        7PX         0.20665
  10        7PY         1.51345
  11        7PZ         0.00249
  12        8PX         2.50072
  13        8PY        17.16509
  14        8PZ        -0.01029
  15        9PX         1.17082
  16        9PY         7.82026
  17        9PZ        -0.01552
  18       10D 0        0.00007
  19       10D+1       -0.00022
  20       10D-1       -0.00175
  21       10D+2        0.02135
  22       10D-2        0.00300
  23       11D 0        0.00224
  24       11D+1       -0.02741
  25       11D-1       -0.20338
  26       11D+2        0.40152
  27       11D-2        0.04557
  28       12D 0       -0.07315
  29       12D+1       -0.19057
  30       12D-1       -1.27450
  31       12D+2       -0.61078
  32       12D-2       -0.12977
  33       13F 0       -0.00017
  34       13F+1        0.00600
  35       13F-1        0.03824
  36       13F+2        0.00928
  37       13F-2        0.00151
  38       13F+3        0.00063
  39       13F-3        0.00075
  40       14F 0        0.00105
  41       14F+1       -0.05960
  42       14F-1       -0.40284
  43       14F+2       -0.07567
  44       14F-2       -0.00997
  45       14F+3       -0.00035
  46       14F-3       -0.01089
  47 2   H  1S         -0.02610
  48        2S          2.20485
  49        3S         25.58183
  50        4S         11.03601
  51        5PX         0.00804
  52        5PY        -0.11639
  53        5PZ        -0.01081
  54        6PX        -0.07980
  55        6PY         1.30991
  56        6PZ         0.16789
  57        7PX        -0.55714
  58        7PY         7.37650
  59        7PZ         0.79139
  60        8D 0       -0.01869
  61        8D+1        0.00100
  62        8D-1       -0.01522
  63        8D+2       -0.03957
  64        8D-2        0.00494
  65        9D 0       -0.26022
  66        9D+1       -0.01460
  67        9D-1        0.27041
  68        9D+2       -0.27685
  69        9D-2       -0.09008
  70 3   H  1S          0.01025
  71        2S         -0.82371
  72        3S         -9.57904
  73        4S         -4.07832
  74        5PX         0.06117
  75        5PY         0.02076
  76        5PZ         0.00372
  77        6PX        -0.66627
  78        6PY        -0.17722
  79        6PZ        -0.06085
  80        7PX        -4.00457
  81        7PY        -1.49297
  82        7PZ        -0.30809
  83        8D 0        0.00674
  84        8D+1        0.00743
  85        8D-1        0.00166
  86        8D+2        0.01537
  87        8D-2        0.02694
  88        9D 0        0.10199
  89        9D+1       -0.13098
  90        9D-1       -0.02411
  91        9D+2       -0.51086
  92        9D-2       -0.18450
  93 4   H  1S          0.01620
  94        2S         -1.33345
  95        3S        -15.91690
  96        4S         -6.93290
  97        5PX        -0.08359
  98        5PY        -0.00236
  99        5PZ         0.00647
 100        6PX         0.89642
 101        6PY         0.06456
 102        6PZ        -0.10251
 103        7PX         5.31545
 104        7PY        -0.04197
 105        7PZ        -0.50410
 106        8D 0        0.01100
 107        8D+1       -0.01102
 108        8D-1       -0.00119
 109        8D+2        0.00859
 110        8D-2       -0.03259
 111        9D 0        0.16849
 112        9D+1        0.18497
 113        9D-1        0.02429
 114        9D+2       -0.46847
 115        9D-2        0.07501
 116 5   Cl 1S         -0.00014
 117        2S         -0.00214
 118        3S         -0.00554
 119        4S          0.00086
 120        5S          0.03326
 121        6S          0.07353
 122        7PX        -0.00040
 123        7PY        -0.00291
 124        7PZ         0.00013
 125        8PX        -0.00827
 126        8PY        -0.05799
 127        8PZ         0.00156
 128        9PX         0.00132
 129        9PY         0.00974
 130        9PZ        -0.00045
 131       10PX         0.06073
 132       10PY         0.41577
 133       10PZ        -0.03613
 134       11PX        -0.04068
 135       11PY        -0.25092
 136       11PZ        -0.01872
 137       12D 0        0.00002
 138       12D+1       -0.00034
 139       12D-1       -0.00338
 140       12D+2        0.01186
 141       12D-2        0.00187
 142       13D 0        0.00031
 143       13D+1        0.00292
 144       13D-1        0.02418
 145       13D+2       -0.04295
 146       13D-2       -0.00676
 147       14D 0        0.00799
 148       14D+1       -0.04613
 149       14D-1       -0.31797
 150       14D+2        0.19953
 151       14D-2        0.03140
 152       15F 0       -0.00002
 153       15F+1       -0.00276
 154       15F-1       -0.01809
 155       15F+2        0.01041
 156       15F-2        0.00160
 157       15F+3        0.00014
 158       15F-3       -0.00012
 159       16F 0       -0.00023
 160       16F+1        0.00945
 161       16F-1        0.06170
 162       16F+2       -0.04233
 163       16F-2       -0.00659
 164       16F+3       -0.00032
 165       16F-3        0.00024
 166 6   F  1S         -0.00026
 167        2S         -0.00113
 168        3S          0.00022
 169        4S          0.00662
 170        5S          0.03666
 171        6PX         0.00022
 172        6PY         0.00164
 173        6PZ        -0.00002
 174        7PX        -0.00080
 175        7PY        -0.00588
 176        7PZ         0.00005
 177        8PX        -0.00011
 178        8PY         0.00034
 179        8PZ         0.00327
 180        9PX        -0.03580
 181        9PY        -0.23066
 182        9PZ         0.01502
 183       10D 0        0.00000
 184       10D+1        0.00028
 185       10D-1        0.00207
 186       10D+2        0.00280
 187       10D-2        0.00041
 188       11D 0        0.00008
 189       11D+1       -0.00044
 190       11D-1       -0.00345
 191       11D+2       -0.00995
 192       11D-2       -0.00147
 193       12D 0       -0.00017
 194       12D+1       -0.00467
 195       12D-1       -0.03218
 196       12D+2        0.01907
 197       12D-2        0.00284
 198       13F 0        0.00006
 199       13F+1        0.00116
 200       13F-1        0.00798
 201       13F+2        0.00254
 202       13F-2        0.00041
 203       13F+3        0.00003
 204       13F-3        0.00016
 205       14F 0       -0.00011
 206       14F+1       -0.00251
 207       14F-1       -0.01766
 208       14F+2       -0.00619
 209       14F-2       -0.00097
 210       14F+3       -0.00007
 211       14F-3       -0.00030
          Condensed to atoms (all electrons):
              1          2          3          4          5          6
     1  C    7.005265  -0.009116  -0.009071  -0.005288  -0.050939  -0.099808
     2  H   -0.009116   0.546746   0.020608   0.019008  -0.018939   0.004431
     3  H   -0.009071   0.020608   0.546943   0.020446  -0.018775   0.004230
     4  H   -0.005288   0.019008   0.020446   0.546779  -0.018819   0.004128
     5  Cl  -0.050939  -0.018939  -0.018775  -0.018819  17.709529   0.026417
     6  F   -0.099808   0.004431   0.004230   0.004128   0.026417   9.907714
 Mulliken atomic charges:
              1
     1  C   -0.831042
     2  H    0.437262
     3  H    0.435619
     4  H    0.433746
     5  Cl  -0.628473
     6  F   -0.847112
 Sum of Mulliken atomic charges =  -1.00000
 Mulliken charges with hydrogens summed into heavy atoms:
              1
     1  C    0.475584
     5  Cl  -0.628473
     6  F   -0.847112
 Sum of Mulliken charges with hydrogens summed into heavy atoms =  -1.00000
 Electronic spatial extent (au):  <R**2>=            490.3582
 Charge=             -1.0000 electrons
 Dipole moment (field-independent basis, Debye):
    X=             -0.0015    Y=              0.0034    Z=              4.0650  Tot=              4.0651
 Quadrupole moment (field-independent basis, Debye-Ang):
   XX=            -28.1943   YY=            -28.1714   ZZ=            -62.8269
   XY=              0.0105   XZ=             -0.0034   YZ=             -0.0168
 Traceless Quadrupole moment (field-independent basis, Debye-Ang):
   XX=             11.5366   YY=             11.5594   ZZ=            -23.0960
   XY=              0.0105   XZ=             -0.0034   YZ=             -0.0168
 Octapole moment (field-independent basis, Debye-Ang**2):
  XXX=             -0.0350  YYY=             -0.9992  ZZZ=             49.6896  XYY=             -0.0016
  XXY=              0.9391  XXZ=             -4.2300  XZZ=             -0.0053  YZZ=              0.0038
  YYZ=             -4.2430  XYZ=             -0.0072
 Hexadecapole moment (field-independent basis, Debye-Ang**3):
 XXXX=            -41.3171 YYYY=            -41.3035 ZZZZ=           -761.6852 XXXY=             -0.0100
 XXXZ=             -0.0412 YYYX=             -0.0097 YYYZ=              0.5291 ZZZX=             -0.0588
 ZZZY=             -0.1711 XXYY=            -13.7578 XXZZ=           -103.3990 YYZZ=           -103.3949
 XXYZ=             -0.6767 YYXZ=             -0.0205 ZZXY=             -0.0030
 N-N= 8.496362398188D+01 E-N=-1.604135121947D+03  KE= 5.991880494870D+02
 1\1\GINC-TRAPISTA\SP\RQCISD-FC\Aug-CC-pVTZ\C1H3Cl1F1(1-)\BRUNS\10-Aug-
 2021\0\\# QCISD aug-cc-pvtz nosymm density=current output=wfn\\title l
 ine\\-1,1\C,0,0.000175,0.000029,-0.497709\H,0,0.000019,-1.05257,-0.620
 726\H,0,-0.911312,0.526365,-0.621245\H,0,0.91175,0.536132,-0.62157\Cl,
 0,0.000555,0.000962,1.644718\F,0,-0.000186,-0.000921,-2.59346\\Version
 =EM64L-G09RevB.01\HF=-598.6170984\MP2=-599.2913181\MP3=-599.3100129\MP
 4D=-599.3249134\MP4DQ=-599.3104674\MP4SDQ=-599.3198396\QCISD=-599.3192
 225\RMSD=9.384e-09\Dipole=-0.0000932,0.0023319,1.5868558\Quadrupole=8.
 5771508,8.5941528,-17.1713036,0.007806,-0.002497,-0.0125191\PG=C01 [X(
 C1H3Cl1F1)]\\@

 Writing a WFN file to GAUSSIAN+YH_4.wfn.


 THERE IS AN OLD, OLD RECIPE IN MAINE FOR STEWING COOT. PLACE THE
 BIRD IN A KETTLE OF WATER WITH A RED BUILDING BRICK FREE OF MORTAR AND
 BLEMISHES. PARBOIL THE COOT AND BRICK TOGETHER FOR THREE HOURS.
 POUR OFF THE WATER, REFILL THE KETTLE, AND AGAIN PARBOIL FOR THREE HOURS.
 ONCE AGAIN POUR OFF THE WATER, FOR THE LAST TIME ADD FRESH WATER,
 AND LET THE COOT AND BRICK SIMMER TOGETHER OVERNIGHT. IN THE MORNING,
 THROW AWAY THE COOT AND EAT THE BRICK.
 Job cpu time:  0 days  8 hours 13 minutes 13.3 seconds.
 File lengths (MBytes):  RWF=  29002 Int=      0 D2E=      0 Chk=      4 Scr=      1
 Normal termination of Gaussian 09 at Tue Aug 10 22:58:10 2021.
