 title line
GAUSSIAN            211 MOL ORBITALS    339 PRIMITIVES        6 NUCLEI
  C    1    (CENTRE  1)  -0.01856656  0.00005480 -0.94053370  CHARGE =  6.0
  H    2    (CENTRE  2)   0.00003590 -1.98906904 -1.17300214  CHARGE =  1.0
  H    3    (CENTRE  3)  -1.72213010  0.99468570 -1.17398291  CHARGE =  1.0
  H    4    (CENTRE  4)   1.72295780  0.99424539 -1.17459707  CHARGE =  1.0
  Cl   5    (CENTRE  5)   0.00104880  0.00181792  3.10806659  CHARGE = 17.0
  F    6    (CENTRE  6)  -0.00035149 -0.00174044 -4.90092914  CHARGE =  9.0
CENTRE ASSIGNMENTS    1  1  1  1  1  1  1  1  1  1  1  1  1  1  1  1  1  1  1  1
CENTRE ASSIGNMENTS    1  1  1  1  1  1  1  1  1  1  1  1  1  1  1  1  1  1  1  1
CENTRE ASSIGNMENTS    1  1  1  1  1  1  1  1  1  1  1  1  1  1  1  1  1  1  1  1
CENTRE ASSIGNMENTS    1  1  1  1  1  1  1  1  1  1  1  1  2  2  2  2  2  2  2  2
CENTRE ASSIGNMENTS    2  2  2  2  2  2  2  2  2  2  2  2  2  2  2  2  2  2  2  3
CENTRE ASSIGNMENTS    3  3  3  3  3  3  3  3  3  3  3  3  3  3  3  3  3  3  3  3
CENTRE ASSIGNMENTS    3  3  3  3  3  3  4  4  4  4  4  4  4  4  4  4  4  4  4  4
CENTRE ASSIGNMENTS    4  4  4  4  4  4  4  4  4  4  4  4  4  5  5  5  5  5  5  5
CENTRE ASSIGNMENTS    5  5  5  5  5  5  5  5  5  5  5  5  5  5  5  5  5  5  5  5
CENTRE ASSIGNMENTS    5  5  5  5  5  5  5  5  5  5  5  5  5  5  5  5  5  5  5  5
CENTRE ASSIGNMENTS    5  5  5  5  5  5  5  5  5  5  5  5  5  5  5  5  5  5  5  5
CENTRE ASSIGNMENTS    5  5  5  5  5  5  5  5  5  5  5  5  5  5  5  5  5  5  5  5
CENTRE ASSIGNMENTS    5  5  5  5  5  5  5  5  5  5  5  5  5  5  5  5  5  5  5  5
CENTRE ASSIGNMENTS    5  5  5  5  5  5  5  6  6  6  6  6  6  6  6  6  6  6  6  6
CENTRE ASSIGNMENTS    6  6  6  6  6  6  6  6  6  6  6  6  6  6  6  6  6  6  6  6
CENTRE ASSIGNMENTS    6  6  6  6  6  6  6  6  6  6  6  6  6  6  6  6  6  6  6  6
CENTRE ASSIGNMENTS    6  6  6  6  6  6  6  6  6  6  6  6  6  6  6  6  6  6  6
TYPE ASSIGNMENTS      1  1  1  1  1  1  1  1  1  1  1  1  1  1  1  1  2  2  2  3
TYPE ASSIGNMENTS      3  3  4  4  4  2  3  4  2  3  4  2  3  4  5  6  7  8  9 10
TYPE ASSIGNMENTS      5  6  7  8  9 10  5  6  7  8  9 10 11 12 13 17 14 15 18 19
TYPE ASSIGNMENTS     16 20 11 12 13 17 14 15 18 19 16 20  1  1  1  1  1  1  2  3
TYPE ASSIGNMENTS      4  2  3  4  2  3  4  5  6  7  8  9 10  5  6  7  8  9 10  1
TYPE ASSIGNMENTS      1  1  1  1  1  2  3  4  2  3  4  2  3  4  5  6  7  8  9 10
TYPE ASSIGNMENTS      5  6  7  8  9 10  1  1  1  1  1  1  2  3  4  2  3  4  2  3
TYPE ASSIGNMENTS      4  5  6  7  8  9 10  5  6  7  8  9 10  1  1  1  1  1  1  1
TYPE ASSIGNMENTS      1  1  1  1  1  1  1  1  1  1  1  1  1  1  1  1  1  1  1  1
TYPE ASSIGNMENTS      1  1  1  1  2  2  2  2  2  2  3  3  3  3  3  3  4  4  4  4
TYPE ASSIGNMENTS      4  4  2  2  2  2  2  2  3  3  3  3  3  3  4  4  4  4  4  4
TYPE ASSIGNMENTS      2  3  4  2  3  4  2  3  4  5  6  7  8  9 10  5  6  7  8  9
TYPE ASSIGNMENTS     10  5  6  7  8  9 10 11 12 13 17 14 15 18 19 16 20 11 12 13
TYPE ASSIGNMENTS     17 14 15 18 19 16 20  1  1  1  1  1  1  1  1  1  1  1  1  1
TYPE ASSIGNMENTS      1  1  1  2  2  2  3  3  3  4  4  4  2  3  4  2  3  4  2  3
TYPE ASSIGNMENTS      4  5  6  7  8  9 10  5  6  7  8  9 10  5  6  7  8  9 10 11
TYPE ASSIGNMENTS     12 13 17 14 15 18 19 16 20 11 12 13 17 14 15 18 19 16 20
EXPONENTS  0.8236000D+04 0.1235000D+04 0.2808000D+03 0.7927000D+02 0.2559000D+02
EXPONENTS  0.8997000D+01 0.3319000D+01 0.2808000D+03 0.7927000D+02 0.2559000D+02
EXPONENTS  0.8997000D+01 0.3319000D+01 0.3643000D+00 0.9059000D+00 0.1285000D+00
EXPONENTS  0.4402000D-01 0.1871000D+02 0.4133000D+01 0.1200000D+01 0.1871000D+02
EXPONENTS  0.4133000D+01 0.1200000D+01 0.1871000D+02 0.4133000D+01 0.1200000D+01
EXPONENTS  0.3827000D+00 0.3827000D+00 0.3827000D+00 0.1209000D+00 0.1209000D+00
EXPONENTS  0.1209000D+00 0.3569000D-01 0.3569000D-01 0.3569000D-01 0.1097000D+01
EXPONENTS  0.1097000D+01 0.1097000D+01 0.1097000D+01 0.1097000D+01 0.1097000D+01
EXPONENTS  0.3180000D+00 0.3180000D+00 0.3180000D+00 0.3180000D+00 0.3180000D+00
EXPONENTS  0.3180000D+00 0.1000000D+00 0.1000000D+00 0.1000000D+00 0.1000000D+00
EXPONENTS  0.1000000D+00 0.1000000D+00 0.7610000D+00 0.7610000D+00 0.7610000D+00
EXPONENTS  0.7610000D+00 0.7610000D+00 0.7610000D+00 0.7610000D+00 0.7610000D+00
EXPONENTS  0.7610000D+00 0.7610000D+00 0.2680000D+00 0.2680000D+00 0.2680000D+00
EXPONENTS  0.2680000D+00 0.2680000D+00 0.2680000D+00 0.2680000D+00 0.2680000D+00
EXPONENTS  0.2680000D+00 0.2680000D+00 0.3387000D+02 0.5095000D+01 0.1159000D+01
EXPONENTS  0.3258000D+00 0.1027000D+00 0.2526000D-01 0.1407000D+01 0.1407000D+01
EXPONENTS  0.1407000D+01 0.3880000D+00 0.3880000D+00 0.3880000D+00 0.1020000D+00
EXPONENTS  0.1020000D+00 0.1020000D+00 0.1057000D+01 0.1057000D+01 0.1057000D+01
EXPONENTS  0.1057000D+01 0.1057000D+01 0.1057000D+01 0.2470000D+00 0.2470000D+00
EXPONENTS  0.2470000D+00 0.2470000D+00 0.2470000D+00 0.2470000D+00 0.3387000D+02
EXPONENTS  0.5095000D+01 0.1159000D+01 0.3258000D+00 0.1027000D+00 0.2526000D-01
EXPONENTS  0.1407000D+01 0.1407000D+01 0.1407000D+01 0.3880000D+00 0.3880000D+00
EXPONENTS  0.3880000D+00 0.1020000D+00 0.1020000D+00 0.1020000D+00 0.1057000D+01
EXPONENTS  0.1057000D+01 0.1057000D+01 0.1057000D+01 0.1057000D+01 0.1057000D+01
EXPONENTS  0.2470000D+00 0.2470000D+00 0.2470000D+00 0.2470000D+00 0.2470000D+00
EXPONENTS  0.2470000D+00 0.3387000D+02 0.5095000D+01 0.1159000D+01 0.3258000D+00
EXPONENTS  0.1027000D+00 0.2526000D-01 0.1407000D+01 0.1407000D+01 0.1407000D+01
EXPONENTS  0.3880000D+00 0.3880000D+00 0.3880000D+00 0.1020000D+00 0.1020000D+00
EXPONENTS  0.1020000D+00 0.1057000D+01 0.1057000D+01 0.1057000D+01 0.1057000D+01
EXPONENTS  0.1057000D+01 0.1057000D+01 0.2470000D+00 0.2470000D+00 0.2470000D+00
EXPONENTS  0.2470000D+00 0.2470000D+00 0.2470000D+00 0.4561000D+06 0.6833000D+05
EXPONENTS  0.1555000D+05 0.4405000D+04 0.1439000D+04 0.5204000D+03 0.2031000D+03
EXPONENTS  0.8396000D+02 0.3620000D+02 0.1583000D+02 0.6334000D+01 0.4405000D+04
EXPONENTS  0.1439000D+04 0.5204000D+03 0.2031000D+03 0.8396000D+02 0.3620000D+02
EXPONENTS  0.1583000D+02 0.6334000D+01 0.2694000D+01 0.1439000D+04 0.2031000D+03
EXPONENTS  0.8396000D+02 0.3620000D+02 0.1583000D+02 0.6334000D+01 0.2694000D+01
EXPONENTS  0.4313000D+00 0.9768000D+00 0.1625000D+00 0.5910000D-01 0.6633000D+03
EXPONENTS  0.1568000D+03 0.4998000D+02 0.1842000D+02 0.7240000D+01 0.2922000D+01
EXPONENTS  0.6633000D+03 0.1568000D+03 0.4998000D+02 0.1842000D+02 0.7240000D+01
EXPONENTS  0.2922000D+01 0.6633000D+03 0.1568000D+03 0.4998000D+02 0.1842000D+02
EXPONENTS  0.7240000D+01 0.2922000D+01 0.1568000D+03 0.4998000D+02 0.1842000D+02
EXPONENTS  0.7240000D+01 0.2922000D+01 0.3818000D+00 0.1568000D+03 0.4998000D+02
EXPONENTS  0.1842000D+02 0.7240000D+01 0.2922000D+01 0.3818000D+00 0.1568000D+03
EXPONENTS  0.4998000D+02 0.1842000D+02 0.7240000D+01 0.2922000D+01 0.3818000D+00
EXPONENTS  0.1022000D+01 0.1022000D+01 0.1022000D+01 0.1301000D+00 0.1301000D+00
EXPONENTS  0.1301000D+00 0.4190000D-01 0.4190000D-01 0.4190000D-01 0.1046000D+01
EXPONENTS  0.1046000D+01 0.1046000D+01 0.1046000D+01 0.1046000D+01 0.1046000D+01
EXPONENTS  0.3440000D+00 0.3440000D+00 0.3440000D+00 0.3440000D+00 0.3440000D+00
EXPONENTS  0.3440000D+00 0.1350000D+00 0.1350000D+00 0.1350000D+00 0.1350000D+00
EXPONENTS  0.1350000D+00 0.1350000D+00 0.7060000D+00 0.7060000D+00 0.7060000D+00
EXPONENTS  0.7060000D+00 0.7060000D+00 0.7060000D+00 0.7060000D+00 0.7060000D+00
EXPONENTS  0.7060000D+00 0.7060000D+00 0.3120000D+00 0.3120000D+00 0.3120000D+00
EXPONENTS  0.3120000D+00 0.3120000D+00 0.3120000D+00 0.3120000D+00 0.3120000D+00
EXPONENTS  0.3120000D+00 0.3120000D+00 0.1950000D+05 0.2923000D+04 0.6645000D+03
EXPONENTS  0.1875000D+03 0.6062000D+02 0.2142000D+02 0.7950000D+01 0.6645000D+03
EXPONENTS  0.1875000D+03 0.6062000D+02 0.2142000D+02 0.7950000D+01 0.8815000D+00
EXPONENTS  0.2257000D+01 0.3041000D+00 0.9158000D-01 0.4388000D+02 0.9926000D+01
EXPONENTS  0.2930000D+01 0.4388000D+02 0.9926000D+01 0.2930000D+01 0.4388000D+02
EXPONENTS  0.9926000D+01 0.2930000D+01 0.9132000D+00 0.9132000D+00 0.9132000D+00
EXPONENTS  0.2672000D+00 0.2672000D+00 0.2672000D+00 0.7361000D-01 0.7361000D-01
EXPONENTS  0.7361000D-01 0.3107000D+01 0.3107000D+01 0.3107000D+01 0.3107000D+01
EXPONENTS  0.3107000D+01 0.3107000D+01 0.8550000D+00 0.8550000D+00 0.8550000D+00
EXPONENTS  0.8550000D+00 0.8550000D+00 0.8550000D+00 0.2920000D+00 0.2920000D+00
EXPONENTS  0.2920000D+00 0.2920000D+00 0.2920000D+00 0.2920000D+00 0.1917000D+01
EXPONENTS  0.1917000D+01 0.1917000D+01 0.1917000D+01 0.1917000D+01 0.1917000D+01
EXPONENTS  0.1917000D+01 0.1917000D+01 0.1917000D+01 0.1917000D+01 0.7240000D+00
EXPONENTS  0.7240000D+00 0.7240000D+00 0.7240000D+00 0.7240000D+00 0.7240000D+00
EXPONENTS  0.7240000D+00 0.7240000D+00 0.7240000D+00 0.7240000D+00
MO    1     MO 0.0        OCC NO =    2.0000300  ORB. ENERGY =    0.000000
 -0.36356261D-04 -0.67775395D-04 -0.11454965D-03 -0.17218949D-03 -0.21150395D-03
 -0.17850187D-03 -0.67121365D-04  0.50092509D-07  0.37441047D-06  0.13992574D-05
  0.39037103D-05  0.52298956D-05 -0.61755315D-05 -0.11913737D-04  0.29300249D-04
  0.39481448D-05  0.77840574D-04  0.72980486D-04  0.51966454D-04  0.77188838D-04
  0.72369442D-04  0.51531354D-04 -0.70096769D-05 -0.65720176D-05 -0.46796681D-05
  0.24437808D-03  0.24302801D-03 -0.48549943D-05  0.32182801D-03  0.31975505D-03
 -0.30608425D-06  0.67433933D-05  0.67019604D-05 -0.41352436D-07  0.41454763D-04
 -0.44025309D-04  0.25705465D-05  0.85790389D-04 -0.36295109D-03 -0.36054252D-03
  0.13816958D-03 -0.13223460D-03 -0.59349858D-05  0.27192250D-03  0.69861935D-04
  0.69682252D-04  0.27718899D-04 -0.29746736D-04  0.20278375D-05  0.57724214D-04
 -0.45985536D-04 -0.45603917D-04  0.65793078D-04  0.64122289D-04  0.25525144D-05
  0.62078686D-04  0.65294725D-04  0.12848214D-04 -0.25945792D-03 -0.25766159D-03
 -0.20505757D-04  0.33160881D-04 -0.18105738D-04 -0.20993739D-04 -0.30083525D-06
 -0.20082488D-04 -0.10946775D-04  0.37483507D-04  0.74399703D-04  0.73927991D-04
 -0.36581002D-04  0.74514929D-04 -0.27969144D-04 -0.50443502D-04 -0.74378915D-04
  0.22840921D-03  0.77789144D-03 -0.85922654D-05  0.37638905D-05  0.47461839D-04
  0.15388925D-04  0.57440723D-04  0.19322591D-03  0.19188449D-03  0.51293947D-04
  0.11828079D-03  0.16131818D-04 -0.75311234D-04  0.27617407D-04  0.47693827D-04
  0.20433296D-04 -0.34859757D-04  0.21019608D-03 -0.28949045D-04 -0.80039179D-05
  0.36952963D-04  0.19815523D-04  0.43529022D-04  0.22038423D-04 -0.10335286D-04
 -0.18640113D-04 -0.27484836D-04  0.72460811D-04  0.28934847D-03 -0.33020516D-05
  0.17115044D-04 -0.46674527D-05  0.59663908D-05  0.99094306D-04  0.33201936D-04
  0.70468290D-04  0.73460255D-04  0.41019837D-04  0.57375052D-05  0.11837990D-04
 -0.29466583D-04  0.17628593D-04 -0.18580819D-04  0.45501613D-04 -0.78172253D-04
  0.73266473D-05 -0.20022116D-04  0.12695468D-04  0.74048646D-05  0.37439832D-04
  0.48497490D-04  0.38684532D-04  0.69769147D-04  0.10287457D-03 -0.35921787D-03
 -0.10643857D-02  0.11427348D-04  0.56913010D-04  0.34648790D-04 -0.20693294D-04
  0.22815732D-03  0.15494506D-03 -0.26578512D-03  0.13412378D-03  0.98021881D-04
 -0.23150932D-04 -0.36149968D-06  0.66647160D-04 -0.66285661D-04 -0.13074144D-03
  0.25493263D-03  0.13168634D-03  0.22643229D-04  0.31828771D-04 -0.54472000D-04
 -0.29849219D-04  0.18476479D-04  0.28310175D-04 -0.95233525D-04 -0.17817176D-03
 -0.30784129D-03 -0.49904689D-03 -0.75785060D-03 -0.10533410D-02 -0.12523418D-02
 -0.11156296D-02 -0.55404523D-03 -0.89196595D-04 -0.94107677D-06 -0.45068228D-06
 -0.15034006D-04 -0.52390502D-04 -0.18866668D-03 -0.41589222D-03 -0.58544202D-03
  0.27927492D-04  0.76615255D-03  0.45302120D-03 -0.34809111D-08 -0.42162334D-07
 -0.87925104D-07 -0.25215389D-06 -0.13094000D-07  0.10874099D-05  0.28096582D-05
 -0.22891773D-05  0.27656336D-04 -0.12192777D-04 -0.14961490D-05  0.82376882D+01
  0.10850962D+02  0.11970310D+02  0.99422798D+01  0.52796264D+01  0.13621712D+01
  0.81820283D+01  0.10777645D+02  0.11889430D+02  0.98751024D+01  0.52439534D+01
  0.13529674D+01 -0.69587018D-01 -0.91662382D-01 -0.10111796D+00 -0.83986379D-01
 -0.44599098D-01 -0.11506800D-01 -0.32601719D-03  0.31517245D-02  0.44442605D-02
  0.63564682D-02 -0.32188260D-04 -0.58294808D-02 -0.32381116D-03  0.31303979D-02
  0.44141878D-02  0.63134563D-02 -0.31970454D-04 -0.57900349D-02  0.29274673D-05
 -0.28300871D-04 -0.39907182D-04 -0.57077827D-04  0.28903408D-06  0.52345751D-04
  0.54379541D-01  0.54012055D-01 -0.46417510D-03 -0.45753836D-03 -0.45451873D-03
  0.64576642D-05 -0.41190772D-04 -0.40914901D-04  0.41476602D-06  0.32814182D-05
 -0.99475192D-05  0.66661009D-05  0.12767397D-04 -0.69560594D-03 -0.69091920D-03
 -0.13881927D-05  0.38295751D-05 -0.24413824D-05 -0.50381863D-05  0.25166809D-03
  0.24995194D-03  0.76628867D-06 -0.99065098D-06  0.22436230D-06  0.17332661D-05
 -0.43063269D-04 -0.42740078D-04  0.16007326D-05  0.19713280D-05 -0.12580448D-07
  0.17276990D-05  0.46957595D-06  0.25291149D-04 -0.65298969D-05 -0.63835600D-05
 -0.25253407D-04  0.50812270D-04  0.10380378D-04  0.10173872D-04  0.19043352D-06
  0.10328632D-04  0.10697272D-04 -0.56771012D-05 -0.41469767D-04 -0.41218888D-04
  0.51058007D-05 -0.10933088D-04  0.12896008D-04  0.24038180D-04  0.40750071D-04
  0.61701118D-04  0.77139988D-04  0.66354222D-04  0.25448272D-04 -0.18056337D-07
 -0.23903209D-06 -0.86820804D-06 -0.25755228D-05 -0.29677698D-05  0.36047985D-05
  0.56697935D-06 -0.72729455D-05 -0.80619387D-05 -0.20811809D-03 -0.20353494D-03
 -0.13448414D-03 -0.20688333D-03 -0.20232738D-03 -0.13368625D-03 -0.23104616D-04
 -0.22595810D-04 -0.14930007D-04 -0.72488288D-05 -0.72116023D-05 -0.25488401D-05
 -0.46494848D-04 -0.46202673D-04 -0.63432163D-05 -0.13979930D-04 -0.13895779D-04
 -0.10775578D-05  0.48606338D-04 -0.50950781D-04  0.23444427D-05  0.10001123D-03
 -0.95287153D-04 -0.94666486D-04 -0.24535118D-04  0.25606253D-04 -0.10711351D-05
 -0.50337514D-04  0.72640276D-04  0.72148284D-04  0.12956358D-04 -0.12738717D-04
 -0.21764174D-06  0.25770588D-04 -0.51706852D-04 -0.51330923D-04 -0.49004805D-04
 -0.48001922D-04 -0.14349016D-05 -0.49323051D-04 -0.50506018D-04 -0.13383141D-03
  0.19633747D-03  0.19451178D-03  0.13813612D-03 -0.27266049D-03  0.17384339D-04
  0.17065843D-04  0.32412192D-06  0.17491418D-04  0.17810534D-04  0.42788830D-04
 -0.69644436D-04 -0.69008062D-04 -0.43761196D-04  0.86747401D-04
MO    2     MO 0.0        OCC NO =    2.0000300  ORB. ENERGY =    0.000000
 -0.36692066D-04 -0.68401403D-04 -0.11560769D-03 -0.17377992D-03 -0.21345751D-03
 -0.18015061D-03 -0.67741332D-04  0.50406741D-07  0.37675916D-06  0.14080350D-05
  0.39281985D-05  0.52627029D-05 -0.62142709D-05 -0.12001714D-04  0.27698491D-04
  0.36912935D-05  0.79465310D-04  0.74503780D-04  0.53051129D-04 -0.79887987D-04
 -0.74900066D-04 -0.53333309D-04 -0.70556792D-05 -0.66151478D-05 -0.47103793D-05
  0.26868472D-03 -0.27084628D-03 -0.44825857D-05  0.33364341D-03 -0.33603698D-03
  0.10217010D-07  0.64479585D-05 -0.64966861D-05 -0.41973458D-07 -0.49460674D-04
  0.47296879D-04  0.21637949D-05  0.95969145D-04 -0.35778032D-03  0.36027736D-03
 -0.13627326D-03  0.14200665D-03 -0.57333882D-05  0.27648161D-03  0.67993000D-04
 -0.68769881D-04 -0.30380526D-04  0.28453638D-04  0.19268890D-05  0.58386257D-04
 -0.47677505D-04  0.47937058D-04  0.65268038D-04 -0.67071905D-04  0.23124179D-05
  0.69355957D-04 -0.65730245D-04 -0.22251879D-04 -0.26516007D-03  0.26694596D-03
  0.15314626D-04  0.36923328D-04 -0.19857287D-04  0.17022750D-04 -0.25528900D-06
 -0.17647260D-04  0.26704190D-04 -0.33811829D-04  0.77219120D-04 -0.77772439D-04
  0.34577696D-04  0.67971036D-04  0.28726296D-04  0.51809057D-04  0.76392425D-04
 -0.29057894D-03 -0.81347762D-03  0.85664111D-05  0.25794717D-05 -0.54085328D-04
 -0.18692281D-04  0.61092844D-04 -0.21481538D-03 -0.19106851D-03  0.55450947D-04
 -0.12574820D-03 -0.15266637D-04  0.80775745D-04 -0.32789510D-04 -0.47986235D-04
  0.22972439D-04 -0.31465503D-04 -0.21077337D-03  0.32545757D-04  0.89278826D-05
 -0.41473640D-04  0.21214001D-04  0.42975667D-04 -0.22121803D-04 -0.38757481D-04
 -0.69900713D-04 -0.10306856D-03  0.35124432D-03  0.11089443D-02 -0.12012256D-04
  0.61972349D-04 -0.36762181D-04  0.26200242D-04  0.23334106D-03 -0.16058789D-03
  0.25727851D-03  0.13481341D-03 -0.10249197D-03  0.19896117D-04  0.12667163D-05
 -0.66080819D-04  0.64814103D-04 -0.13252085D-03  0.25523964D-03 -0.13448349D-03
 -0.22299168D-04 -0.30547025D-04  0.52846193D-04 -0.30274822D-04  0.17825509D-04
 -0.29128011D-04  0.10460955D-04  0.18866764D-04  0.27819032D-04 -0.11635867D-03
 -0.29200805D-03  0.30032512D-05  0.19223723D-04  0.63210689D-05 -0.66644085D-05
  0.11100782D-03 -0.32117111D-04 -0.69401346D-04  0.76656393D-04 -0.40710463D-04
 -0.57517606D-05 -0.16036322D-04  0.33585730D-04 -0.17549408D-04 -0.20404899D-04
  0.42604055D-04  0.77120184D-04 -0.66643659D-05  0.22543152D-04 -0.15878786D-04
  0.65801698D-05  0.35732894D-04 -0.46031230D-04 -0.93743039D-04 -0.17538322D-03
 -0.30302331D-03 -0.49123638D-03 -0.74598959D-03 -0.10368553D-02 -0.12327416D-02
 -0.10981690D-02 -0.54537395D-03 -0.87800592D-04 -0.92634811D-06 -0.44359080D-06
 -0.14797447D-04 -0.51566139D-04 -0.18569801D-03 -0.40934816D-03 -0.57623010D-03
  0.27488054D-04  0.75409715D-03  0.44589292D-03 -0.35385774D-08 -0.42860813D-07
 -0.89381708D-07 -0.25633118D-06 -0.13310921D-07  0.11054243D-05  0.28562042D-05
 -0.23271008D-05  0.27248998D-04 -0.11813283D-04 -0.13200529D-05  0.81817482D+01
  0.10777276D+02  0.11889023D+02  0.98747644D+01  0.52437739D+01  0.13529211D+01
 -0.82379412D+01 -0.10851296D+02 -0.11970678D+02 -0.99425851D+01 -0.52797886D+01
 -0.13622131D+01 -0.62293953D-01 -0.82055709D-01 -0.90520292D-01 -0.75184190D-01
 -0.39924891D-01 -0.10300831D-01 -0.32383025D-03  0.31305825D-02  0.44144482D-02
  0.63138287D-02 -0.31972340D-04 -0.57903764D-02  0.32605124D-03 -0.31520536D-02
 -0.44447247D-02 -0.63571321D-02  0.32191622D-04  0.58300897D-02  0.26348188D-05
 -0.25471733D-04 -0.35917803D-04 -0.51371959D-04  0.26014037D-06  0.47112932D-04
  0.54019804D-01 -0.54390763D-01 -0.41604069D-03 -0.45238830D-03  0.45556885D-03
  0.59013211D-05 -0.40767826D-04  0.41050300D-04  0.36843708D-06 -0.14236175D-04
  0.81957721D-05  0.60404030D-05  0.21756509D-04 -0.69163566D-03  0.69640169D-03
  0.47617570D-05 -0.25540198D-05 -0.22077371D-05 -0.70591149D-05  0.25222947D-03
 -0.25394765D-03 -0.10206504D-05  0.82591637D-06  0.19473407D-06  0.18006340D-05
 -0.43375338D-04  0.43641409D-04  0.17657468D-05 -0.13505632D-05 -0.24833875D-07
  0.16770336D-05 -0.28709482D-05 -0.24156950D-04 -0.69742740D-05  0.69226377D-05
  0.24231451D-04  0.48059743D-04  0.10359528D-04 -0.10580192D-04  0.16038591D-06
  0.10403816D-04 -0.10054721D-04  0.44105708D-05 -0.41482399D-04  0.41795296D-04
 -0.48917285D-05 -0.93325761D-05  0.12918936D-04  0.24080919D-04  0.40822522D-04
  0.61810819D-04  0.77277138D-04  0.66472197D-04  0.25493518D-04 -0.17989943D-07
 -0.23815317D-06 -0.86501563D-06 -0.25660526D-05 -0.29568573D-05  0.35915436D-05
  0.57541012D-06 -0.72085670D-05 -0.78886374D-05 -0.20322812D-03 -0.19875267D-03
 -0.13132429D-03  0.20477354D-03  0.20026405D-03  0.13232292D-03 -0.23298516D-04
 -0.22785440D-04 -0.15055304D-04 -0.49081920D-05  0.49530108D-05 -0.25743167D-05
 -0.47868340D-04  0.48212186D-04 -0.63743947D-05 -0.13654445D-04  0.13757419D-04
 -0.10692525D-05 -0.51603591D-04  0.49326637D-04  0.22769537D-05  0.10017597D-03
 -0.91559567D-04  0.92214312D-04  0.25724577D-04 -0.24722325D-04 -0.10022511D-05
 -0.50036524D-04  0.71234760D-04 -0.71723774D-04 -0.12464511D-04  0.12762814D-04
 -0.29830310D-06  0.24994190D-04 -0.53036778D-04  0.53373010D-04 -0.52124727D-04
  0.52902714D-04 -0.10872493D-05 -0.52088168D-04  0.50695920D-04  0.13215638D-03
  0.20846235D-03 -0.20940406D-03 -0.12889463D-03 -0.25850264D-03  0.18532369D-04
 -0.18777967D-04  0.19798108D-06  0.18515014D-04 -0.18123889D-04 -0.41629341D-04
 -0.74112122D-04  0.74457791D-04  0.41035398D-04  0.81831867D-04
MO    3     MO 0.0        OCC NO =    2.0000210  ORB. ENERGY =    0.000000
 -0.14456831D-01 -0.26950446D-01 -0.45549926D-01 -0.68470034D-01 -0.84103173D-01
 -0.70980111D-01 -0.26690375D-01 -0.38131889D-05 -0.28501225D-04 -0.10651558D-03
 -0.29716190D-03 -0.39811501D-03  0.47009960D-03 -0.87257253D-03 -0.19331553D-02
 -0.81885180D-04 -0.37059950D-05 -0.34746058D-05 -0.24741264D-05  0.53473323D-06
  0.50134640D-06  0.35698850D-06  0.11670036D-02  0.10941401D-02  0.77909290D-03
  0.21261906D-04  0.28596375D-07  0.60712545D-03 -0.94663354D-06 -0.22050568D-06
 -0.37910906D-03  0.12181787D-06  0.34511037D-08  0.46730774D-05 -0.10553941D-03
 -0.10559566D-03  0.21113507D-03  0.90439296D-05  0.11801641D-05  0.31533396D-06
 -0.23955305D-04 -0.23930129D-04  0.47885434D-04  0.10570277D-04 -0.71111836D-05
  0.13845704D-06  0.11387830D-04  0.11429111D-04 -0.22816941D-04 -0.66971134D-06
 -0.10403142D-05 -0.24923441D-07  0.31879901D-06  0.36210605D-04  0.77262568D-05
  0.36714998D-06 -0.10867751D-03 -0.11542090D-04 -0.13235470D-05  0.45693565D-07
 -0.11636680D-04 -0.44638080D-05  0.16003396D-06  0.51815109D-04 -0.85653083D-04
  0.23687710D-06 -0.15518313D-03  0.12854183D-03 -0.71697899D-06 -0.26219569D-06
  0.12841742D-03 -0.16707253D-05 -0.48414717D-05 -0.87317936D-05 -0.12875025D-04
  0.75177004D-03  0.23552488D-03  0.50598859D-05 -0.49943474D-06  0.95734579D-04
  0.28401501D-04 -0.63411255D-05  0.19904852D-03 -0.43251502D-05 -0.12567773D-05
  0.43985474D-04  0.38741320D-04 -0.73833822D-04  0.54170586D-04  0.19663236D-04
 -0.49518469D-05 -0.17292980D-05  0.75909473D-04 -0.96003154D-05 -0.12039165D-04
  0.21639480D-04  0.99977943D-09  0.80912684D-07 -0.34537177D-04 -0.36088843D-05
 -0.65087714D-05 -0.95971796D-05  0.76871061D-03  0.24216423D-03  0.54160748D-05
  0.85324027D-04 -0.49591826D-04  0.30201591D-04  0.17550800D-03 -0.10517974D-03
 -0.70445454D-05  0.39126153D-04 -0.23372426D-04  0.38211612D-04  0.21664773D-04
 -0.40796491D-04  0.19131718D-04 -0.11329997D-03  0.65648432D-04 -0.38859427D-04
 -0.10982678D-04 -0.10494041D-04  0.21476718D-04  0.79236651D-06 -0.30404551D-04
  0.17629393D-04 -0.60106627D-05 -0.10840478D-04 -0.15984278D-04  0.73557939D-03
  0.22973318D-03  0.46973709D-05 -0.80427695D-04 -0.46146819D-04  0.26777067D-04
 -0.16935879D-03 -0.94203377D-04 -0.14672302D-05 -0.37064211D-04 -0.20707584D-04
  0.39303779D-04  0.22480631D-04 -0.42917370D-04  0.20436739D-04  0.10827617D-03
 -0.65958547D-04 -0.37001508D-04 -0.11848617D-04 -0.99256235D-05  0.21774241D-04
 -0.32742755D-05  0.29485027D-04  0.16989558D-04 -0.15460707D+00 -0.28925334D+00
 -0.49976561D+00 -0.81017878D+00 -0.12303342D+01 -0.17100488D+01 -0.20331170D+01
 -0.18111713D+01 -0.89946595D+00 -0.14480641D+00 -0.15277931D-02 -0.72286307D-03
 -0.24113502D-01 -0.84030726D-01 -0.30260825D+00 -0.66706223D+00 -0.93900833D+00
  0.44793758D-01  0.12288555D+01  0.72661454D+00 -0.15531826D-04 -0.18812834D-03
 -0.39232181D-03 -0.11251107D-02 -0.58425430D-04  0.48520228D-02  0.12536695D-01
 -0.10214309D-01  0.46601400D-01 -0.38464553D-03 -0.13208456D-03  0.40265474D-01
  0.53039049D-01  0.58510374D-01  0.48597447D-01  0.25806593D-01  0.66582358D-02
  0.24438183D-02  0.32190804D-02  0.35511496D-02  0.29495078D-02  0.15662705D-02
  0.40410597D-03  0.59407655D+01  0.78253779D+01  0.86326168D+01  0.71700642D+01
  0.38075030D+01  0.98235568D+00 -0.13157774D-05  0.12720089D-04  0.17936653D-04
  0.25654159D-04 -0.12990905D-06 -0.23527283D-04 -0.86227394D-07  0.83359097D-06
  0.11754503D-05  0.16812048D-05 -0.85133847D-08 -0.15418234D-05 -0.21076956D-03
  0.20375845D-02  0.28732068D-02  0.41094458D-02 -0.20809655D-04 -0.37687494D-02
  0.28111055D-03  0.17124482D-04  0.41649576D-01 -0.29788195D-05 -0.19939416D-06
 -0.48379280D-03 -0.14593384D-06 -0.42871089D-08 -0.98334716D-05 -0.71417428D-05
 -0.71537461D-05  0.14295489D-04 -0.18281226D-05  0.39080971D-05  0.54162139D-07
 -0.11139632D-03 -0.11140398D-03  0.22280030D-03  0.58974909D-06  0.27116927D-05
  0.25904645D-06 -0.14317461D-04 -0.14322422D-04  0.28639884D-04  0.51912178D-07
  0.90693235D-06  0.34674422D-07 -0.37608383D-06 -0.72078068D-05  0.54460772D-05
 -0.38683951D-06  0.21623226D-04 -0.81671142D-05  0.15150910D-05  0.19454911D-09
 -0.81711175D-05  0.13849906D-05  0.38457405D-06  0.20693769D-05 -0.33741252D-04
  0.38750820D-06 -0.61365073D-05  0.50605747D-04 -0.15412304D-05 -0.71623499D-07
  0.50618009D-04 -0.83401501D-06 -0.87905895D-03 -0.16385674D-02 -0.27777368D-02
 -0.42058692D-02 -0.52582628D-02 -0.45230489D-02 -0.17346866D-02 -0.68401004D-06
 -0.90550121D-05 -0.32889452D-04 -0.97565939D-04 -0.11242504D-03  0.13655695D-03
 -0.95926785D-04 -0.15942658D-03  0.12335799D-04 -0.21379863D-04 -0.20909039D-04
 -0.13815486D-04  0.17547087D-05  0.17160668D-05  0.11338779D-05  0.39016828D-02
  0.38157606D-02  0.25212343D-02 -0.56765983D-05  0.37573099D-06  0.87911086D-03
  0.72698281D-06  0.23312689D-07  0.21423106D-04 -0.20540846D-06  0.28310091D-08
  0.93270613D-05 -0.35622346D-04 -0.35633896D-04  0.71256242D-04  0.17277313D-05
 -0.30286024D-05  0.10123525D-06  0.21090923D-04  0.21093602D-04 -0.42184525D-04
 -0.86265468D-06  0.94245647D-06 -0.65406188D-07  0.18094890D-04  0.18100855D-04
 -0.36195745D-04  0.34253334D-06  0.15197817D-05 -0.33584863D-07  0.26373088D-05
 -0.29451464D-05  0.46280094D-04  0.26308626D-05  0.88233074D-05 -0.69345101D-04
 -0.10542789D-04  0.12131748D-07 -0.69495180D-04 -0.31721670D-05 -0.98906772D-06
  0.93517524D-06 -0.25338169D-04 -0.98713585D-06 -0.27752364D-05  0.37981027D-04
  0.39543390D-05 -0.30289268D-07  0.38033480D-04  0.84907639D-06
MO    4     MO 0.0        OCC NO =    2.0000123  ORB. ENERGY =    0.000000
  0.26838042D-01  0.50031516D-01  0.84560079D-01  0.12710957D+00  0.15613134D+00
  0.13176934D+00  0.49548714D-01 -0.14522778D-05 -0.10854876D-04 -0.40567152D-04
 -0.11317604D-03 -0.15162469D-03  0.17904048D-03  0.26465443D-02 -0.36094780D-02
 -0.42149151D-04  0.10984384D-04  0.10298558D-04  0.73331869D-05  0.14371355D-05
  0.13474058D-05  0.95943323D-06  0.36696602D-02  0.34405397D-02  0.24498692D-02
  0.45676031D-04 -0.24463699D-06  0.13054714D-02  0.60301496D-05 -0.38173242D-06
 -0.41699890D-03  0.16038121D-06  0.37170007D-08  0.37071718D-05 -0.31927841D-03
 -0.31920855D-03  0.63848696D-03  0.90125942D-05  0.75711403D-05  0.99661152D-06
  0.98532560D-05  0.97770951D-05 -0.19630351D-04  0.27346819D-04 -0.17072356D-04
  0.17210213D-06 -0.17901558D-04 -0.17865722D-04  0.35767280D-04  0.18713705D-05
 -0.11215510D-05  0.45433477D-07  0.60858336D-06 -0.42332764D-04  0.22575740D-04
  0.53504707D-06  0.12691103D-03 -0.33926290D-04 -0.23607971D-05  0.87265401D-07
 -0.33800930D-04 -0.83327515D-05  0.58895513D-06  0.81984297D-04 -0.16374772D-03
  0.70762102D-06 -0.24547296D-03  0.24569503D-03 -0.24744864D-05 -0.47993189D-06
  0.24554814D-03 -0.69921651D-05 -0.90342010D-04 -0.16293554D-03 -0.24024835D-03
  0.10216460D-02  0.68371278D-03  0.42657510D-05  0.16705246D-05 -0.57983542D-04
  0.33526598D-04 -0.55436467D-05  0.30420131D-03 -0.43463063D-04  0.67164805D-06
  0.11094882D-03  0.75815888D-04 -0.14228723D-03  0.24111908D-04  0.11817532D-03
 -0.16853956D-05 -0.20118381D-05  0.14243151D-03 -0.14718906D-04 -0.21044651D-04
  0.35763557D-04  0.14377263D-05 -0.75942262D-06 -0.62784268D-04 -0.90730200D-04
 -0.16363565D-03 -0.24128067D-03  0.10624271D-02  0.71327145D-03  0.47079028D-05
 -0.43555493D-04  0.26109528D-04  0.37375489D-04  0.27508171D-03 -0.16228014D-03
 -0.52777870D-04  0.99671389D-04 -0.57218233D-04  0.76098271D-04 -0.12467643D-04
 -0.10085821D-03  0.11332585D-03 -0.15509844D-03  0.12296366D-03 -0.71982102D-04
 -0.18325334D-04 -0.16926888D-04  0.35252222D-04  0.38224193D-05 -0.55666809D-04
  0.31744409D-04 -0.89901163D-04 -0.16214045D-03 -0.23907600D-03  0.98256562D-03
  0.65556559D-03  0.38167443D-05  0.56530535D-04  0.31643458D-04  0.29699939D-04
 -0.25219649D-03 -0.14250045D-03 -0.33881848D-04 -0.92504781D-04 -0.53803405D-04
  0.75699164D-04 -0.22663659D-04 -0.10050933D-03  0.12317299D-03  0.13318046D-03
 -0.12391871D-03 -0.70138323D-04 -0.20518174D-04 -0.15672151D-04  0.36190324D-04
 -0.69120319D-05  0.53169108D-04  0.31151639D-04  0.91305391D-01  0.17082264D+00
  0.29514364D+00  0.47846252D+00  0.72659124D+00  0.10098935D+01  0.12006859D+01
  0.10696128D+01  0.53119232D+00  0.85517469D-01  0.90225981D-03  0.42749029D-03
  0.14260360D-01  0.49694501D-01  0.17895794D+00  0.39449052D+00  0.55531533D+00
 -0.26490351D-01 -0.72672654D+00 -0.42970886D+00  0.62773124D-05  0.76033583D-04
  0.15856002D-03  0.45472253D-03  0.23613108D-04 -0.19609841D-02 -0.50668063D-02
  0.41281953D-02 -0.28542600D-01  0.14179501D-02 -0.18184707D-03  0.84209841D-01
  0.11092406D+00  0.12236660D+00  0.10163504D+00  0.53971028D-01  0.13924807D-01
  0.41505903D-02  0.54672984D-02  0.60312859D-02  0.50094552D-02  0.26601597D-02
  0.68633511D-03  0.99145685D+01  0.13059806D+02  0.14407010D+02  0.11966150D+02
  0.63543578D+01  0.16394575D+01 -0.25948516D-05  0.25085356D-04  0.35372970D-04
  0.50592705D-04 -0.25619433D-06 -0.46398282D-04 -0.14051247D-06  0.13583841D-05
  0.19154634D-05  0.27396193D-05 -0.13873047D-07 -0.25124893D-05 -0.33686031D-03
  0.32565488D-02  0.45920737D-02  0.65678801D-02 -0.33258820D-04 -0.60233655D-02
  0.60892251D-03  0.30360416D-04  0.72557070D-01 -0.21900594D-05 -0.12337594D-06
 -0.30630646D-03 -0.18022079D-06 -0.21047161D-08 -0.39505775D-05  0.45441520D-03
  0.45448533D-03 -0.90890053D-03 -0.18646964D-05 -0.15813598D-04 -0.11096339D-05
 -0.30965580D-03 -0.30969090D-03  0.61934670D-03  0.96581236D-06  0.98749606D-05
  0.75449047D-06  0.43345784D-05  0.43318789D-05 -0.86664573D-05 -0.23155680D-07
  0.24614650D-06 -0.14721222D-07 -0.24113040D-06 -0.14486599D-04 -0.46953593D-04
 -0.26303012D-06  0.43602535D-04  0.70425929D-04  0.98642132D-06 -0.14273710D-06
  0.70434850D-04  0.18867880D-05  0.64286843D-06  0.42079826D-05 -0.62595493D-04
  0.64888433D-06 -0.12486645D-04  0.93883405D-04 -0.25774896D-05 -0.13730284D-06
  0.93903073D-04 -0.14747909D-05 -0.63574583D-02 -0.11850313D-01 -0.20088921D-01