 title line
GAUSSIAN            211 MOL ORBITALS    339 PRIMITIVES        6 NUCLEI
  C    1    (CENTRE  1)   0.00033070  0.00005480 -0.94053370  CHARGE =  6.0
  H    2    (CENTRE  2)   0.00003590 -1.98906904 -1.17300214  CHARGE =  1.0
  H    3    (CENTRE  3)  -1.72213010  0.99468570 -1.17398291  CHARGE =  1.0
  H    4    (CENTRE  4)   1.72295780  0.99424539 -1.17459707  CHARGE =  1.0
  Cl   5    (CENTRE  5)   0.01994606  0.00181792  3.10806659  CHARGE = 17.0
  F    6    (CENTRE  6)  -0.00035149 -0.00174044 -4.90092914  CHARGE =  9.0
CENTRE ASSIGNMENTS    1  1  1  1  1  1  1  1  1  1  1  1  1  1  1  1  1  1  1  1
CENTRE ASSIGNMENTS    1  1  1  1  1  1  1  1  1  1  1  1  1  1  1  1  1  1  1  1
CENTRE ASSIGNMENTS    1  1  1  1  1  1  1  1  1  1  1  1  1  1  1  1  1  1  1  1
CENTRE ASSIGNMENTS    1  1  1  1  1  1  1  1  1  1  1  1  2  2  2  2  2  2  2  2
CENTRE ASSIGNMENTS    2  2  2  2  2  2  2  2  2  2  2  2  2  2  2  2  2  2  2  3
CENTRE ASSIGNMENTS    3  3  3  3  3  3  3  3  3  3  3  3  3  3  3  3  3  3  3  3
CENTRE ASSIGNMENTS    3  3  3  3  3  3  4  4  4  4  4  4  4  4  4  4  4  4  4  4
CENTRE ASSIGNMENTS    4  4  4  4  4  4  4  4  4  4  4  4  4  5  5  5  5  5  5  5
CENTRE ASSIGNMENTS    5  5  5  5  5  5  5  5  5  5  5  5  5  5  5  5  5  5  5  5
CENTRE ASSIGNMENTS    5  5  5  5  5  5  5  5  5  5  5  5  5  5  5  5  5  5  5  5
CENTRE ASSIGNMENTS    5  5  5  5  5  5  5  5  5  5  5  5  5  5  5  5  5  5  5  5
CENTRE ASSIGNMENTS    5  5  5  5  5  5  5  5  5  5  5  5  5  5  5  5  5  5  5  5
CENTRE ASSIGNMENTS    5  5  5  5  5  5  5  5  5  5  5  5  5  5  5  5  5  5  5  5
CENTRE ASSIGNMENTS    5  5  5  5  5  5  5  6  6  6  6  6  6  6  6  6  6  6  6  6
CENTRE ASSIGNMENTS    6  6  6  6  6  6  6  6  6  6  6  6  6  6  6  6  6  6  6  6
CENTRE ASSIGNMENTS    6  6  6  6  6  6  6  6  6  6  6  6  6  6  6  6  6  6  6  6
CENTRE ASSIGNMENTS    6  6  6  6  6  6  6  6  6  6  6  6  6  6  6  6  6  6  6
TYPE ASSIGNMENTS      1  1  1  1  1  1  1  1  1  1  1  1  1  1  1  1  2  2  2  3
TYPE ASSIGNMENTS      3  3  4  4  4  2  3  4  2  3  4  2  3  4  5  6  7  8  9 10
TYPE ASSIGNMENTS      5  6  7  8  9 10  5  6  7  8  9 10 11 12 13 17 14 15 18 19
TYPE ASSIGNMENTS     16 20 11 12 13 17 14 15 18 19 16 20  1  1  1  1  1  1  2  3
TYPE ASSIGNMENTS      4  2  3  4  2  3  4  5  6  7  8  9 10  5  6  7  8  9 10  1
TYPE ASSIGNMENTS      1  1  1  1  1  2  3  4  2  3  4  2  3  4  5  6  7  8  9 10
TYPE ASSIGNMENTS      5  6  7  8  9 10  1  1  1  1  1  1  2  3  4  2  3  4  2  3
TYPE ASSIGNMENTS      4  5  6  7  8  9 10  5  6  7  8  9 10  1  1  1  1  1  1  1
TYPE ASSIGNMENTS      1  1  1  1  1  1  1  1  1  1  1  1  1  1  1  1  1  1  1  1
TYPE ASSIGNMENTS      1  1  1  1  2  2  2  2  2  2  3  3  3  3  3  3  4  4  4  4
TYPE ASSIGNMENTS      4  4  2  2  2  2  2  2  3  3  3  3  3  3  4  4  4  4  4  4
TYPE ASSIGNMENTS      2  3  4  2  3  4  2  3  4  5  6  7  8  9 10  5  6  7  8  9
TYPE ASSIGNMENTS     10  5  6  7  8  9 10 11 12 13 17 14 15 18 19 16 20 11 12 13
TYPE ASSIGNMENTS     17 14 15 18 19 16 20  1  1  1  1  1  1  1  1  1  1  1  1  1
TYPE ASSIGNMENTS      1  1  1  2  2  2  3  3  3  4  4  4  2  3  4  2  3  4  2  3
TYPE ASSIGNMENTS      4  5  6  7  8  9 10  5  6  7  8  9 10  5  6  7  8  9 10 11
TYPE ASSIGNMENTS     12 13 17 14 15 18 19 16 20 11 12 13 17 14 15 18 19 16 20
EXPONENTS  0.8236000D+04 0.1235000D+04 0.2808000D+03 0.7927000D+02 0.2559000D+02
EXPONENTS  0.8997000D+01 0.3319000D+01 0.2808000D+03 0.7927000D+02 0.2559000D+02
EXPONENTS  0.8997000D+01 0.3319000D+01 0.3643000D+00 0.9059000D+00 0.1285000D+00
EXPONENTS  0.4402000D-01 0.1871000D+02 0.4133000D+01 0.1200000D+01 0.1871000D+02
EXPONENTS  0.4133000D+01 0.1200000D+01 0.1871000D+02 0.4133000D+01 0.1200000D+01
EXPONENTS  0.3827000D+00 0.3827000D+00 0.3827000D+00 0.1209000D+00 0.1209000D+00
EXPONENTS  0.1209000D+00 0.3569000D-01 0.3569000D-01 0.3569000D-01 0.1097000D+01
EXPONENTS  0.1097000D+01 0.1097000D+01 0.1097000D+01 0.1097000D+01 0.1097000D+01
EXPONENTS  0.3180000D+00 0.3180000D+00 0.3180000D+00 0.3180000D+00 0.3180000D+00
EXPONENTS  0.3180000D+00 0.1000000D+00 0.1000000D+00 0.1000000D+00 0.1000000D+00
EXPONENTS  0.1000000D+00 0.1000000D+00 0.7610000D+00 0.7610000D+00 0.7610000D+00
EXPONENTS  0.7610000D+00 0.7610000D+00 0.7610000D+00 0.7610000D+00 0.7610000D+00
EXPONENTS  0.7610000D+00 0.7610000D+00 0.2680000D+00 0.2680000D+00 0.2680000D+00
EXPONENTS  0.2680000D+00 0.2680000D+00 0.2680000D+00 0.2680000D+00 0.2680000D+00
EXPONENTS  0.2680000D+00 0.2680000D+00 0.3387000D+02 0.5095000D+01 0.1159000D+01
EXPONENTS  0.3258000D+00 0.1027000D+00 0.2526000D-01 0.1407000D+01 0.1407000D+01
EXPONENTS  0.1407000D+01 0.3880000D+00 0.3880000D+00 0.3880000D+00 0.1020000D+00
EXPONENTS  0.1020000D+00 0.1020000D+00 0.1057000D+01 0.1057000D+01 0.1057000D+01
EXPONENTS  0.1057000D+01 0.1057000D+01 0.1057000D+01 0.2470000D+00 0.2470000D+00
EXPONENTS  0.2470000D+00 0.2470000D+00 0.2470000D+00 0.2470000D+00 0.3387000D+02
EXPONENTS  0.5095000D+01 0.1159000D+01 0.3258000D+00 0.1027000D+00 0.2526000D-01
EXPONENTS  0.1407000D+01 0.1407000D+01 0.1407000D+01 0.3880000D+00 0.3880000D+00
EXPONENTS  0.3880000D+00 0.1020000D+00 0.1020000D+00 0.1020000D+00 0.1057000D+01
EXPONENTS  0.1057000D+01 0.1057000D+01 0.1057000D+01 0.1057000D+01 0.1057000D+01
EXPONENTS  0.2470000D+00 0.2470000D+00 0.2470000D+00 0.2470000D+00 0.2470000D+00
EXPONENTS  0.2470000D+00 0.3387000D+02 0.5095000D+01 0.1159000D+01 0.3258000D+00
EXPONENTS  0.1027000D+00 0.2526000D-01 0.1407000D+01 0.1407000D+01 0.1407000D+01
EXPONENTS  0.3880000D+00 0.3880000D+00 0.3880000D+00 0.1020000D+00 0.1020000D+00
EXPONENTS  0.1020000D+00 0.1057000D+01 0.1057000D+01 0.1057000D+01 0.1057000D+01
EXPONENTS  0.1057000D+01 0.1057000D+01 0.2470000D+00 0.2470000D+00 0.2470000D+00
EXPONENTS  0.2470000D+00 0.2470000D+00 0.2470000D+00 0.4561000D+06 0.6833000D+05
EXPONENTS  0.1555000D+05 0.4405000D+04 0.1439000D+04 0.5204000D+03 0.2031000D+03
EXPONENTS  0.8396000D+02 0.3620000D+02 0.1583000D+02 0.6334000D+01 0.4405000D+04
EXPONENTS  0.1439000D+04 0.5204000D+03 0.2031000D+03 0.8396000D+02 0.3620000D+02
EXPONENTS  0.1583000D+02 0.6334000D+01 0.2694000D+01 0.1439000D+04 0.2031000D+03
EXPONENTS  0.8396000D+02 0.3620000D+02 0.1583000D+02 0.6334000D+01 0.2694000D+01
EXPONENTS  0.4313000D+00 0.9768000D+00 0.1625000D+00 0.5910000D-01 0.6633000D+03
EXPONENTS  0.1568000D+03 0.4998000D+02 0.1842000D+02 0.7240000D+01 0.2922000D+01
EXPONENTS  0.6633000D+03 0.1568000D+03 0.4998000D+02 0.1842000D+02 0.7240000D+01
EXPONENTS  0.2922000D+01 0.6633000D+03 0.1568000D+03 0.4998000D+02 0.1842000D+02
EXPONENTS  0.7240000D+01 0.2922000D+01 0.1568000D+03 0.4998000D+02 0.1842000D+02
EXPONENTS  0.7240000D+01 0.2922000D+01 0.3818000D+00 0.1568000D+03 0.4998000D+02
EXPONENTS  0.1842000D+02 0.7240000D+01 0.2922000D+01 0.3818000D+00 0.1568000D+03
EXPONENTS  0.4998000D+02 0.1842000D+02 0.7240000D+01 0.2922000D+01 0.3818000D+00
EXPONENTS  0.1022000D+01 0.1022000D+01 0.1022000D+01 0.1301000D+00 0.1301000D+00
EXPONENTS  0.1301000D+00 0.4190000D-01 0.4190000D-01 0.4190000D-01 0.1046000D+01
EXPONENTS  0.1046000D+01 0.1046000D+01 0.1046000D+01 0.1046000D+01 0.1046000D+01
EXPONENTS  0.3440000D+00 0.3440000D+00 0.3440000D+00 0.3440000D+00 0.3440000D+00
EXPONENTS  0.3440000D+00 0.1350000D+00 0.1350000D+00 0.1350000D+00 0.1350000D+00
EXPONENTS  0.1350000D+00 0.1350000D+00 0.7060000D+00 0.7060000D+00 0.7060000D+00
EXPONENTS  0.7060000D+00 0.7060000D+00 0.7060000D+00 0.7060000D+00 0.7060000D+00
EXPONENTS  0.7060000D+00 0.7060000D+00 0.3120000D+00 0.3120000D+00 0.3120000D+00
EXPONENTS  0.3120000D+00 0.3120000D+00 0.3120000D+00 0.3120000D+00 0.3120000D+00
EXPONENTS  0.3120000D+00 0.3120000D+00 0.1950000D+05 0.2923000D+04 0.6645000D+03
EXPONENTS  0.1875000D+03 0.6062000D+02 0.2142000D+02 0.7950000D+01 0.6645000D+03
EXPONENTS  0.1875000D+03 0.6062000D+02 0.2142000D+02 0.7950000D+01 0.8815000D+00
EXPONENTS  0.2257000D+01 0.3041000D+00 0.9158000D-01 0.4388000D+02 0.9926000D+01
EXPONENTS  0.2930000D+01 0.4388000D+02 0.9926000D+01 0.2930000D+01 0.4388000D+02
EXPONENTS  0.9926000D+01 0.2930000D+01 0.9132000D+00 0.9132000D+00 0.9132000D+00
EXPONENTS  0.2672000D+00 0.2672000D+00 0.2672000D+00 0.7361000D-01 0.7361000D-01
EXPONENTS  0.7361000D-01 0.3107000D+01 0.3107000D+01 0.3107000D+01 0.3107000D+01
EXPONENTS  0.3107000D+01 0.3107000D+01 0.8550000D+00 0.8550000D+00 0.8550000D+00
EXPONENTS  0.8550000D+00 0.8550000D+00 0.8550000D+00 0.2920000D+00 0.2920000D+00
EXPONENTS  0.2920000D+00 0.2920000D+00 0.2920000D+00 0.2920000D+00 0.1917000D+01
EXPONENTS  0.1917000D+01 0.1917000D+01 0.1917000D+01 0.1917000D+01 0.1917000D+01
EXPONENTS  0.1917000D+01 0.1917000D+01 0.1917000D+01 0.1917000D+01 0.7240000D+00
EXPONENTS  0.7240000D+00 0.7240000D+00 0.7240000D+00 0.7240000D+00 0.7240000D+00
EXPONENTS  0.7240000D+00 0.7240000D+00 0.7240000D+00 0.7240000D+00
MO    1     MO 0.0        OCC NO =    2.0000300  ORB. ENERGY =    0.000000
 -0.31893567D-04 -0.59456035D-04 -0.10048880D-03 -0.15105341D-03 -0.18554206D-03
 -0.15659095D-03 -0.58882286D-04  0.14468036D-07  0.10813961D-06  0.40414240D-06
  0.11274944D-05  0.15105316D-05 -0.17836562D-05 -0.55582112D-05  0.20292942D-04
  0.20131136D-05  0.79738194D-04  0.74759625D-04  0.53233307D-04  0.79194716D-04
  0.74250080D-04  0.52870481D-04 -0.55737533D-05 -0.52257480D-05 -0.37210439D-05
  0.25671522D-03  0.25499067D-03 -0.11522978D-05  0.32845503D-03  0.32619055D-03
  0.59875470D-06  0.65903413D-05  0.65439673D-05 -0.31681391D-07  0.43554112D-04
 -0.44536749D-04  0.98263671D-06  0.88335122D-04 -0.36204692D-03 -0.35948801D-03
  0.13784915D-03 -0.13590692D-03 -0.19422327D-05  0.27547207D-03  0.70599423D-04
  0.70379191D-04  0.28600552D-04 -0.29186863D-04  0.58631083D-06  0.58101450D-04
 -0.46647163D-04 -0.46272967D-04  0.65705656D-04  0.64989249D-04  0.10668123D-05
  0.65706653D-04  0.66032274D-04  0.15149794D-04 -0.26282362D-03 -0.26100002D-03
 -0.18350231D-04  0.33152312D-04 -0.18935390D-04 -0.19665867D-04 -0.31615744D-06
 -0.18877026D-04 -0.16219851D-04  0.37104605D-04  0.75683197D-04  0.75217452D-04
 -0.36156133D-04  0.73836726D-04 -0.28126116D-04 -0.50726608D-04 -0.74796354D-04
  0.24861573D-03  0.78976381D-03 -0.87464665D-05  0.34901143D-05  0.49689749D-04
  0.16509473D-04  0.59463329D-04  0.20072636D-03  0.19181124D-03  0.53665158D-04
  0.12110652D-03  0.15608413D-04 -0.76966091D-04  0.29582912D-04  0.47383179D-04
  0.22289115D-04 -0.31881071D-04  0.21078982D-03 -0.30300140D-04 -0.82645155D-05
  0.38564656D-04  0.20629427D-04  0.44239565D-04  0.21967941D-04 -0.10530571D-04
 -0.18992318D-04 -0.28004162D-04  0.86563727D-04  0.29220403D-03 -0.33053681D-05
  0.17836349D-04 -0.48403044D-05  0.58482516D-05  0.10428228D-03  0.33260885D-04
  0.70175427D-04  0.75285049D-04  0.40768088D-04  0.54253703D-05  0.14468800D-04
 -0.31554297D-04  0.17085497D-04 -0.19041289D-04  0.46275860D-04 -0.76724340D-04
  0.71680035D-05 -0.21157388D-04  0.13989385D-04  0.69465787D-05  0.37138834D-04
  0.48020487D-04  0.38313288D-04  0.69099593D-04  0.10188731D-03 -0.36312282D-03
 -0.10887113D-02  0.11786028D-04  0.60353047D-04  0.36277497D-04 -0.23918840D-04
  0.23063252D-03  0.15771803D-03 -0.26739200D-03  0.13491839D-03  0.10019745D-03
 -0.22927071D-04  0.55935413D-06  0.66878420D-04 -0.67437775D-04 -0.13064947D-03
  0.25572488D-03  0.13418994D-03  0.22711487D-04  0.31454707D-04 -0.54166194D-04
 -0.29956024D-04  0.18041848D-04  0.28772575D-04 -0.29602731D-04 -0.55383552D-04
 -0.95690493D-04 -0.15512553D-03 -0.23557301D-03 -0.32742432D-03 -0.38928242D-03
 -0.34678631D-03 -0.17222141D-03 -0.27726191D-04 -0.29252769D-06 -0.14084928D-06
 -0.46984963D-05 -0.16373319D-04 -0.58962973D-04 -0.12997654D-03 -0.18296501D-03
  0.87280275D-05  0.23944149D-03  0.14158026D-03 -0.46883846D-09 -0.56787786D-08
 -0.11842494D-07 -0.33962212D-07 -0.17636104D-08  0.14646153D-06  0.37842846D-06
 -0.30832569D-06  0.89967665D-05 -0.44619953D-05 -0.19025194D-06  0.82381108D+01
  0.10851519D+02  0.11970924D+02  0.99427898D+01  0.52798973D+01  0.13622411D+01
  0.81816351D+01  0.10777127D+02  0.11888858D+02  0.98746278D+01  0.52437014D+01
  0.13529024D+01 -0.61579425D-01 -0.81114508D-01 -0.89481999D-01 -0.74321806D-01
 -0.39466942D-01 -0.10182677D-01 -0.32606290D-03  0.31521663D-02  0.44448836D-02
  0.63573593D-02 -0.32192773D-04 -0.58302981D-02 -0.32382773D-03  0.31305581D-02
  0.44144137D-02  0.63137794D-02 -0.31972090D-04 -0.57903312D-02  0.25423832D-05
 -0.24578125D-04 -0.34657721D-04 -0.49569710D-04  0.25101403D-06  0.45460099D-04
  0.54386468D-01  0.54013635D-01 -0.40976895D-03 -0.45674887D-03 -0.45363130D-03
  0.44789087D-05 -0.41130204D-04 -0.40848273D-04  0.28684212D-06  0.36634598D-05
 -0.97350365D-05  0.60715767D-05  0.12929524D-04 -0.69637873D-03 -0.69163765D-03
 -0.13672911D-05  0.37355496D-05 -0.23682586D-05 -0.49290120D-05  0.25287503D-03
  0.25115352D-03  0.71928678D-06 -0.90635883D-06  0.18707205D-06  0.16002686D-05
 -0.43349984D-04 -0.43048016D-04  0.18021241D-05  0.18533797D-05 -0.59580962D-07
  0.18524647D-05  0.16043844D-05  0.25024414D-04 -0.72588370D-05 -0.71645235D-05
 -0.24845671D-04  0.50159251D-04  0.10407925D-04  0.10295272D-04  0.35258572D-06
  0.10334461D-04  0.10402763D-04 -0.58295475D-05 -0.41558235D-04 -0.41288579D-04
  0.47717903D-05 -0.10751196D-04  0.56330881D-05  0.10500086D-04  0.17799985D-04
  0.26951584D-04  0.33695416D-04  0.28984101D-04  0.11116026D-04 -0.52005377D-08
 -0.68845381D-07 -0.25005895D-06 -0.74179517D-06 -0.85476910D-06  0.10382444D-05
  0.26517203D-06 -0.18020724D-05 -0.32594309D-05 -0.20639122D-03 -0.20184610D-03
 -0.13336826D-03 -0.20497812D-03 -0.20046412D-03 -0.13245512D-03 -0.12431240D-04
 -0.12157482D-04 -0.80329621D-05 -0.65792470D-05 -0.65540776D-05 -0.92446727D-06
 -0.46957214D-04 -0.46621790D-04 -0.27809260D-05 -0.13890541D-04 -0.13795610D-04
 -0.44351812D-06  0.49091403D-04 -0.49928904D-04  0.83750109D-06  0.99543220D-04
 -0.94142764D-04 -0.93408264D-04 -0.24731404D-04  0.25023793D-04 -0.29238913D-06
 -0.49993609D-04  0.72232941D-04  0.71687929D-04  0.12777115D-04 -0.12559604D-04
 -0.21751148D-06  0.25441691D-04 -0.52200541D-04 -0.51807233D-04 -0.50130499D-04
 -0.49632099D-04 -0.39762481D-06 -0.50224459D-04 -0.50034773D-04 -0.13315499D-03
  0.20061596D-03  0.19893107D-03  0.13434787D-03 -0.26862625D-03  0.17799381D-04
  0.17625249D-04  0.71501090D-07  0.17828544D-04  0.17761415D-04  0.42386682D-04
 -0.71226686D-04 -0.70637162D-04 -0.42601185D-04  0.85326475D-04
MO    2     MO 0.0        OCC NO =    2.0000300  ORB. ENERGY =    0.000000
  0.31533214D-04  0.58784263D-04  0.99353413D-04  0.14934671D-03  0.18344568D-03
  0.15482169D-03  0.58216997D-04 -0.14360466D-07 -0.10733558D-06 -0.40113758D-06
 -0.11191114D-05 -0.14993007D-05  0.17703946D-05  0.55199843D-05 -0.20241034D-04
 -0.20177749D-05 -0.77331266D-04 -0.72502977D-04 -0.51626439D-04  0.77876478D-04
  0.73014148D-04  0.51990423D-04  0.54884893D-05  0.51458076D-05  0.36641216D-05
 -0.25669364D-03  0.25851344D-03  0.88008748D-06 -0.32718922D-03  0.32944860D-03
 -0.84658886D-06 -0.66150685D-05  0.66598392D-05  0.25925003D-07  0.47451431D-04
 -0.46794962D-04 -0.65646883D-06 -0.93373925D-04  0.35887604D-03 -0.36128879D-03
  0.13666058D-03 -0.13855130D-03  0.18907136D-05 -0.27355582D-03 -0.67485836D-04
  0.68225183D-04  0.29523799D-04 -0.28977730D-04 -0.54606920D-06 -0.58101548D-04
  0.46962460D-04 -0.47235126D-04 -0.65446331D-04  0.66156943D-04 -0.83817962D-06
 -0.65452824D-04  0.65119304D-04  0.20027091D-04  0.26179182D-03 -0.26359013D-03
 -0.17512552D-04 -0.36756497D-04  0.18963777D-04 -0.18272939D-04  0.25775680D-06
  0.18992668D-04 -0.21643413D-04  0.34190591D-04 -0.75883998D-04  0.76462230D-04
 -0.34963862D-04 -0.68852630D-04 -0.28573395D-04 -0.51533295D-04 -0.75985814D-04
  0.27106263D-03  0.80139361D-03 -0.83921589D-05 -0.29165315D-05  0.51827253D-04
  0.17567594D-04 -0.58577740D-04  0.20735149D-03  0.19117663D-03 -0.53110234D-04
  0.12286560D-03  0.15803236D-04 -0.79056320D-04  0.30759583D-04  0.48296737D-04
 -0.20849295D-04  0.34411777D-04  0.21023855D-03 -0.31222426D-04 -0.87054078D-05
  0.39927834D-04 -0.20388490D-04 -0.42389620D-04  0.22192093D-04  0.39131769D-04
  0.70575757D-04  0.10406391D-03 -0.34675017D-03 -0.10848078D-02  0.11623312D-04
 -0.58535286D-04  0.35046367D-04 -0.22802174D-04 -0.23025210D-03  0.15808640D-03
 -0.25602653D-03 -0.13412978D-03  0.10026227D-03 -0.20213160D-04 -0.20381712D-05
  0.65689637D-04 -0.63651466D-04  0.13275180D-03 -0.25442922D-03  0.13207461D-03
  0.22194696D-04  0.30901423D-04 -0.53096119D-04  0.30213702D-04 -0.18242331D-04
  0.28653507D-04 -0.10224891D-04 -0.18441012D-04 -0.27191262D-04  0.10359006D-03
  0.29015127D-03 -0.29645273D-05 -0.18706869D-04 -0.61495112D-05  0.66739985D-05
 -0.10557839D-03  0.31746250D-04  0.69962897D-04 -0.74968281D-04  0.40915893D-04
  0.60657125D-05  0.13282618D-04 -0.31351950D-04  0.18069332D-04  0.19976080D-04
 -0.41863537D-04 -0.78622379D-04  0.67797530D-05 -0.21481594D-04  0.14701841D-04
 -0.69670748D-05 -0.36011938D-04  0.46496157D-04  0.29542479D-04  0.55270826D-04
  0.95495728D-04  0.15480979D-03  0.23509353D-03  0.32675789D-03  0.38849009D-03
  0.34608047D-03  0.17187088D-03  0.27669758D-04  0.29193229D-06  0.14055113D-06
  0.46885503D-05  0.16338659D-04  0.58838158D-04  0.12970140D-03  0.18257770D-03
 -0.87095516D-05 -0.23893463D-03 -0.14128055D-03  0.48382288D-09  0.58602766D-08
  0.12220989D-07  0.35047669D-07  0.18199767D-08 -0.15114255D-06 -0.39052331D-06
  0.31818001D-06 -0.89675470D-05  0.44149329D-05  0.19073051D-06 -0.81814490D+01
 -0.10776882D+02 -0.11888588D+02 -0.98744033D+01 -0.52435822D+01 -0.13528716D+01
  0.82383310D+01  0.10851809D+02  0.11971244D+02  0.99430556D+01  0.52800384D+01
  0.13622775D+01  0.54051368D-01  0.71198296D-01  0.78542865D-01  0.65235999D-01
  0.34642126D-01  0.89378496D-02  0.32377934D-03 -0.31300903D-02 -0.44137541D-02
 -0.63128360D-02  0.31967313D-04  0.57894660D-02 -0.32603064D-03  0.31518545D-02
  0.44444438D-02  0.63567304D-02 -0.32189588D-04 -0.58297213D-02 -0.22421028D-05
  0.21675208D-04  0.30564305D-04  0.43715042D-04 -0.22136682D-06 -0.40090816D-04
 -0.54013746D-01  0.54389291D-01  0.36003323D-03  0.45331703D-03 -0.45648336D-03
 -0.40432101D-05  0.40835138D-04 -0.41119066D-04 -0.24968255D-06  0.13830933D-04
 -0.84127614D-05 -0.54181717D-05 -0.21560451D-04  0.69077563D-03 -0.69561444D-03
 -0.47654245D-05  0.26431498D-05  0.21222748D-05  0.71594721D-05 -0.25097471D-03
  0.25273393D-03  0.10630679D-05 -0.91331998D-06 -0.14974793D-06 -0.19291188D-05
  0.43022505D-04 -0.43316696D-04 -0.15341089D-05  0.14563928D-05  0.72510106D-07
 -0.15216564D-05  0.17529041D-05  0.24426691D-04  0.61239830D-05 -0.61220825D-05
 -0.24644221D-04 -0.48755489D-04 -0.10340657D-04  0.10463330D-04 -0.31288268D-06
 -0.10408944D-04  0.10344757D-04 -0.42829263D-05  0.41430914D-04 -0.41734748D-04
  0.52215743D-05  0.95308882D-05 -0.56162859D-05 -0.10468767D-04 -0.17746892D-04
 -0.26871194D-04 -0.33594911D-04 -0.28897648D-04 -0.11082870D-04  0.52918074D-08
  0.70053622D-07  0.25444750D-06  0.75481372D-06  0.86977035D-06 -0.10564656D-05
 -0.26249562D-06  0.18327321D-05  0.32670136D-05  0.20526691D-03  0.20074655D-03
  0.13264174D-03 -0.20668312D-03 -0.20213158D-03 -0.13355688D-03  0.12525339D-04
  0.12249508D-04  0.80937677D-05  0.55405900D-05 -0.55983946D-05  0.91054975D-06
  0.47490664D-04 -0.47804374D-04  0.28411112D-05  0.13765442D-04 -0.13860940D-04
  0.45618810D-06  0.51114567D-04 -0.50351072D-04 -0.76349539D-06 -0.10075913D-03
  0.92945625D-04 -0.93501695D-04 -0.25534444D-04  0.25301353D-04  0.23309180D-06
  0.50457234D-04 -0.71752774D-04  0.72200871D-04  0.12663261D-04 -0.12932618D-04
  0.26935733D-06 -0.25387876D-04  0.52583890D-04 -0.52912678D-04  0.50943041D-04
 -0.51306448D-04  0.20799590D-06  0.51108237D-04 -0.51127870D-04 -0.13317621D-03
 -0.20393736D-03  0.20504721D-03  0.13255223D-03  0.26357087D-03 -0.18099266D-04
  0.18229437D-04 -0.28754508D-08 -0.18152210D-04  0.18164414D-04  0.42153887D-04
  0.72450007D-04 -0.72852725D-04 -0.42145261D-04 -0.83595733D-04
MO    3     MO 0.0        OCC NO =    2.0000210  ORB. ENERGY =    0.000000
 -0.14453440D-01 -0.26944124D-01 -0.45539240D-01 -0.68453972D-01 -0.84083444D-01
 -0.70963460D-01 -0.26684114D-01 -0.38139805D-05 -0.28507141D-04 -0.10653770D-03
 -0.29722358D-03 -0.39819766D-03  0.47019719D-03 -0.87190623D-03 -0.19343828D-02
 -0.82063826D-04  0.34497764D-05  0.32343847D-05  0.23030746D-05  0.50984509D-06
  0.47801218D-06  0.34037315D-06  0.11672331D-02  0.10943552D-02  0.77924610D-03
  0.30365968D-05  0.27409427D-06  0.60719705D-03 -0.31699940D-05 -0.16636952D-06
 -0.37919699D-03 -0.11579350D-07  0.20929606D-08  0.46694881D-05 -0.10555593D-03
 -0.10556792D-03  0.21112385D-03  0.12244413D-05  0.23619565D-05  0.27459320D-06
 -0.24082050D-04 -0.24075453D-04  0.48157503D-04  0.65649291D-07 -0.29947390D-05
  0.65709061D-07  0.11420274D-04  0.11424529D-04 -0.22844803D-04 -0.38834261D-06
 -0.72332208D-06 -0.29109639D-07  0.88571748D-07  0.36266769D-04  0.77256166D-05
  0.14335654D-06 -0.10881970D-03 -0.11545951D-04 -0.40907179D-06  0.19395643D-07
 -0.11630898D-04 -0.12190640D-05  0.34174638D-06  0.51874121D-04 -0.85668419D-04
  0.42090901D-06 -0.15539797D-03  0.12856933D-03 -0.14461482D-05 -0.22439288D-06
  0.12843593D-03  0.23290042D-06 -0.48313534D-05 -0.87135449D-05 -0.12848117D-04
  0.75271537D-03  0.23594771D-03  0.50642867D-05 -0.15962719D-06  0.95855638D-04
  0.28425031D-04 -0.15889457D-06  0.19933717D-03 -0.42571184D-05 -0.22268937D-06
  0.44035139D-04  0.38734611D-04 -0.73918220D-04  0.54244505D-04  0.19673715D-04
 -0.16449343D-06  0.53517878D-06  0.76004732D-04 -0.96520286D-05 -0.12042717D-04
  0.21694745D-04 -0.21513964D-06  0.26866802D-06 -0.34559120D-04 -0.48331492D-05
 -0.87167835D-05 -0.12852892D-04  0.75258242D-03  0.23323223D-03  0.49804093D-05
  0.82646807D-04 -0.47820107D-04  0.27051844D-04  0.17340447D-03 -0.10025613D-03
 -0.40735910D-05  0.37960611D-04 -0.22042661D-04  0.38214785D-04  0.22893743D-04
 -0.41203308D-04  0.18309566D-04 -0.11122838D-03  0.65667545D-04 -0.37546975D-04
 -0.11521956D-04 -0.10340680D-04  0.21862636D-04  0.18046038D-05 -0.29808605D-04
  0.17402749D-04 -0.48249333D-05 -0.87019659D-05 -0.12831044D-04  0.75284036D-03
  0.23870113D-03  0.51484871D-05 -0.83356626D-04 -0.48002186D-04  0.29946255D-04
 -0.17184432D-03 -0.99083896D-04 -0.42098786D-05 -0.38278101D-04 -0.21948939D-04
  0.39310722D-04  0.21460327D-04 -0.42593821D-04  0.21133493D-04  0.11062792D-03
 -0.66097127D-04 -0.38375695D-04 -0.11344488D-04 -0.10133554D-04  0.21478043D-04
 -0.22828722D-05  0.30098969D-04  0.17244409D-04 -0.15460224D+00 -0.28924429D+00
 -0.49974998D+00 -0.81015344D+00 -0.12302957D+01 -0.17099953D+01 -0.20330534D+01
 -0.18111146D+01 -0.89943782D+00 -0.14480188D+00 -0.15277454D-02 -0.72284038D-03
 -0.24112745D-01 -0.84028089D-01 -0.30259875D+00 -0.66704130D+00 -0.93897886D+00
  0.44792352D-01  0.12288169D+01  0.72659174D+00 -0.15531620D-04 -0.18812585D-03
 -0.39231662D-03 -0.11250958D-02 -0.58424657D-04  0.48519586D-02  0.12536529D-01
 -0.10214174D-01  0.46599952D-01 -0.38435240D-03 -0.13197134D-03  0.39464618D-01
  0.51984134D-01  0.57346637D-01  0.47630872D-01  0.25293315D-01  0.65258074D-02
  0.25849569D-02  0.34049929D-02  0.37562402D-02  0.31198516D-02  0.16567278D-02
  0.42744443D-03  0.59413015D+01  0.78260839D+01  0.86333957D+01  0.71707111D+01
  0.38078466D+01  0.98244431D+00 -0.13363997D-05  0.12919453D-04  0.18217777D-04
  0.26056240D-04 -0.13194513D-06 -0.23896030D-04 -0.91646117D-07  0.88597569D-06
  0.12493182D-05  0.17868555D-05 -0.90483849D-08 -0.16387150D-05 -0.21079255D-03
  0.20378067D-02  0.28735202D-02  0.41098940D-02 -0.20811925D-04 -0.37691604D-02
  0.27560400D-03  0.18120035D-04  0.41653326D-01 -0.30256008D-05 -0.21182513D-06
 -0.48392844D-03 -0.10124979D-06 -0.43864534D-08 -0.98417036D-05 -0.71142609D-05
 -0.71241480D-05  0.14238409D-04 -0.71805843D-06  0.18327925D-05  0.23992465D-07
 -0.11141284D-03 -0.11142015D-03  0.22283298D-03  0.27536470D-06  0.33214065D-05
  0.28817294D-06 -0.14321999D-04 -0.14324326D-04  0.28646325D-04 -0.92848491D-07
  0.69591800D-06  0.38180239D-07 -0.25279239D-06 -0.72128398D-05  0.54415406D-05
 -0.26403825D-06  0.21622919D-04 -0.81656512D-05  0.10224154D-05  0.15600106D-07
 -0.81589706D-05 -0.47956008D-06  0.34913707D-06  0.20730343D-05 -0.33737351D-04
  0.35231694D-06 -0.61315122D-05  0.50603385D-04 -0.13997281D-05 -0.87590590D-07
  0.50608667D-04  0.63174796D-07 -0.87939016D-03 -0.16391848D-02 -0.27787834D-02
 -0.42074538D-02 -0.52602440D-02 -0.45247531D-02 -0.17353402D-02 -0.68419563D-06
 -0.90574690D-05 -0.32898375D-04 -0.97592411D-04 -0.11245554D-03  0.13659401D-03
 -0.95960129D-04 -0.15941014D-03  0.12409039D-04 -0.17075490D-05 -0.16699457D-05
 -0.11034037D-05  0.17841916D-05  0.17449005D-05  0.11529295D-05  0.39019889D-02
  0.38160599D-02  0.25214321D-02 -0.13962653D-05  0.40062719D-06  0.87921715D-03
  0.56117201D-06  0.99924590D-08  0.21387613D-04 -0.12436175D-06  0.46578902D-08
  0.93354772D-05 -0.35647138D-04 -0.35642810D-04  0.71289948D-04  0.13876153D-05
  0.88673800D-07  0.10524531D-06  0.21097457D-04  0.21095617D-04 -0.42193074D-04
 -0.69223516D-06 -0.35526749D-06 -0.61064256D-07  0.18116882D-04  0.18116936D-04
 -0.36233818D-04  0.28744367D-06  0.71540687D-06 -0.49615343D-07  0.11406814D-05
 -0.30039086D-05  0.46414115D-04  0.11352326D-05  0.88733979D-05 -0.69627648D-04
 -0.45572769D-05  0.13832798D-06 -0.69614695D-04 -0.18476145D-05 -0.39927914D-06
  0.95427144D-06 -0.25391886D-04 -0.39757802D-06 -0.27890210D-05  0.38090047D-04
  0.15954154D-05 -0.73793316D-07  0.38085611D-04  0.55056212D-06
MO    4     MO 0.0        OCC NO =    2.0000123  ORB. ENERGY =    0.000000
  0.26826135D-01  0.50009320D-01  0.84522565D-01  0.12705318D+00  0.15606207D+00
  0.13171089D+00  0.49526732D-01 -0.14568396D-05 -0.10888973D-04 -0.40694580D-04
 -0.11353154D-03 -0.15210097D-03  0.17960288D-03  0.26462111D-02 -0.36106655D-02
 -0.42239722D-04  0.50266756D-05  0.47128278D-05  0.33558142D-05  0.16029082D-05
  0.15028284D-05  0.10701033D-05  0.36695759D-02  0.34404607D-02  0.24498130D-02
  0.10484247D-04  0.60732254D-06  0.13052638D-02 -0.45364375D-05 -0.17938077D-06
 -0.41701804D-03 -0.44593756D-07  0.17438279D-08  0.37048403D-05 -0.31916043D-03
 -0.31921464D-03  0.63837506D-03  0.37510534D-05  0.90752063D-05  0.83258111D-06
  0.95984089D-05  0.96082189D-05 -0.19206628D-04  0.20311806D-05 -0.86553909D-05
 -0.24857335D-07 -0.17868990D-04 -0.17863932D-04  0.35732922D-04 -0.61403041D-06
 -0.62447221D-06  0.49781351D-07  0.39660778D-06 -0.42209805D-04  0.22587796D-04
  0.33013713D-06  0.12657675D-03 -0.33947687D-04 -0.15199605D-05  0.52666222D-07
 -0.33815700D-04 -0.45454562D-05  0.78478519D-06  0.82067959D-04 -0.16373119D-03
  0.90930896D-06 -0.24577882D-03  0.24569690D-03 -0.32636645D-05 -0.42505528D-06
  0.24549666D-03 -0.11957144D-05 -0.90323258D-04 -0.16290171D-03 -0.24019848D-03
  0.10229225D-02  0.68428943D-03  0.42670564D-05 -0.54612686D-06 -0.57779973D-04
  0.33538633D-04 -0.55265907D-07  0.30466152D-03 -0.43244240D-04 -0.29018812D-06
  0.11105547D-03  0.75811972D-04 -0.14238405D-03  0.24279477D-04  0.11810457D-03
 -0.51679376D-06  0.14982917D-05  0.14266007D-03 -0.14789552D-04 -0.21036533D-04
  0.35826085D-04 -0.25366124D-06  0.15475334D-06 -0.62798430D-04 -0.90152673D-04
 -0.16259406D-03 -0.23974484D-03  0.10280427D-02  0.67870678D-03  0.41142699D-05
 -0.50223222D-04  0.28698943D-04  0.30723727D-04  0.26754915D-03 -0.15459694D-03
 -0.45705279D-04  0.95749081D-04 -0.55446099D-04  0.75009161D-04 -0.14977635D-04
 -0.99028150D-04  0.11400578D-03 -0.14613725D-03  0.12111876D-03 -0.68891474D-04
 -0.19319288D-04 -0.16355602D-04  0.35674889D-04  0.48345255D-05 -0.54355606D-04
  0.31529303D-04 -0.90479077D-04 -0.16318274D-03 -0.24061286D-03  0.10177398D-02
  0.68989628D-03  0.44200695D-05  0.49887658D-04  0.29112542D-04  0.36359205D-04
 -0.26009174D-03 -0.15009056D-03 -0.40417825D-04 -0.96538830D-04 -0.55517278D-04
  0.76757197D-04 -0.19926257D-04 -0.10248061D-03  0.12240686D-03  0.14225062D-03
 -0.12589731D-03 -0.73307754D-04 -0.19587688D-04 -0.16299512D-04  0.35887200D-04
 -0.58946175D-05  0.54506714D-04  0.31410216D-04  0.91314321D-01  0.17083935D+00
  0.29517250D+00  0.47850931D+00  0.72666231D+00  0.10099922D+01  0.12008034D+01
  0.10697174D+01  0.53124427D+00  0.85525833D-01  0.90234806D-03  0.42753228D-03
  0.14261761D-01  0.49699382D-01  0.17897552D+00  0.39452926D+00  0.55536987D+00
 -0.26492953D-01 -0.72679792D+00 -0.42975106D+00  0.62781129D-05  0.76043278D-04
  0.15858024D-03  0.45478052D-03  0.23616119D-04 -0.19612342D-02 -0.50674524D-02
  0.41287217D-02 -0.28545240D-01  0.14181716D-02 -0.18175656D-03  0.71361992D-01
  0.94000437D-01  0.10369720D+00  0.86128641D-01  0.45736698D-01  0.11800307D-01
  0.43014635D-02  0.56660337D-02  0.62505221D-02  0.51915480D-02  0.27568561D-02
  0.71128328D-03  0.99143707D+01  0.13059546D+02  0.14406723D+02  0.11965911D+02
  0.63542310D+01  0.16394248D+01 -0.22426887D-05  0.21680872D-04  0.30572292D-04
  0.43726465D-04 -0.22142467D-06 -0.40101293D-04 -0.14587510D-06  0.14102266D-05
  0.19885667D-05  0.28441764D-05 -0.14402509D-07 -0.26083780D-05 -0.33685885D-03
  0.32565346D-02  0.45920538D-02  0.65678516D-02 -0.33258676D-04 -0.60233394D-02
  0.51757149D-03  0.31473632D-04  0.72555263D-01 -0.21509241D-05 -0.13795221D-06
 -0.30638231D-03 -0.98568038D-07 -0.18923203D-08 -0.39566922D-05  0.45439035D-03
  0.45443247D-03 -0.90882282D-03 -0.11382309D-05 -0.15172770D-04 -0.11748151D-05
 -0.30963450D-03 -0.30965886D-03  0.61929336D-03  0.60869690D-06  0.97541199D-05
  0.80140034D-06  0.43329969D-05  0.43323740D-05 -0.86653709D-05 -0.19583240D-06
  0.13213903D-06 -0.83150879D-08 -0.48307932D-07 -0.14493681D-04 -0.46953009D-04
 -0.71050645D-07  0.43594744D-04  0.70414774D-04  0.21597444D-06 -0.11370023D-06
  0.70444253D-04 -0.12608569D-05  0.59605653D-06  0.42132695D-05 -0.62576233D-04
  0.60250640D-06 -0.12476107D-04  0.93861688D-04 -0.23906760D-05 -0.16370186D-06
  0.93867012D-04  0.11910177D-06 -0.63567178D-02 -0.11848933D-01 -0.20086581D-01