 title line
GAUSSIAN            211 MOL ORBITALS    339 PRIMITIVES        6 NUCLEI
  C    1    (CENTRE  1)   0.00033070  0.00005480 -0.94053370  CHARGE =  6.0
  H    2    (CENTRE  2)   0.00003590 -1.98906904 -1.17300214  CHARGE =  1.0
  H    3    (CENTRE  3)  -1.72213010  0.99468570 -1.17398291  CHARGE =  1.0
  H    4    (CENTRE  4)   1.72295780  1.01314265 -1.17459707  CHARGE =  1.0
  Cl   5    (CENTRE  5)   0.00104880  0.00181792  3.10806659  CHARGE = 17.0
  F    6    (CENTRE  6)  -0.00035149 -0.00174044 -4.90092914  CHARGE =  9.0
CENTRE ASSIGNMENTS    1  1  1  1  1  1  1  1  1  1  1  1  1  1  1  1  1  1  1  1
CENTRE ASSIGNMENTS    1  1  1  1  1  1  1  1  1  1  1  1  1  1  1  1  1  1  1  1
CENTRE ASSIGNMENTS    1  1  1  1  1  1  1  1  1  1  1  1  1  1  1  1  1  1  1  1
CENTRE ASSIGNMENTS    1  1  1  1  1  1  1  1  1  1  1  1  2  2  2  2  2  2  2  2
CENTRE ASSIGNMENTS    2  2  2  2  2  2  2  2  2  2  2  2  2  2  2  2  2  2  2  3
CENTRE ASSIGNMENTS    3  3  3  3  3  3  3  3  3  3  3  3  3  3  3  3  3  3  3  3
CENTRE ASSIGNMENTS    3  3  3  3  3  3  4  4  4  4  4  4  4  4  4  4  4  4  4  4
CENTRE ASSIGNMENTS    4  4  4  4  4  4  4  4  4  4  4  4  4  5  5  5  5  5  5  5
CENTRE ASSIGNMENTS    5  5  5  5  5  5  5  5  5  5  5  5  5  5  5  5  5  5  5  5
CENTRE ASSIGNMENTS    5  5  5  5  5  5  5  5  5  5  5  5  5  5  5  5  5  5  5  5
CENTRE ASSIGNMENTS    5  5  5  5  5  5  5  5  5  5  5  5  5  5  5  5  5  5  5  5
CENTRE ASSIGNMENTS    5  5  5  5  5  5  5  5  5  5  5  5  5  5  5  5  5  5  5  5
CENTRE ASSIGNMENTS    5  5  5  5  5  5  5  5  5  5  5  5  5  5  5  5  5  5  5  5
CENTRE ASSIGNMENTS    5  5  5  5  5  5  5  6  6  6  6  6  6  6  6  6  6  6  6  6
CENTRE ASSIGNMENTS    6  6  6  6  6  6  6  6  6  6  6  6  6  6  6  6  6  6  6  6
CENTRE ASSIGNMENTS    6  6  6  6  6  6  6  6  6  6  6  6  6  6  6  6  6  6  6  6
CENTRE ASSIGNMENTS    6  6  6  6  6  6  6  6  6  6  6  6  6  6  6  6  6  6  6
TYPE ASSIGNMENTS      1  1  1  1  1  1  1  1  1  1  1  1  1  1  1  1  2  2  2  3
TYPE ASSIGNMENTS      3  3  4  4  4  2  3  4  2  3  4  2  3  4  5  6  7  8  9 10
TYPE ASSIGNMENTS      5  6  7  8  9 10  5  6  7  8  9 10 11 12 13 17 14 15 18 19
TYPE ASSIGNMENTS     16 20 11 12 13 17 14 15 18 19 16 20  1  1  1  1  1  1  2  3
TYPE ASSIGNMENTS      4  2  3  4  2  3  4  5  6  7  8  9 10  5  6  7  8  9 10  1
TYPE ASSIGNMENTS      1  1  1  1  1  2  3  4  2  3  4  2  3  4  5  6  7  8  9 10
TYPE ASSIGNMENTS      5  6  7  8  9 10  1  1  1  1  1  1  2  3  4  2  3  4  2  3
TYPE ASSIGNMENTS      4  5  6  7  8  9 10  5  6  7  8  9 10  1  1  1  1  1  1  1
TYPE ASSIGNMENTS      1  1  1  1  1  1  1  1  1  1  1  1  1  1  1  1  1  1  1  1
TYPE ASSIGNMENTS      1  1  1  1  2  2  2  2  2  2  3  3  3  3  3  3  4  4  4  4
TYPE ASSIGNMENTS      4  4  2  2  2  2  2  2  3  3  3  3  3  3  4  4  4  4  4  4
TYPE ASSIGNMENTS      2  3  4  2  3  4  2  3  4  5  6  7  8  9 10  5  6  7  8  9
TYPE ASSIGNMENTS     10  5  6  7  8  9 10 11 12 13 17 14 15 18 19 16 20 11 12 13
TYPE ASSIGNMENTS     17 14 15 18 19 16 20  1  1  1  1  1  1  1  1  1  1  1  1  1
TYPE ASSIGNMENTS      1  1  1  2  2  2  3  3  3  4  4  4  2  3  4  2  3  4  2  3
TYPE ASSIGNMENTS      4  5  6  7  8  9 10  5  6  7  8  9 10  5  6  7  8  9 10 11
TYPE ASSIGNMENTS     12 13 17 14 15 18 19 16 20 11 12 13 17 14 15 18 19 16 20
EXPONENTS  0.8236000D+04 0.1235000D+04 0.2808000D+03 0.7927000D+02 0.2559000D+02
EXPONENTS  0.8997000D+01 0.3319000D+01 0.2808000D+03 0.7927000D+02 0.2559000D+02
EXPONENTS  0.8997000D+01 0.3319000D+01 0.3643000D+00 0.9059000D+00 0.1285000D+00
EXPONENTS  0.4402000D-01 0.1871000D+02 0.4133000D+01 0.1200000D+01 0.1871000D+02
EXPONENTS  0.4133000D+01 0.1200000D+01 0.1871000D+02 0.4133000D+01 0.1200000D+01
EXPONENTS  0.3827000D+00 0.3827000D+00 0.3827000D+00 0.1209000D+00 0.1209000D+00
EXPONENTS  0.1209000D+00 0.3569000D-01 0.3569000D-01 0.3569000D-01 0.1097000D+01
EXPONENTS  0.1097000D+01 0.1097000D+01 0.1097000D+01 0.1097000D+01 0.1097000D+01
EXPONENTS  0.3180000D+00 0.3180000D+00 0.3180000D+00 0.3180000D+00 0.3180000D+00
EXPONENTS  0.3180000D+00 0.1000000D+00 0.1000000D+00 0.1000000D+00 0.1000000D+00
EXPONENTS  0.1000000D+00 0.1000000D+00 0.7610000D+00 0.7610000D+00 0.7610000D+00
EXPONENTS  0.7610000D+00 0.7610000D+00 0.7610000D+00 0.7610000D+00 0.7610000D+00
EXPONENTS  0.7610000D+00 0.7610000D+00 0.2680000D+00 0.2680000D+00 0.2680000D+00
EXPONENTS  0.2680000D+00 0.2680000D+00 0.2680000D+00 0.2680000D+00 0.2680000D+00
EXPONENTS  0.2680000D+00 0.2680000D+00 0.3387000D+02 0.5095000D+01 0.1159000D+01
EXPONENTS  0.3258000D+00 0.1027000D+00 0.2526000D-01 0.1407000D+01 0.1407000D+01
EXPONENTS  0.1407000D+01 0.3880000D+00 0.3880000D+00 0.3880000D+00 0.1020000D+00
EXPONENTS  0.1020000D+00 0.1020000D+00 0.1057000D+01 0.1057000D+01 0.1057000D+01
EXPONENTS  0.1057000D+01 0.1057000D+01 0.1057000D+01 0.2470000D+00 0.2470000D+00
EXPONENTS  0.2470000D+00 0.2470000D+00 0.2470000D+00 0.2470000D+00 0.3387000D+02
EXPONENTS  0.5095000D+01 0.1159000D+01 0.3258000D+00 0.1027000D+00 0.2526000D-01
EXPONENTS  0.1407000D+01 0.1407000D+01 0.1407000D+01 0.3880000D+00 0.3880000D+00
EXPONENTS  0.3880000D+00 0.1020000D+00 0.1020000D+00 0.1020000D+00 0.1057000D+01
EXPONENTS  0.1057000D+01 0.1057000D+01 0.1057000D+01 0.1057000D+01 0.1057000D+01
EXPONENTS  0.2470000D+00 0.2470000D+00 0.2470000D+00 0.2470000D+00 0.2470000D+00
EXPONENTS  0.2470000D+00 0.3387000D+02 0.5095000D+01 0.1159000D+01 0.3258000D+00
EXPONENTS  0.1027000D+00 0.2526000D-01 0.1407000D+01 0.1407000D+01 0.1407000D+01
EXPONENTS  0.3880000D+00 0.3880000D+00 0.3880000D+00 0.1020000D+00 0.1020000D+00
EXPONENTS  0.1020000D+00 0.1057000D+01 0.1057000D+01 0.1057000D+01 0.1057000D+01
EXPONENTS  0.1057000D+01 0.1057000D+01 0.2470000D+00 0.2470000D+00 0.2470000D+00
EXPONENTS  0.2470000D+00 0.2470000D+00 0.2470000D+00 0.4561000D+06 0.6833000D+05
EXPONENTS  0.1555000D+05 0.4405000D+04 0.1439000D+04 0.5204000D+03 0.2031000D+03
EXPONENTS  0.8396000D+02 0.3620000D+02 0.1583000D+02 0.6334000D+01 0.4405000D+04
EXPONENTS  0.1439000D+04 0.5204000D+03 0.2031000D+03 0.8396000D+02 0.3620000D+02
EXPONENTS  0.1583000D+02 0.6334000D+01 0.2694000D+01 0.1439000D+04 0.2031000D+03
EXPONENTS  0.8396000D+02 0.3620000D+02 0.1583000D+02 0.6334000D+01 0.2694000D+01
EXPONENTS  0.4313000D+00 0.9768000D+00 0.1625000D+00 0.5910000D-01 0.6633000D+03
EXPONENTS  0.1568000D+03 0.4998000D+02 0.1842000D+02 0.7240000D+01 0.2922000D+01
EXPONENTS  0.6633000D+03 0.1568000D+03 0.4998000D+02 0.1842000D+02 0.7240000D+01
EXPONENTS  0.2922000D+01 0.6633000D+03 0.1568000D+03 0.4998000D+02 0.1842000D+02
EXPONENTS  0.7240000D+01 0.2922000D+01 0.1568000D+03 0.4998000D+02 0.1842000D+02
EXPONENTS  0.7240000D+01 0.2922000D+01 0.3818000D+00 0.1568000D+03 0.4998000D+02
EXPONENTS  0.1842000D+02 0.7240000D+01 0.2922000D+01 0.3818000D+00 0.1568000D+03
EXPONENTS  0.4998000D+02 0.1842000D+02 0.7240000D+01 0.2922000D+01 0.3818000D+00
EXPONENTS  0.1022000D+01 0.1022000D+01 0.1022000D+01 0.1301000D+00 0.1301000D+00
EXPONENTS  0.1301000D+00 0.4190000D-01 0.4190000D-01 0.4190000D-01 0.1046000D+01
EXPONENTS  0.1046000D+01 0.1046000D+01 0.1046000D+01 0.1046000D+01 0.1046000D+01
EXPONENTS  0.3440000D+00 0.3440000D+00 0.3440000D+00 0.3440000D+00 0.3440000D+00
EXPONENTS  0.3440000D+00 0.1350000D+00 0.1350000D+00 0.1350000D+00 0.1350000D+00
EXPONENTS  0.1350000D+00 0.1350000D+00 0.7060000D+00 0.7060000D+00 0.7060000D+00
EXPONENTS  0.7060000D+00 0.7060000D+00 0.7060000D+00 0.7060000D+00 0.7060000D+00
EXPONENTS  0.7060000D+00 0.7060000D+00 0.3120000D+00 0.3120000D+00 0.3120000D+00
EXPONENTS  0.3120000D+00 0.3120000D+00 0.3120000D+00 0.3120000D+00 0.3120000D+00
EXPONENTS  0.3120000D+00 0.3120000D+00 0.1950000D+05 0.2923000D+04 0.6645000D+03
EXPONENTS  0.1875000D+03 0.6062000D+02 0.2142000D+02 0.7950000D+01 0.6645000D+03
EXPONENTS  0.1875000D+03 0.6062000D+02 0.2142000D+02 0.7950000D+01 0.8815000D+00
EXPONENTS  0.2257000D+01 0.3041000D+00 0.9158000D-01 0.4388000D+02 0.9926000D+01
EXPONENTS  0.2930000D+01 0.4388000D+02 0.9926000D+01 0.2930000D+01 0.4388000D+02
EXPONENTS  0.9926000D+01 0.2930000D+01 0.9132000D+00 0.9132000D+00 0.9132000D+00
EXPONENTS  0.2672000D+00 0.2672000D+00 0.2672000D+00 0.7361000D-01 0.7361000D-01
EXPONENTS  0.7361000D-01 0.3107000D+01 0.3107000D+01 0.3107000D+01 0.3107000D+01
EXPONENTS  0.3107000D+01 0.3107000D+01 0.8550000D+00 0.8550000D+00 0.8550000D+00
EXPONENTS  0.8550000D+00 0.8550000D+00 0.8550000D+00 0.2920000D+00 0.2920000D+00
EXPONENTS  0.2920000D+00 0.2920000D+00 0.2920000D+00 0.2920000D+00 0.1917000D+01
EXPONENTS  0.1917000D+01 0.1917000D+01 0.1917000D+01 0.1917000D+01 0.1917000D+01
EXPONENTS  0.1917000D+01 0.1917000D+01 0.1917000D+01 0.1917000D+01 0.7240000D+00
EXPONENTS  0.7240000D+00 0.7240000D+00 0.7240000D+00 0.7240000D+00 0.7240000D+00
EXPONENTS  0.7240000D+00 0.7240000D+00 0.7240000D+00 0.7240000D+00
MO    1     MO 0.0        OCC NO =    2.0000300  ORB. ENERGY =    0.000000
  0.13961602D-04  0.26027239D-04  0.43989580D-04  0.66124543D-04  0.81222157D-04
  0.68548635D-04  0.25776077D-04  0.33919489D-08  0.25352717D-07  0.94748891D-07
  0.26433465D-06  0.35413556D-06 -0.41816806D-06  0.17502792D-05 -0.22680424D-04
 -0.59725678D-06  0.10960801D-03  0.10276448D-03  0.73174430D-04 -0.14937204D-05
 -0.14004578D-05 -0.99720942D-06 -0.26445062D-06 -0.24793927D-06 -0.17654753D-06
  0.35488443D-03 -0.51014108D-05 -0.18126213D-05  0.45933524D-03 -0.53308194D-05
  0.12327081D-05  0.94798560D-05 -0.16804261D-06  0.12544668D-07 -0.13884633D-05
  0.18829669D-05 -0.49450353D-06  0.12680078D-03 -0.51068748D-03  0.50526877D-05
 -0.44823626D-05  0.24105385D-05  0.20718240D-05  0.38440172D-03  0.96952904D-04
 -0.21041935D-05 -0.42560485D-06  0.82827040D-06 -0.40266555D-06  0.81611837D-04
 -0.65795069D-04  0.55758919D-06  0.91254335D-04 -0.89439344D-06  0.39980962D-06
  0.95148882D-04 -0.81597633D-06 -0.25403621D-05 -0.36891189D-03  0.34991566D-05
  0.13409332D-05  0.50218818D-04 -0.27174926D-04  0.11210278D-05  0.81814654D-07
 -0.24936122D-04 -0.24572502D-05 -0.98520808D-06  0.10646090D-03 -0.90583329D-06
  0.73976412D-06  0.10052576D-03  0.57208925D-06  0.10317865D-05  0.15213686D-05
  0.35354891D-05 -0.13217092D-04  0.99234614D-07  0.50334946D-05 -0.10668371D-06
 -0.74625015D-07  0.79467718D-04 -0.26799855D-05 -0.35611747D-05  0.74474406D-04
 -0.17040921D-05 -0.59668085D-06  0.11207673D-05 -0.59967732D-06 -0.52109002D-06
  0.27723504D-04 -0.47084490D-04 -0.41707877D-05  0.92348202D-07 -0.12175401D-06
  0.29405810D-07  0.28441700D-04  0.60695172D-04 -0.45573925D-06 -0.34848648D-04
 -0.62850972D-04 -0.92673721D-04  0.32366207D-03  0.97563278D-03 -0.10304037D-04
  0.54928480D-04 -0.29071868D-04  0.21208881D-04  0.23724271D-03 -0.87558607D-04
  0.23680196D-03  0.14790937D-03 -0.42984561D-04  0.19439211D-04  0.10107018D-04
 -0.69972235D-04  0.59865218D-04 -0.10546667D-03  0.21362082D-03 -0.14986867D-03
 -0.11481609D-04 -0.37330570D-04  0.48812179D-04 -0.16437441D-04  0.38389903D-04
  0.12459362D-04  0.34786406D-04  0.62738716D-04  0.92508200D-04 -0.29925563D-03
 -0.95158119D-03  0.10304902D-04  0.52501561D-04  0.27435035D-04 -0.19324927D-04
  0.23155515D-03  0.86723252D-04 -0.22946051D-03  0.14491852D-03  0.41812854D-04
 -0.19329198D-04 -0.10285508D-04  0.67600683D-04 -0.57315175D-04 -0.10707533D-03
  0.20637762D-03  0.14947327D-03  0.10499008D-04  0.36137769D-04 -0.46636777D-04
 -0.16138553D-04  0.38409579D-04 -0.12961766D-04 -0.37469754D-04 -0.70101911D-04
 -0.12112055D-03 -0.19635065D-03 -0.29817730D-03 -0.41443840D-03 -0.49273550D-03
 -0.43894590D-03 -0.21798982D-03 -0.35094516D-04 -0.37026788D-06 -0.17537549D-06
 -0.58502327D-05 -0.20386890D-04 -0.73416491D-04 -0.16183752D-03 -0.22781499D-03
  0.10867518D-04  0.29813548D-03  0.17628564D-03 -0.44792505D-08 -0.54254662D-07
 -0.11314238D-06 -0.32447264D-06 -0.16849412D-07  0.13992834D-05  0.36154795D-05
 -0.29457226D-05  0.11096739D-04  0.72766798D-06  0.43671587D-06  0.11610027D+02
  0.15293122D+02  0.16870707D+02  0.14012443D+02  0.74409962D+01  0.19198159D+01
 -0.12908252D+00 -0.17003188D+00 -0.18757178D+00 -0.15579305D+00 -0.82730432D-01
 -0.21344884D-01 -0.44691120D-02 -0.58868659D-02 -0.64941346D-02 -0.53938873D-02
 -0.28643038D-02 -0.73900536D-03 -0.45945616D-03  0.44417265D-02  0.62632980D-02
  0.89581731D-02 -0.45362927D-04 -0.82154896D-02  0.50867138D-05 -0.49175076D-04
 -0.69341990D-04 -0.99177389D-04  0.50222034D-06  0.90955020D-04  0.16875962D-06
 -0.16314594D-05 -0.23005281D-05 -0.32903638D-05  0.16661939D-07  0.30175739D-05
  0.76646344D-01 -0.85162280D-03 -0.29609405D-04 -0.64404077D-03  0.73738541D-05
 -0.10186135D-06 -0.58013931D-04  0.66312864D-06 -0.81585793D-08 -0.94616440D-06
  0.18441718D-06  0.76174722D-06  0.24718941D-04 -0.98013561D-03  0.10478895D-04
  0.30879748D-06  0.79372969D-08 -0.31673477D-06 -0.86306011D-05  0.35546926D-03
 -0.36675367D-05 -0.53648660D-07  0.25100740D-07  0.28547920D-07  0.25702847D-05
 -0.60856200D-04  0.54871289D-06  0.22501878D-05 -0.11101670D-07  0.99296132D-08
  0.21853481D-05  0.20093142D-06 -0.68613377D-06 -0.89359116D-05 -0.16762641D-06
  0.65634493D-06  0.70294632D-04  0.14663297D-04 -0.15823953D-06  0.92876323D-07
  0.14651200D-04 -0.22984920D-06 -0.65702153D-08 -0.58641089D-04  0.70456778D-06
 -0.27205876D-06 -0.14508182D-04  0.62272778D-06  0.11607656D-05  0.19677564D-05
  0.29794493D-05  0.37249678D-05  0.32041403D-05  0.12288568D-05  0.36903119D-08
  0.48852820D-07  0.17744233D-06  0.52637933D-06  0.60654586D-06 -0.73674029D-06
  0.17978327D-06  0.16381803D-05  0.65567987D-06 -0.29235608D-03 -0.28591786D-03
 -0.18891802D-03  0.22025052D-05  0.21540020D-05  0.14232402D-05 -0.12074738D-05
 -0.11808830D-05 -0.78025932D-06 -0.83725714D-05 -0.11904015D-06 -0.18076639D-06
 -0.66935220D-04  0.52056684D-06  0.68529569D-06 -0.19622500D-04  0.22684532D-06
  0.35884916D-07 -0.12392571D-05  0.14487144D-05 -0.20945726D-06  0.14163884D-03
 -0.13376703D-03  0.23604446D-05  0.61097124D-06 -0.75714813D-06  0.14617690D-06
 -0.70992000D-04  0.10254045D-03 -0.14779549D-05 -0.37034708D-06  0.37272457D-06
 -0.23774862D-08  0.35913823D-04 -0.74272641D-04  0.75677934D-06 -0.71089086D-04
  0.32674239D-06  0.40864998D-06 -0.72419291D-04  0.11160175D-05  0.35587496D-05
  0.28568655D-03 -0.20962446D-05 -0.47846995D-05 -0.37666681D-03  0.25251609D-04
 -0.11684928D-06 -0.14100482D-06  0.25656606D-04 -0.35990577D-06 -0.11272275D-05
 -0.10141143D-03  0.71045361D-06  0.15502419D-05  0.11953559D-03
MO    2     MO 0.0        OCC NO =    2.0000300  ORB. ENERGY =    0.000000
 -0.87748548D-05 -0.16358097D-04 -0.27647413D-04 -0.41559218D-04 -0.51048056D-04
 -0.43082758D-04 -0.16200242D-04  0.12895697D-07  0.96387349D-07  0.36022153D-06
  0.10049620D-05  0.13463720D-05 -0.15898143D-05 -0.35389437D-05  0.14512139D-04
  0.44827591D-06  0.99235037D-06  0.93039155D-06  0.66249421D-06  0.11126840D-03
  0.10432120D-03  0.74282911D-04  0.33157089D-06  0.31086878D-06  0.22135709D-06
  0.28183416D-05  0.36450274D-03 -0.13798325D-05  0.49302984D-05  0.46472297D-03
 -0.69227875D-06  0.39711579D-07  0.92097813D-05 -0.10513859D-07  0.63332112D-04
 -0.64934289D-04  0.16021767D-05  0.15171146D-05 -0.62713556D-05 -0.51050003D-03
  0.19516373D-03 -0.19239566D-03 -0.27680646D-05  0.76371175D-05  0.53787298D-07
  0.97320774D-04  0.40797246D-04 -0.41577331D-04  0.78008526D-06  0.18607392D-05
 -0.90694802D-06 -0.66316891D-04  0.25377716D-06  0.93065140D-04  0.47520010D-06
  0.39684752D-05  0.92835421D-04  0.23518931D-04 -0.47298066D-05 -0.37203084D-03
 -0.24944532D-04 -0.20342531D-05 -0.86553871D-06 -0.28108733D-04  0.35301359D-07
  0.11286353D-05 -0.23438259D-04  0.49815064D-04  0.14679809D-05  0.10776446D-03
 -0.49920968D-04  0.20559345D-05 -0.40244782D-04 -0.72583122D-04 -0.10702377D-03
  0.35899586D-03  0.11243995D-02 -0.12341089D-04 -0.20074596D-07  0.71880198D-04
  0.24405564D-04 -0.51092385D-07  0.28760797D-03  0.26868578D-03  0.14638322D-05
  0.17199832D-03  0.22263970D-04 -0.11035639D-03  0.43030789D-04  0.67325599D-04
 -0.12931341D-06 -0.38134257D-06  0.29692063D-03 -0.43030242D-04 -0.11793408D-04
  0.54823650D-04  0.36323045D-06  0.10959983D-05  0.31136591D-04  0.19499108D-04
  0.35167445D-04  0.51854377D-04 -0.18862936D-03 -0.55080198D-03  0.59140623D-05
 -0.29038414D-04  0.20705095D-04 -0.12331662D-04 -0.85195158D-04  0.13754112D-03
 -0.13246655D-03 -0.40412388D-04  0.10046118D-03 -0.10733536D-04  0.10697315D-04
  0.22499358D-04 -0.33196673D-04  0.79571744D-04 -0.14663724D-03  0.37695769D-04
  0.21096258D-04  0.68581134D-05 -0.27954372D-04  0.26629729D-04  0.13703910D-04
  0.54078935D-04  0.20721192D-04  0.37371522D-04  0.55104288D-04 -0.19576119D-03
 -0.57471675D-03  0.63758450D-05  0.29828014D-04  0.22350473D-04 -0.12290987D-04
  0.94047765D-04  0.13560303D-03 -0.13688830D-03  0.44305289D-04  0.10102768D-03
 -0.11049262D-04  0.88835912D-05  0.25446584D-04 -0.34330175D-04 -0.82491442D-04
  0.15077848D-03  0.42439165D-04  0.21362197D-04  0.79934151D-05 -0.29355612D-04
 -0.26708543D-04 -0.12701090D-04  0.52862575D-04  0.49072889D-05  0.91810139D-05
  0.15862756D-04  0.25715391D-04  0.39051288D-04  0.54277616D-04  0.64531927D-04
  0.57487283D-04  0.28549400D-04  0.45962119D-05  0.48492751D-07  0.22000955D-07
  0.73391502D-06  0.25575469D-05  0.92101405D-05  0.20302609D-04  0.28579520D-04
 -0.13633363D-05 -0.37401265D-04 -0.22115134D-04  0.23096221D-08  0.27975164D-07
  0.58339255D-07  0.16730683D-06  0.86880105D-08 -0.72150817D-06 -0.18642386D-05
  0.15188938D-05 -0.16428140D-05 -0.35064087D-05 -0.68769515D-06  0.12907781D+00
  0.17002567D+00  0.18756493D+00  0.15578736D+00  0.82727410D-01  0.21344104D-01
  0.11610011D+02  0.15293100D+02  0.16870683D+02  0.14012423D+02  0.74409857D+01
  0.19198132D+01 -0.54260631D-02 -0.71473944D-02 -0.78846948D-02 -0.65488564D-02
 -0.34776245D-02 -0.89724529D-03 -0.51301241D-05  0.49594739D-04  0.69933759D-04
  0.10002378D-03 -0.50650632D-06 -0.91731236D-04 -0.45950186D-03  0.44421683D-02
  0.62639210D-02  0.89590641D-02 -0.45367440D-04 -0.82163068D-02  0.26204578D-06
 -0.25332900D-05 -0.35722034D-05 -0.51091958D-05  0.25872248D-07  0.46856144D-05
  0.85272814D-03  0.76650384D-01 -0.36538131D-04 -0.69389966D-05 -0.64305044D-03
  0.11939093D-05 -0.62597944D-06 -0.57931053D-04  0.70628497D-07  0.12394441D-04
 -0.12539254D-04  0.14481362D-06 -0.18719987D-06 -0.11327403D-04 -0.98101024D-03
 -0.43372538D-05  0.44085797D-05 -0.71325951D-07 -0.29285802D-07  0.42499554D-05
  0.35668836D-03  0.12509133D-05 -0.12632820D-05  0.12368648D-07  0.16800023D-07
 -0.80774698D-06 -0.61267344D-04  0.12295388D-06  0.26366733D-05  0.52283952D-07
  0.46695768D-08  0.20137030D-05  0.34841964D-04 -0.37353121D-06 -0.99237228D-05
 -0.34998816D-04  0.13041168D-05  0.14687224D-06  0.14592358D-04 -0.87208751D-07
  0.15922830D-06  0.14804327D-04 -0.69858879D-05 -0.59984503D-06 -0.58581402D-04
  0.72475141D-05 -0.27561719D-06  0.12006579D-05  0.22380285D-05  0.37939569D-05
  0.57445638D-05  0.71819700D-05  0.61777821D-05  0.23693124D-05 -0.46629355D-08
 -0.61728535D-07 -0.22420927D-06 -0.66511258D-06 -0.76640790D-06  0.93091655D-06
 -0.28390889D-07 -0.23031724D-05 -0.12906115D-05 -0.42914753D-05 -0.41969691D-05
 -0.27731149D-05 -0.29188297D-03 -0.28545517D-03 -0.18861230D-03 -0.19144667D-05
 -0.18723066D-05 -0.12371121D-05 -0.30521072D-06 -0.88095868D-05 -0.96987670D-06
 -0.97179749D-06 -0.66985275D-04 -0.59062794D-06 -0.20860584D-06 -0.19499959D-04
 -0.12092469D-06  0.70540199D-04 -0.71094502D-04  0.55430305D-06  0.26724269D-05
 -0.58399006D-06 -0.13084719D-03 -0.35305399D-04  0.35747297D-04 -0.44189821D-06
 -0.13183850D-05  0.78971348D-06  0.10122203D-03  0.17783468D-04 -0.18130661D-04
  0.34719332D-06  0.61308379D-06 -0.89505562D-06 -0.74132029D-04 -0.10660438D-05
 -0.71392872D-04 -0.14142769D-05 -0.10801960D-05 -0.73138667D-04 -0.18563821D-03
  0.42783275D-05  0.28731728D-03  0.18988104D-03 -0.58451309D-05  0.38819143D-06
  0.25396951D-04  0.50753488D-06  0.38838814D-06  0.25912953D-04  0.58824368D-04
 -0.15529624D-05 -0.10210381D-03 -0.60346973D-04  0.18240983D-05
MO    3     MO 0.0        OCC NO =    2.0000210  ORB. ENERGY =    0.000000
 -0.14462252D-01 -0.26960551D-01 -0.45567004D-01 -0.68495706D-01 -0.84134706D-01
 -0.71006724D-01 -0.26700383D-01 -0.38184832D-05 -0.28540796D-04 -0.10666347D-03
 -0.29757448D-03 -0.39866776D-03  0.47075229D-03 -0.87151640D-03 -0.19298733D-02
 -0.81709942D-04 -0.16221771D-05 -0.15208942D-05 -0.10829673D-05 -0.85670810D-06
 -0.80321830D-06 -0.57193928D-06  0.11663636D-02  0.10935400D-02  0.77866564D-03
  0.69595219D-05  0.25049639D-05  0.60569610D-03  0.37883670D-05 -0.18854610D-05
 -0.37868856D-03 -0.21271746D-07  0.62258396D-07  0.46718747D-05 -0.10437433D-03
 -0.10588820D-03  0.21026253D-03  0.19042352D-05  0.10354104D-06 -0.27726637D-06
 -0.23395765D-04 -0.25372267D-04  0.48768032D-04  0.24904484D-05 -0.18030588D-05
  0.16759712D-06  0.11263732D-04  0.11658524D-04 -0.22922255D-04  0.47880821D-06
  0.34851985D-06 -0.34870101D-06  0.43364427D-06  0.36222233D-04  0.76203035D-05
 -0.69353019D-06 -0.10883065D-03 -0.11760948D-04 -0.60740263D-06  0.16394978D-06
 -0.11099963D-04 -0.25299491D-06  0.36126519D-06  0.52004915D-04 -0.85567344D-04
 -0.12703745D-05 -0.15569168D-03  0.12829604D-03  0.18657892D-06 -0.32306149D-06
  0.12840599D-03 -0.39933563D-06 -0.46739490D-05 -0.84296595D-05 -0.12429528D-04
  0.75416007D-03  0.23208886D-03  0.51782393D-05 -0.88611357D-06  0.95807567D-04
  0.28763497D-04  0.27363202D-05  0.20088875D-03 -0.42018311D-05  0.75090540D-06
  0.43646204D-04  0.38221427D-04 -0.74110424D-04  0.54690330D-04  0.19420093D-04
  0.75929209D-06  0.95192260D-06  0.76179134D-04 -0.97605957D-05 -0.11844429D-04
  0.21605025D-04  0.54594569D-06 -0.12799308D-06 -0.34462001D-04 -0.48555290D-05
 -0.87571466D-05 -0.12912408D-04  0.75762561D-03  0.24404059D-03  0.50064477D-05
  0.83528085D-04 -0.48011481D-04  0.28579103D-04  0.17415059D-03 -0.10211174D-03
 -0.43663583D-05  0.39165280D-04 -0.22839311D-04  0.39394480D-04  0.22313389D-04
 -0.41651150D-04  0.19337762D-04 -0.11216485D-03  0.65568732D-04 -0.38373957D-04
 -0.11383263D-04 -0.10384257D-04  0.21767520D-04  0.17426807D-05 -0.30142220D-04
  0.17303187D-04 -0.53559008D-05 -0.96595877D-05 -0.14243056D-04  0.74464548D-03
  0.22772332D-03  0.49285749D-05 -0.81496271D-04 -0.46664057D-04  0.26962948D-04
 -0.16910156D-03 -0.10406782D-03 -0.27875906D-05 -0.36419815D-04 -0.22503302D-04
  0.38244097D-04  0.21008749D-04 -0.40082366D-04  0.19073617D-04  0.11267133D-03
 -0.64402954D-04 -0.39473131D-04 -0.11781121D-04 -0.99836638D-05  0.21764785D-04
 -0.21036481D-05  0.29499604D-04  0.17389323D-04 -0.15462853D+00 -0.28929349D+00
 -0.49983498D+00 -0.81029123D+00 -0.12305050D+01 -0.17102862D+01 -0.20333992D+01
 -0.18114227D+01 -0.89959080D+00 -0.14482651D+00 -0.15280052D-02 -0.72296306D-03
 -0.24116837D-01 -0.84042350D-01 -0.30265011D+00 -0.66715451D+00 -0.93913822D+00
  0.44799954D-01  0.12290255D+01  0.72671506D+00 -0.15533153D-04 -0.18814441D-03
 -0.39235534D-03 -0.11252068D-02 -0.58430422D-04  0.48524374D-02  0.12537766D-01
 -0.10215182D-01  0.46608494D-01 -0.38468870D-03 -0.13201576D-03  0.27701068D-03
  0.36488787D-03  0.40252844D-03  0.33433139D-03  0.17753924D-03  0.45806053D-04
  0.30271275D-02  0.39874351D-02  0.43987651D-02  0.36535188D-02  0.19401199D-02
  0.50056107D-03  0.59385697D+01  0.78224856D+01  0.86294261D+01  0.71674140D+01
  0.38060957D+01  0.98199259D+00 -0.96003112D-08  0.92809631D-07  0.13087127D-06
  0.18718053D-06 -0.94785587D-09 -0.17166220D-06 -0.94385106D-07  0.91245447D-06
  0.12866561D-05  0.18402585D-05 -0.93188101D-08 -0.16876906D-05 -0.21066248D-03
  0.20365493D-02  0.28717472D-02  0.41073581D-02 -0.20799083D-04 -0.37668348D-02
  0.24097926D-05  0.20805381D-04  0.41633972D-01 -0.21336411D-06 -0.70249444D-07
 -0.48362607D-03  0.22384026D-07 -0.34393764D-07 -0.98366940D-05 -0.75169411D-05
 -0.72798321D-05  0.14796773D-04 -0.14930648D-06 -0.42502164D-07  0.69241375D-06
 -0.11118268D-03 -0.11125578D-03  0.22243846D-03  0.29686804D-07  0.31149717D-06
 -0.98588375D-07 -0.14279586D-04 -0.14330674D-04  0.28610260D-04 -0.61498519D-08
  0.87218521D-07  0.28368793D-07 -0.81351213D-07 -0.72300857D-05  0.54536126D-05
  0.14281858D-06  0.21668430D-04 -0.78794562D-05  0.10123506D-06  0.21826869D-07
 -0.84813815D-05 -0.91048754D-07  0.45798570D-07  0.20572747D-05 -0.33662947D-04
 -0.17611564D-07 -0.61590846D-05  0.50363908D-04 -0.11978414D-06 -0.12739684D-07
  0.50624933D-04 -0.50483328D-08 -0.87909600D-03 -0.16386365D-02 -0.27778538D-02
 -0.42060464D-02 -0.52584844D-02 -0.45232395D-02 -0.17347597D-02 -0.68261112D-06
 -0.90364930D-05 -0.32822187D-04 -0.97366399D-04 -0.11219511D-03  0.13627767D-03
 -0.95888792D-04 -0.15886941D-03  0.12558527D-04  0.10261501D-05  0.10035524D-05
  0.66308948D-06  0.23798393D-05  0.23274309D-05  0.15378320D-05  0.39005123D-02
  0.38146159D-02  0.25204780D-02  0.57159790D-08  0.97178267D-06  0.87888595D-03
  0.11116533D-06 -0.11194233D-06  0.21571108D-04  0.47339054D-07 -0.13670401D-07
  0.93441099D-05 -0.35580140D-04 -0.35703660D-04  0.71283801D-04 -0.44270490D-06
  0.42768984D-06 -0.76166581D-06  0.21035387D-04  0.21101786D-04 -0.42137173D-04
  0.20273760D-06 -0.21545393D-06  0.32553072D-06  0.18143412D-04  0.18094006D-04
 -0.36237418D-04 -0.88559680D-07 -0.46453366D-07 -0.14651585D-06 -0.21953619D-06
 -0.29413088D-05  0.46625640D-04 -0.12558327D-06  0.93652919D-05 -0.70594089D-04
  0.78419185D-06 -0.54136537D-06 -0.69282831D-04  0.62358089D-06  0.88577341D-07
  0.92610138D-06 -0.25460336D-04  0.59119878D-07 -0.29389252D-05  0.38380300D-04
 -0.32485190D-06  0.16062104D-06  0.38000707D-04 -0.19804316D-06
MO    4     MO 0.0        OCC NO =    2.0000123  ORB. ENERGY =    0.000000
  0.26635369D-01  0.49653694D-01  0.83921508D-01  0.12614968D+00  0.15495229D+00
  0.13077426D+00  0.49174538D-01 -0.14915041D-05 -0.11148069D-04 -0.41662879D-04
 -0.11623295D-03 -0.15572010D-03  0.18387641D-03  0.26311369D-02 -0.36000007D-02
 -0.41399333D-04  0.37879079D-05  0.35514045D-05  0.25288115D-05  0.29234136D-05
  0.27408861D-05  0.19516742D-05  0.36691287D-02  0.34400414D-02  0.24495144D-02
  0.99900880D-05  0.62189964D-05  0.13032459D-02  0.66774359D-05 -0.78517744D-06
 -0.41605036D-03 -0.69966534D-08  0.68553954D-07  0.37277491D-05 -0.31904340D-03
 -0.31969714D-03  0.63874055D-03  0.17786606D-05  0.88805623D-06  0.10630950D-06
  0.12588050D-04  0.61692828D-05 -0.18757333D-04  0.27690961D-05 -0.33317032D-05
 -0.45921757D-06 -0.17541854D-04 -0.18171211D-04  0.35713065D-04  0.34969182D-06
  0.52601618D-06 -0.25987240D-06 -0.30271637D-06 -0.41847884D-04  0.22313107D-04
  0.10366410D-05  0.12537246D-03 -0.33930349D-04 -0.12849190D-06  0.17119451D-06
 -0.33008973D-04 -0.74036437D-06  0.53555396D-06  0.82120282D-04 -0.16359746D-03
 -0.20364317D-05 -0.24567940D-03  0.24472212D-03  0.42976986D-06 -0.68144477D-06
  0.24607027D-03 -0.19539945D-06 -0.90206976D-04 -0.16269200D-03 -0.23988925D-03
  0.10268147D-02  0.68624876D-03  0.43654749D-05 -0.13447847D-05 -0.57210053D-04
  0.34476560D-04  0.34435632D-05  0.30814504D-03 -0.44111067D-04  0.74140478D-06
  0.11132363D-03  0.75444733D-04 -0.14292380D-03  0.25311373D-04  0.11761242D-03
 -0.21509056D-06  0.16858894D-05  0.14295981D-03 -0.14971602D-04 -0.20635478D-04
  0.35607080D-04  0.68538190D-06 -0.62797771D-07 -0.62784138D-04 -0.90153618D-04
 -0.16259576D-03 -0.23974736D-03  0.10259601D-02  0.69258684D-03  0.42303368D-05
 -0.48915387D-04  0.28862472D-04  0.33760855D-04  0.26539038D-03 -0.15431260D-03
 -0.43408631D-04  0.97895055D-04 -0.55820294D-04  0.76647594D-04 -0.16396744D-04
 -0.10129067D-03  0.11768741D-03 -0.14582653D-03  0.12320472D-03 -0.71556913D-04
 -0.19225552D-04 -0.16633883D-04  0.35859436D-04  0.52606063D-05 -0.54894003D-04
  0.31261613D-04 -0.89835673D-04 -0.16202234D-03 -0.23890184D-03  0.10081266D-02
  0.66675239D-03  0.40780452D-05  0.51647271D-04  0.32514259D-04  0.30659855D-04
 -0.25890076D-03 -0.15718286D-03 -0.40325587D-04 -0.93763785D-04 -0.55279501D-04
  0.74935130D-04 -0.19247261D-04 -0.99088971D-04  0.11833623D-03  0.14172309D-03
 -0.12022244D-03 -0.73059658D-04 -0.19554473D-04 -0.16110951D-04  0.35665424D-04
 -0.55345892D-05  0.53665924D-04  0.31189541D-04  0.91277966D-01  0.17077133D+00
  0.29505499D+00  0.47831880D+00  0.72637300D+00  0.10095901D+01  0.12003253D+01
  0.10692915D+01  0.53103276D+00  0.85491782D-01  0.90198880D-03  0.42736222D-03
  0.14256088D-01  0.49679613D-01  0.17890433D+00  0.39437233D+00  0.55514896D+00
 -0.26482415D-01 -0.72650882D+00 -0.42958012D+00  0.62756069D-05  0.76012924D-04
  0.15851694D-03  0.45459899D-03  0.23606692D-04 -0.19604513D-02 -0.50654296D-02
  0.41270736D-02 -0.28533949D-01  0.14170218D-02 -0.18234535D-03  0.50487127D-02
  0.66503357D-02  0.73363612D-02  0.60934224D-02  0.32357764D-02  0.83484722D-03
  0.44492595D-02  0.58607156D-02  0.64652867D-02  0.53699268D-02  0.28515802D-02
  0.73572259D-03  0.99166496D+01  0.13062547D+02  0.14410035D+02  0.11968662D+02
  0.63556916D+01  0.16398017D+01 -0.17100423D-06  0.16531589D-05  0.23311266D-05
  0.33341276D-05 -0.16883553D-07 -0.30577095D-05 -0.13063344D-06  0.12628801D-05
  0.17807927D-05  0.25470046D-05 -0.12897673D-07 -0.23358435D-05 -0.33685795D-03
  0.32565259D-02  0.45920414D-02  0.65678340D-02 -0.33258587D-04 -0.60233232D-02
  0.36838786D-04  0.31958347D-04  0.72571346D-01 -0.35736504D-06 -0.11589999D-07
 -0.30559595D-03  0.13587128D-07 -0.40278756D-07 -0.39344455D-05  0.45404533D-03
  0.45409832D-03 -0.90814365D-03 -0.22920047D-06 -0.16119322D-05 -0.25961589D-06
 -0.30937749D-03 -0.30945088D-03  0.61882837D-03  0.44758388D-07  0.99485616D-06
  0.21520163D-06  0.44201299D-05  0.43737325D-05 -0.87938624D-05  0.25554258D-07
  0.70311485D-07  0.17358218D-07 -0.13829459D-06 -0.14537227D-04 -0.46977694D-04
  0.31215819D-06  0.43639441D-04  0.70938409D-04  0.10272559D-06 -0.27760530D-07
  0.69994674D-04  0.13791297D-06  0.92770374D-07  0.41906304D-05 -0.62454334D-04
 -0.35954411D-07 -0.12514995D-04  0.93455262D-04 -0.24235671D-06 -0.56896078D-07
  0.93907740D-04 -0.10366290D-06 -0.63503755D-02 -0.11837111D-01 -0.20066540D-01