 title line
GAUSSIAN            211 MOL ORBITALS    339 PRIMITIVES        6 NUCLEI
  C    1    (CENTRE  1)   0.00033070  0.00005480 -0.94053370  CHARGE =  6.0
  H    2    (CENTRE  2)   0.00003590 -1.98906904 -1.17300214  CHARGE =  1.0
  H    3    (CENTRE  3)  -1.72213010  0.99468570 -1.17398291  CHARGE =  1.0
  H    4    (CENTRE  4)   1.72295780  0.99424539 -1.17459707  CHARGE =  1.0
  Cl   5    (CENTRE  5)   0.00104880  0.02071518  3.10806659  CHARGE = 17.0
  F    6    (CENTRE  6)  -0.00035149 -0.00174044 -4.90092914  CHARGE =  9.0
CENTRE ASSIGNMENTS    1  1  1  1  1  1  1  1  1  1  1  1  1  1  1  1  1  1  1  1
CENTRE ASSIGNMENTS    1  1  1  1  1  1  1  1  1  1  1  1  1  1  1  1  1  1  1  1
CENTRE ASSIGNMENTS    1  1  1  1  1  1  1  1  1  1  1  1  1  1  1  1  1  1  1  1
CENTRE ASSIGNMENTS    1  1  1  1  1  1  1  1  1  1  1  1  2  2  2  2  2  2  2  2
CENTRE ASSIGNMENTS    2  2  2  2  2  2  2  2  2  2  2  2  2  2  2  2  2  2  2  3
CENTRE ASSIGNMENTS    3  3  3  3  3  3  3  3  3  3  3  3  3  3  3  3  3  3  3  3
CENTRE ASSIGNMENTS    3  3  3  3  3  3  4  4  4  4  4  4  4  4  4  4  4  4  4  4
CENTRE ASSIGNMENTS    4  4  4  4  4  4  4  4  4  4  4  4  4  5  5  5  5  5  5  5
CENTRE ASSIGNMENTS    5  5  5  5  5  5  5  5  5  5  5  5  5  5  5  5  5  5  5  5
CENTRE ASSIGNMENTS    5  5  5  5  5  5  5  5  5  5  5  5  5  5  5  5  5  5  5  5
CENTRE ASSIGNMENTS    5  5  5  5  5  5  5  5  5  5  5  5  5  5  5  5  5  5  5  5
CENTRE ASSIGNMENTS    5  5  5  5  5  5  5  5  5  5  5  5  5  5  5  5  5  5  5  5
CENTRE ASSIGNMENTS    5  5  5  5  5  5  5  5  5  5  5  5  5  5  5  5  5  5  5  5
CENTRE ASSIGNMENTS    5  5  5  5  5  5  5  6  6  6  6  6  6  6  6  6  6  6  6  6
CENTRE ASSIGNMENTS    6  6  6  6  6  6  6  6  6  6  6  6  6  6  6  6  6  6  6  6
CENTRE ASSIGNMENTS    6  6  6  6  6  6  6  6  6  6  6  6  6  6  6  6  6  6  6  6
CENTRE ASSIGNMENTS    6  6  6  6  6  6  6  6  6  6  6  6  6  6  6  6  6  6  6
TYPE ASSIGNMENTS      1  1  1  1  1  1  1  1  1  1  1  1  1  1  1  1  2  2  2  3
TYPE ASSIGNMENTS      3  3  4  4  4  2  3  4  2  3  4  2  3  4  5  6  7  8  9 10
TYPE ASSIGNMENTS      5  6  7  8  9 10  5  6  7  8  9 10 11 12 13 17 14 15 18 19
TYPE ASSIGNMENTS     16 20 11 12 13 17 14 15 18 19 16 20  1  1  1  1  1  1  2  3
TYPE ASSIGNMENTS      4  2  3  4  2  3  4  5  6  7  8  9 10  5  6  7  8  9 10  1
TYPE ASSIGNMENTS      1  1  1  1  1  2  3  4  2  3  4  2  3  4  5  6  7  8  9 10
TYPE ASSIGNMENTS      5  6  7  8  9 10  1  1  1  1  1  1  2  3  4  2  3  4  2  3
TYPE ASSIGNMENTS      4  5  6  7  8  9 10  5  6  7  8  9 10  1  1  1  1  1  1  1
TYPE ASSIGNMENTS      1  1  1  1  1  1  1  1  1  1  1  1  1  1  1  1  1  1  1  1
TYPE ASSIGNMENTS      1  1  1  1  2  2  2  2  2  2  3  3  3  3  3  3  4  4  4  4
TYPE ASSIGNMENTS      4  4  2  2  2  2  2  2  3  3  3  3  3  3  4  4  4  4  4  4
TYPE ASSIGNMENTS      2  3  4  2  3  4  2  3  4  5  6  7  8  9 10  5  6  7  8  9
TYPE ASSIGNMENTS     10  5  6  7  8  9 10 11 12 13 17 14 15 18 19 16 20 11 12 13
TYPE ASSIGNMENTS     17 14 15 18 19 16 20  1  1  1  1  1  1  1  1  1  1  1  1  1
TYPE ASSIGNMENTS      1  1  1  2  2  2  3  3  3  4  4  4  2  3  4  2  3  4  2  3
TYPE ASSIGNMENTS      4  5  6  7  8  9 10  5  6  7  8  9 10  5  6  7  8  9 10 11
TYPE ASSIGNMENTS     12 13 17 14 15 18 19 16 20 11 12 13 17 14 15 18 19 16 20
EXPONENTS  0.8236000D+04 0.1235000D+04 0.2808000D+03 0.7927000D+02 0.2559000D+02
EXPONENTS  0.8997000D+01 0.3319000D+01 0.2808000D+03 0.7927000D+02 0.2559000D+02
EXPONENTS  0.8997000D+01 0.3319000D+01 0.3643000D+00 0.9059000D+00 0.1285000D+00
EXPONENTS  0.4402000D-01 0.1871000D+02 0.4133000D+01 0.1200000D+01 0.1871000D+02
EXPONENTS  0.4133000D+01 0.1200000D+01 0.1871000D+02 0.4133000D+01 0.1200000D+01
EXPONENTS  0.3827000D+00 0.3827000D+00 0.3827000D+00 0.1209000D+00 0.1209000D+00
EXPONENTS  0.1209000D+00 0.3569000D-01 0.3569000D-01 0.3569000D-01 0.1097000D+01
EXPONENTS  0.1097000D+01 0.1097000D+01 0.1097000D+01 0.1097000D+01 0.1097000D+01
EXPONENTS  0.3180000D+00 0.3180000D+00 0.3180000D+00 0.3180000D+00 0.3180000D+00
EXPONENTS  0.3180000D+00 0.1000000D+00 0.1000000D+00 0.1000000D+00 0.1000000D+00
EXPONENTS  0.1000000D+00 0.1000000D+00 0.7610000D+00 0.7610000D+00 0.7610000D+00
EXPONENTS  0.7610000D+00 0.7610000D+00 0.7610000D+00 0.7610000D+00 0.7610000D+00
EXPONENTS  0.7610000D+00 0.7610000D+00 0.2680000D+00 0.2680000D+00 0.2680000D+00
EXPONENTS  0.2680000D+00 0.2680000D+00 0.2680000D+00 0.2680000D+00 0.2680000D+00
EXPONENTS  0.2680000D+00 0.2680000D+00 0.3387000D+02 0.5095000D+01 0.1159000D+01
EXPONENTS  0.3258000D+00 0.1027000D+00 0.2526000D-01 0.1407000D+01 0.1407000D+01
EXPONENTS  0.1407000D+01 0.3880000D+00 0.3880000D+00 0.3880000D+00 0.1020000D+00
EXPONENTS  0.1020000D+00 0.1020000D+00 0.1057000D+01 0.1057000D+01 0.1057000D+01
EXPONENTS  0.1057000D+01 0.1057000D+01 0.1057000D+01 0.2470000D+00 0.2470000D+00
EXPONENTS  0.2470000D+00 0.2470000D+00 0.2470000D+00 0.2470000D+00 0.3387000D+02
EXPONENTS  0.5095000D+01 0.1159000D+01 0.3258000D+00 0.1027000D+00 0.2526000D-01
EXPONENTS  0.1407000D+01 0.1407000D+01 0.1407000D+01 0.3880000D+00 0.3880000D+00
EXPONENTS  0.3880000D+00 0.1020000D+00 0.1020000D+00 0.1020000D+00 0.1057000D+01
EXPONENTS  0.1057000D+01 0.1057000D+01 0.1057000D+01 0.1057000D+01 0.1057000D+01
EXPONENTS  0.2470000D+00 0.2470000D+00 0.2470000D+00 0.2470000D+00 0.2470000D+00
EXPONENTS  0.2470000D+00 0.3387000D+02 0.5095000D+01 0.1159000D+01 0.3258000D+00
EXPONENTS  0.1027000D+00 0.2526000D-01 0.1407000D+01 0.1407000D+01 0.1407000D+01
EXPONENTS  0.3880000D+00 0.3880000D+00 0.3880000D+00 0.1020000D+00 0.1020000D+00
EXPONENTS  0.1020000D+00 0.1057000D+01 0.1057000D+01 0.1057000D+01 0.1057000D+01
EXPONENTS  0.1057000D+01 0.1057000D+01 0.2470000D+00 0.2470000D+00 0.2470000D+00
EXPONENTS  0.2470000D+00 0.2470000D+00 0.2470000D+00 0.4561000D+06 0.6833000D+05
EXPONENTS  0.1555000D+05 0.4405000D+04 0.1439000D+04 0.5204000D+03 0.2031000D+03
EXPONENTS  0.8396000D+02 0.3620000D+02 0.1583000D+02 0.6334000D+01 0.4405000D+04
EXPONENTS  0.1439000D+04 0.5204000D+03 0.2031000D+03 0.8396000D+02 0.3620000D+02
EXPONENTS  0.1583000D+02 0.6334000D+01 0.2694000D+01 0.1439000D+04 0.2031000D+03
EXPONENTS  0.8396000D+02 0.3620000D+02 0.1583000D+02 0.6334000D+01 0.2694000D+01
EXPONENTS  0.4313000D+00 0.9768000D+00 0.1625000D+00 0.5910000D-01 0.6633000D+03
EXPONENTS  0.1568000D+03 0.4998000D+02 0.1842000D+02 0.7240000D+01 0.2922000D+01
EXPONENTS  0.6633000D+03 0.1568000D+03 0.4998000D+02 0.1842000D+02 0.7240000D+01
EXPONENTS  0.2922000D+01 0.6633000D+03 0.1568000D+03 0.4998000D+02 0.1842000D+02
EXPONENTS  0.7240000D+01 0.2922000D+01 0.1568000D+03 0.4998000D+02 0.1842000D+02
EXPONENTS  0.7240000D+01 0.2922000D+01 0.3818000D+00 0.1568000D+03 0.4998000D+02
EXPONENTS  0.1842000D+02 0.7240000D+01 0.2922000D+01 0.3818000D+00 0.1568000D+03
EXPONENTS  0.4998000D+02 0.1842000D+02 0.7240000D+01 0.2922000D+01 0.3818000D+00
EXPONENTS  0.1022000D+01 0.1022000D+01 0.1022000D+01 0.1301000D+00 0.1301000D+00
EXPONENTS  0.1301000D+00 0.4190000D-01 0.4190000D-01 0.4190000D-01 0.1046000D+01
EXPONENTS  0.1046000D+01 0.1046000D+01 0.1046000D+01 0.1046000D+01 0.1046000D+01
EXPONENTS  0.3440000D+00 0.3440000D+00 0.3440000D+00 0.3440000D+00 0.3440000D+00
EXPONENTS  0.3440000D+00 0.1350000D+00 0.1350000D+00 0.1350000D+00 0.1350000D+00
EXPONENTS  0.1350000D+00 0.1350000D+00 0.7060000D+00 0.7060000D+00 0.7060000D+00
EXPONENTS  0.7060000D+00 0.7060000D+00 0.7060000D+00 0.7060000D+00 0.7060000D+00
EXPONENTS  0.7060000D+00 0.7060000D+00 0.3120000D+00 0.3120000D+00 0.3120000D+00
EXPONENTS  0.3120000D+00 0.3120000D+00 0.3120000D+00 0.3120000D+00 0.3120000D+00
EXPONENTS  0.3120000D+00 0.3120000D+00 0.1950000D+05 0.2923000D+04 0.6645000D+03
EXPONENTS  0.1875000D+03 0.6062000D+02 0.2142000D+02 0.7950000D+01 0.6645000D+03
EXPONENTS  0.1875000D+03 0.6062000D+02 0.2142000D+02 0.7950000D+01 0.8815000D+00
EXPONENTS  0.2257000D+01 0.3041000D+00 0.9158000D-01 0.4388000D+02 0.9926000D+01
EXPONENTS  0.2930000D+01 0.4388000D+02 0.9926000D+01 0.2930000D+01 0.4388000D+02
EXPONENTS  0.9926000D+01 0.2930000D+01 0.9132000D+00 0.9132000D+00 0.9132000D+00
EXPONENTS  0.2672000D+00 0.2672000D+00 0.2672000D+00 0.7361000D-01 0.7361000D-01
EXPONENTS  0.7361000D-01 0.3107000D+01 0.3107000D+01 0.3107000D+01 0.3107000D+01
EXPONENTS  0.3107000D+01 0.3107000D+01 0.8550000D+00 0.8550000D+00 0.8550000D+00
EXPONENTS  0.8550000D+00 0.8550000D+00 0.8550000D+00 0.2920000D+00 0.2920000D+00
EXPONENTS  0.2920000D+00 0.2920000D+00 0.2920000D+00 0.2920000D+00 0.1917000D+01
EXPONENTS  0.1917000D+01 0.1917000D+01 0.1917000D+01 0.1917000D+01 0.1917000D+01
EXPONENTS  0.1917000D+01 0.1917000D+01 0.1917000D+01 0.1917000D+01 0.7240000D+00
EXPONENTS  0.7240000D+00 0.7240000D+00 0.7240000D+00 0.7240000D+00 0.7240000D+00
EXPONENTS  0.7240000D+00 0.7240000D+00 0.7240000D+00 0.7240000D+00
MO    1     MO 0.0        OCC NO =    2.0000300  ORB. ENERGY =    0.000000
  0.14718426D-07  0.27438110D-07  0.46374145D-07  0.69708989D-07  0.85625007D-07
  0.72264485D-07  0.27173334D-07 -0.59644077D-11 -0.44580252D-10 -0.16660658D-09
 -0.46480642D-09 -0.62271246D-09  0.73530730D-09  0.24759180D-08 -0.35845359D-08
  0.13909600D-08  0.11238350D-03  0.10536668D-03  0.75027353D-04 -0.30778727D-07
 -0.28857013D-07 -0.20547912D-07 -0.19906242D-07 -0.18663367D-07 -0.13289429D-07
  0.36187820D-03 -0.99489939D-07 -0.61110744D-07  0.46291266D-03 -0.12805835D-06
 -0.85723013D-07  0.92874622D-05 -0.26366481D-08 -0.16671572D-08 -0.83710895D-07
 -0.53290611D-08  0.89039956D-07  0.12464186D-03 -0.51023546D-03  0.11826786D-06
  0.38037637D-07 -0.20616354D-07 -0.17421282D-07  0.38841535D-03  0.99593970D-04
 -0.95312282D-07 -0.74219494D-08 -0.44373722D-08  0.11859322D-07  0.81931238D-04
 -0.65729935D-04  0.39514895D-08  0.92602001D-04 -0.25906702D-07  0.65945241D-07
  0.92633949D-04 -0.17308002D-07 -0.17809036D-06 -0.37043995D-03  0.95028108D-07
 -0.19745360D-07  0.46891363D-04 -0.26667957D-04  0.77601133D-08 -0.19382264D-07
 -0.26675994D-04  0.25391619D-07  0.58375134D-07  0.10667986D-03 -0.48671959D-07
 -0.22834252D-09  0.10409493D-03  0.62027834D-08  0.11186975D-07  0.16495189D-07
 -0.53863944D-07 -0.16567963D-06  0.15941030D-08  0.48948667D-05 -0.11635089D-07
 -0.43293050D-08  0.83867390D-04 -0.54101987D-07 -0.54388586D-07  0.75590350D-04
 -0.34707356D-07 -0.16218121D-07  0.13130734D-07 -0.11049798D-07 -0.20809352D-08
  0.31387744D-04 -0.44902598D-04 -0.42949733D-07  0.21148049D-07 -0.17471796D-08
 -0.19400869D-07  0.29044660D-04  0.62292914D-04 -0.18117161D-07 -0.34426778D-04
 -0.62090111D-04 -0.91551832D-04  0.31700034D-03  0.97334489D-03 -0.10638211D-04
  0.55123365D-04 -0.28990249D-04  0.20940911D-04  0.23606224D-03 -0.87892747D-04
  0.23793015D-03  0.14816457D-03 -0.41893322D-04  0.19952979D-04  0.98247052D-05
 -0.69332820D-04  0.59508115D-04 -0.10561077D-03  0.21286346D-03 -0.14877831D-03
 -0.10950028D-04 -0.37088500D-04  0.48038528D-04 -0.16223096D-04  0.38949893D-04
  0.13600003D-04  0.34421003D-04  0.62079696D-04  0.91536475D-04 -0.31694352D-03
 -0.97317791D-03  0.10636439D-04  0.55114584D-04  0.28969688D-04 -0.20955889D-04
  0.23597320D-03  0.87792390D-04 -0.23797546D-03  0.14815523D-03  0.41825956D-04
 -0.20002409D-04 -0.97785251D-05  0.69351858D-04 -0.59573333D-04 -0.10549384D-03
  0.21282354D-03  0.14874981D-03  0.10953616D-04  0.37090550D-04 -0.48044166D-04
 -0.16206627D-04  0.38909395D-04 -0.13620098D-04 -0.25612478D-07 -0.47918214D-07
 -0.82792045D-07 -0.13421563D-06 -0.20381932D-06 -0.28328967D-06 -0.33680972D-06
 -0.30004180D-06 -0.14900710D-06 -0.23988883D-07 -0.25309688D-09 -0.11909255D-09
 -0.39727280D-08 -0.13844162D-07 -0.49855068D-07 -0.10989929D-06 -0.15470274D-06
  0.73798247D-08  0.20245540D-06  0.11971061D-06 -0.36167061D-11 -0.43807142D-10
 -0.91355177D-10 -0.26199074D-09 -0.13604814D-10  0.11298311D-08  0.29192667D-08
 -0.23784811D-08  0.68487988D-08  0.17851231D-08 -0.31701043D-09  0.11610745D+02
  0.15294068D+02  0.16871751D+02  0.14013310D+02  0.74414564D+01  0.19199346D+01
 -0.31998752D-02 -0.42149841D-02 -0.46497873D-02 -0.38620124D-02 -0.20508358D-02
 -0.52912635D-03 -0.20380160D-02 -0.26845439D-02 -0.29614721D-02 -0.24597345D-02
 -0.13061873D-02 -0.33700314D-03 -0.45955121D-03  0.44426454D-02  0.62645938D-02
  0.89600263D-02 -0.45372312D-04 -0.82171892D-02  0.12667643D-06 -0.12246262D-05
 -0.17268508D-05 -0.24698534D-05  0.12506990D-07  0.22650885D-05  0.80544224D-07
 -0.77864974D-06 -0.10979774D-05 -0.15703981D-05  0.79522752D-08  0.14402032D-05
  0.76651998D-01 -0.21125575D-04 -0.13452111D-04 -0.64375631D-03  0.17723501D-06
  0.11214637D-06 -0.57968675D-04  0.15974230D-07  0.10234039D-07 -0.17260581D-06
  0.72058197D-09  0.17188523D-06  0.18367288D-04 -0.98153755D-03  0.26793374D-06
  0.62349175D-07 -0.46124176D-09 -0.61887933D-07 -0.70023620D-05  0.35642744D-03
 -0.97472274D-07 -0.10726237D-07 -0.14395208D-09  0.10870189D-07  0.22648194D-05
 -0.61092594D-04  0.16521886D-07  0.25587577D-05 -0.74016342D-09  0.17477924D-08
  0.25358492D-05  0.11981334D-07 -0.99619364D-09 -0.10212122D-04 -0.97608442D-08
 -0.42471835D-08  0.70719794D-04  0.14622855D-04 -0.40638915D-08  0.10189740D-07
  0.14716856D-04 -0.67770785D-08 -0.29182388D-07 -0.58585420D-04  0.18968753D-07
 -0.13868329D-08 -0.15134199D-04  0.28641532D-08  0.53387865D-08  0.90504324D-08
  0.13703579D-07  0.17132492D-07  0.14737015D-07  0.56519624D-08 -0.93877174D-11
 -0.12427580D-09 -0.45139232D-09 -0.13390468D-08 -0.15429810D-08  0.18741802D-08
  0.45691978D-10 -0.31241105D-08 -0.26209220D-08 -0.29087877D-03 -0.28447309D-03
 -0.18796340D-03  0.80390548D-07  0.78620200D-07  0.51947690D-07  0.52411151D-07
  0.51256961D-07  0.33867642D-07 -0.92851792D-05  0.11056808D-08  0.37100145D-08
 -0.66172005D-04  0.19455227D-07  0.82629947D-08 -0.19577421D-04  0.54323785D-08
  0.31186940D-08 -0.16194710D-07 -0.81731496D-08  0.24367859D-07  0.14037707D-03
 -0.13265956D-03  0.12357643D-07  0.14070725D-07  0.40784854D-08 -0.18149211D-07
 -0.70508920D-04  0.10178765D-03 -0.16172950D-07 -0.10345409D-07 -0.16924731D-08
  0.12037882D-07  0.35886717D-04 -0.73556469D-04  0.15077677D-07 -0.70617211D-04
  0.20897313D-07 -0.47847665D-07 -0.70782999D-04 -0.45792117D-07  0.11091391D-06
  0.28263463D-03 -0.16899821D-07  0.32629083D-07 -0.37891746D-03  0.25073969D-04
 -0.74364045D-08  0.16797865D-07  0.25127222D-04  0.13777305D-07 -0.39849561D-07
 -0.10034913D-03  0.85319086D-08 -0.10544035D-07  0.12036451D-03
MO    2     MO 0.0        OCC NO =    2.0000300  ORB. ENERGY =    0.000000
 -0.44796460D-04 -0.83509627D-04 -0.14114265D-03 -0.21216372D-03 -0.26060513D-03
 -0.21994154D-03 -0.82703762D-04  0.20358584D-07  0.15216781D-06  0.56868583D-06
  0.15865449D-05  0.21255328D-05 -0.25098579D-05 -0.78363044D-05  0.28723798D-04
  0.28469389D-05  0.29040908D-07  0.27227697D-07  0.19387743D-07  0.10974675D-03
  0.10289455D-03  0.73267050D-04 -0.78491731D-05 -0.73590988D-05 -0.52401167D-05
  0.10043105D-06  0.36426650D-03 -0.15185426D-05  0.12767714D-06  0.46430765D-03
  0.90405880D-06  0.25025821D-08  0.93866302D-05 -0.43084221D-07  0.65742525D-04
 -0.67037107D-04  0.12945815D-05 -0.10553675D-06 -0.16341771D-06 -0.50919784D-03
  0.19536856D-03 -0.19262146D-03 -0.27470988D-05 -0.24408305D-07 -0.42823657D-07
  0.96051145D-04  0.40824102D-04 -0.41641965D-04  0.81786301D-06 -0.20595671D-07
 -0.32183404D-07 -0.66582146D-04  0.29775702D-07  0.92489310D-04  0.14416731D-05
  0.19645120D-07  0.93993156D-04  0.24224070D-04 -0.10897223D-06 -0.37146109D-03
 -0.28549089D-04 -0.16978845D-06  0.19075303D-08 -0.28148649D-04 -0.43639668D-06
 -0.16871315D-07 -0.23299447D-04  0.49405696D-04  0.11148724D-07  0.10774539D-03
 -0.48096506D-04  0.36338307D-07 -0.40590191D-04 -0.73206081D-04 -0.10794232D-03
  0.35572309D-03  0.11231917D-02 -0.12078421D-04  0.13730236D-07  0.70324821D-04
  0.23410101D-04  0.95762441D-07  0.28808188D-03  0.26447264D-03  0.37021853D-07
  0.17218667D-03  0.20633788D-04 -0.10987862D-03  0.44416977D-04  0.65461643D-04
  0.96681979D-07  0.92772222D-07  0.29682340D-03 -0.43206465D-04 -0.11588416D-04
  0.54794881D-04  0.17933707D-07  0.47548380D-07  0.31283757D-04  0.20051587D-04
  0.36163863D-04  0.53323595D-04 -0.19759717D-03 -0.56623739D-03  0.58493830D-05
 -0.30405441D-04  0.21712440D-04 -0.12762052D-04 -0.91379414D-04  0.13580285D-03
 -0.13599892D-03 -0.42510511D-04  0.99958229D-04 -0.11609055D-04  0.91274199D-05
  0.25622783D-04 -0.34750203D-04  0.79829091D-04 -0.14930219D-03  0.37339134D-04
  0.21137017D-04  0.73892423D-05 -0.28526259D-04  0.26284376D-04  0.12558961D-04
  0.52929354D-04  0.20061687D-04  0.36182079D-04  0.53350455D-04 -0.19769113D-03
 -0.56652784D-03  0.58527424D-05  0.30422233D-04  0.21713217D-04 -0.12778601D-04
  0.91435370D-04  0.13580490D-03 -0.13610268D-03  0.42576028D-04  0.99960189D-04
 -0.11630546D-04  0.91572440D-05  0.25663247D-04 -0.34820491D-04 -0.79837116D-04
  0.14934443D-03  0.37375763D-04  0.21129077D-04  0.74068778D-05 -0.28535954D-04
 -0.26277610D-04 -0.12569360D-04  0.52938216D-04 -0.41550728D-04 -0.77736979D-04
 -0.13431226D-03 -0.21773595D-03 -0.33065293D-03 -0.45957647D-03 -0.54640121D-03
 -0.48675318D-03 -0.24173192D-03 -0.38916794D-04 -0.41059517D-06 -0.19770852D-06
 -0.65952253D-05 -0.22983040D-04 -0.82765647D-04 -0.18244657D-03 -0.25682589D-03
  0.12251432D-04  0.33610127D-03  0.19873458D-03 -0.64860462D-09 -0.78561858D-08
 -0.16383247D-07 -0.46984301D-07 -0.24398293D-08  0.20261909D-06  0.52352882D-06
 -0.42654664D-06  0.12620929D-04 -0.62638726D-05 -0.26763767D-06  0.31849075D-02
  0.41952683D-02  0.46280376D-02  0.38439476D-02  0.20412428D-02  0.52665132D-03
  0.11610423D+02  0.15293643D+02  0.16871283D+02  0.14012921D+02  0.74412500D+01
  0.19198814D+01 -0.84776494D-01 -0.11167047D+00 -0.12319001D+00 -0.10231895D+00
 -0.54334203D-01 -0.14018508D-01 -0.12598946D-06  0.12179851D-05  0.17174861D-05
  0.24564594D-05 -0.12439165D-07 -0.22528050D-05 -0.45948002D-03  0.44419572D-02
  0.62636233D-02  0.89586383D-02 -0.45365283D-04 -0.82159163D-02  0.35018483D-05
 -0.33853617D-04 -0.47737133D-04 -0.68276729D-04  0.34574374D-06  0.62616200D-04
  0.21025283D-04  0.76651748D-01 -0.56422530D-03 -0.17638413D-06 -0.64331137D-03
  0.61884933D-05 -0.15903475D-07 -0.57949917D-04  0.39420497D-06  0.11426022D-04
 -0.19796774D-04  0.83707516D-05 -0.17835989D-06 -0.27056695D-06 -0.98025723D-03
 -0.35644908D-05  0.68276376D-05 -0.32631468D-05  0.64604015D-07  0.97769969D-07
  0.35614723D-03  0.12618381D-05 -0.15159976D-05  0.25415953D-06 -0.11110007D-07
 -0.17098825D-07 -0.61051224D-04  0.67495099D-08  0.22549258D-05 -0.96224874D-07
 -0.54687259D-08  0.18819989D-05  0.34736607D-04 -0.14779804D-07 -0.86467762D-05
 -0.34447932D-04 -0.10809961D-07  0.26971525D-08  0.14660645D-04  0.48551508D-06
  0.50760340D-08  0.14819571D-04 -0.74405189D-05 -0.13167491D-07 -0.58801505D-04
  0.59839737D-05 -0.24921848D-07  0.79274854D-05  0.14776846D-04  0.25050047D-04
  0.37929158D-04  0.47419802D-04  0.40789533D-04  0.15643664D-04 -0.74180069D-08
 -0.98200521D-07 -0.35668216D-06 -0.10580909D-05 -0.12192361D-05  0.14809438D-05
  0.37103340D-06 -0.25700802D-05 -0.46050990D-05 -0.83048843D-07 -0.81219955D-07
 -0.53665458D-07 -0.29130192D-03 -0.28488692D-03 -0.18823683D-03 -0.17537128D-04
 -0.17150928D-04 -0.11332343D-04 -0.38656566D-08 -0.78790270D-05 -0.12990460D-05
 -0.18026939D-07 -0.67383183D-04 -0.39487880D-05 -0.54531075D-08 -0.19534806D-04
 -0.62951076D-06  0.70929307D-04 -0.72094808D-04  0.11655007D-05 -0.37964678D-07
 -0.60300232D-07 -0.13179610D-03 -0.35625056D-04  0.36024745D-04 -0.39968879D-06
  0.25082431D-07  0.39880009D-07  0.10177004D-03  0.18196166D-04 -0.17874416D-04
 -0.32175041D-06 -0.16469639D-07 -0.25942488D-07 -0.74585777D-04 -0.50372767D-07
 -0.72141705D-04 -0.51352839D-06  0.11697506D-07 -0.72658404D-04 -0.18646056D-03
  0.13942080D-06  0.28908352D-03  0.18800115D-03  0.16119768D-06  0.16709136D-07
  0.25633233D-04  0.83416499D-07 -0.30322431D-08  0.25808801D-04  0.59268917D-04
 -0.47095165D-07 -0.10270850D-03 -0.59519166D-04 -0.55764918D-07
MO    3     MO 0.0        OCC NO =    2.0000210  ORB. ENERGY =    0.000000
 -0.14453340D-01 -0.26943938D-01 -0.45538926D-01 -0.68453500D-01 -0.84082864D-01
 -0.70962971D-01 -0.26683930D-01 -0.38139560D-05 -0.28506958D-04 -0.10653701D-03
 -0.29722168D-03 -0.39819510D-03  0.47019417D-03 -0.87190058D-03 -0.19343712D-02
 -0.82062825D-04  0.20838703D-06  0.19537609D-06  0.13911942D-06  0.37442433D-05
  0.35104661D-05  0.24996610D-05  0.11672294D-02  0.10943517D-02  0.77924363D-03
  0.10487260D-06  0.31875475D-05  0.60719674D-03 -0.66726016D-07 -0.32777213D-05
 -0.37919462D-03  0.82223303D-09 -0.10434730D-07  0.46695313D-05 -0.10495446D-03
 -0.10616921D-03  0.21112368D-03 -0.12196483D-08  0.11299422D-06  0.25209175D-05
 -0.24043802D-04 -0.24114758D-04  0.48158561D-04 -0.11975636D-08  0.25276182D-07
 -0.29539377D-05  0.11229474D-04  0.11615010D-04 -0.22844484D-04  0.16361719D-09
 -0.12030705D-07 -0.74291495D-06 -0.15976193D-07  0.36370026D-04  0.77261912D-05
  0.39631526D-07 -0.10871514D-03 -0.12165434D-04  0.82970526D-08 -0.39493692D-06
 -0.11013140D-04  0.38942443D-07  0.29279387D-08  0.52213256D-04 -0.85667982D-04
  0.82019416D-07 -0.15505793D-03  0.12866172D-03 -0.90803232D-07 -0.15818383D-05
  0.12834222D-03  0.54299345D-07 -0.48333924D-05 -0.87172223D-05 -0.12853539D-04
  0.75255424D-03  0.23279020D-03  0.49670747D-05  0.17050420D-07  0.95439024D-04
  0.26784558D-04  0.25011832D-07  0.20044396D-03 -0.41537643D-05  0.12556735D-07
  0.43892981D-04  0.38108283D-04 -0.73249172D-04  0.55197963D-04  0.18051208D-04
  0.46311284D-07  0.42337853D-07  0.75547725D-04 -0.98859560D-05 -0.12022494D-04
  0.21908450D-04 -0.65835151D-08  0.67796554D-08 -0.34468744D-04 -0.48283274D-05
 -0.87080874D-05 -0.12840070D-04  0.75278452D-03  0.23754443D-03  0.51130192D-05
  0.83105302D-04 -0.48153612D-04  0.29303656D-04  0.17205222D-03 -0.99549744D-04
 -0.42249195D-05  0.38085889D-04 -0.22207305D-04  0.39069180D-04  0.21655039D-04
 -0.42176014D-04  0.20520975D-04 -0.11091748D-03  0.66290167D-04 -0.37687833D-04
 -0.11494463D-04 -0.10074272D-04  0.21568736D-04  0.20673176D-05 -0.29867168D-04
  0.17542769D-04 -0.48281496D-05 -0.87077666D-05 -0.12839597D-04  0.75278817D-03
  0.23754267D-03  0.51129962D-05 -0.83107278D-04 -0.48132702D-04  0.29333271D-04
 -0.17207977D-03 -0.99506655D-04 -0.41624032D-05 -0.38077419D-04 -0.22197706D-04
  0.39082682D-04  0.21659997D-04 -0.42203707D-04  0.20543711D-04  0.11087155D-03
 -0.66301514D-04 -0.37711235D-04 -0.11484371D-04 -0.10073797D-04  0.21558168D-04
 -0.20601086D-05  0.29894810D-04  0.17535863D-04 -0.15460228D+00 -0.28924437D+00
 -0.49975011D+00 -0.81015365D+00 -0.12302961D+01 -0.17099958D+01 -0.20330540D+01
 -0.18111151D+01 -0.89943806D+00 -0.14480192D+00 -0.15277458D-02 -0.72284057D-03
 -0.24112751D-01 -0.84028111D-01 -0.30259883D+00 -0.66704147D+00 -0.93897910D+00
  0.44792363D-01  0.12288172D+01  0.72659193D+00 -0.15531618D-04 -0.18812582D-03
 -0.39231657D-03 -0.11250956D-02 -0.58424650D-04  0.48519580D-02  0.12536528D-01
 -0.10214173D-01  0.46599965D-01 -0.38435712D-03 -0.13197230D-03  0.10527842D-02
  0.13867631D-02  0.15298168D-02  0.12706326D-02  0.67474118D-03  0.17408675D-03
  0.41012069D-01  0.54022489D-01  0.59595262D-01  0.49498531D-01  0.26285094D-01
  0.67816915D-02  0.59412875D+01  0.78260655D+01  0.86333753D+01  0.71706941D+01
  0.38078376D+01  0.98244199D+00 -0.37355354D-07  0.36112753D-06  0.50922751D-06
  0.72833005D-06 -0.36881609D-08 -0.66794735D-06 -0.13913469D-05  0.13450646D-04
  0.18966815D-04  0.27127563D-04 -0.13737016D-06 -0.24878534D-04 -0.21079191D-03
  0.20378006D-02  0.28735115D-02  0.41098816D-02 -0.20811862D-04 -0.37691490D-02
  0.73814694D-05  0.28644989D-03  0.41653226D-01 -0.85890436D-07 -0.31489722D-05
 -0.48392585D-03 -0.17311885D-08 -0.10382829D-06 -0.98416583D-05 -0.74834831D-05
 -0.67540615D-05  0.14237545D-04  0.65698146D-09  0.74227647D-08  0.18397097D-05
 -0.11128272D-03 -0.11154858D-03  0.22283129D-03  0.49296097D-09  0.11882060D-06
  0.34947776D-05 -0.14370922D-04 -0.14275045D-04  0.28645966D-04  0.17681958D-09
  0.15332388D-07  0.71656959D-06  0.12134433D-08 -0.74657405D-05  0.54413583D-05
 -0.97058941D-08  0.21369740D-04 -0.84154750D-05  0.60655640D-08  0.10274812D-05
 -0.79085998D-05 -0.68559654D-08  0.82479001D-08  0.24138454D-05 -0.33736937D-04
  0.11365915D-07 -0.57906431D-05  0.50645584D-04 -0.36109615D-07 -0.14508930D-05
  0.50565227D-04  0.14490313D-08 -0.87938044D-03 -0.16391666D-02 -0.27787526D-02
 -0.42074073D-02 -0.52601858D-02 -0.45247031D-02 -0.17353210D-02 -0.68419484D-06
 -0.90574586D-05 -0.32898338D-04 -0.97592299D-04 -0.11245541D-03  0.13659385D-03
 -0.95959592D-04 -0.15941070D-03  0.12408618D-04  0.66797247D-06  0.65326249D-06
  0.43163815D-06 -0.59457520D-06 -0.58148156D-06 -0.38420945D-06  0.39019982D-02
  0.38160690D-02  0.25214382D-02  0.14971399D-06 -0.11380717D-05  0.87921999D-03
  0.41368850D-08  0.56334899D-06  0.21387261D-04  0.15469941D-08 -0.12175526D-06
  0.93354635D-05 -0.34951475D-04 -0.36338523D-04  0.71289998D-04  0.28580898D-09
  0.36420930D-07  0.14341436D-06  0.20750540D-04  0.21442396D-04 -0.42192935D-04
 -0.13593460D-09 -0.21801367D-07 -0.38696687D-06  0.18260550D-04  0.17973619D-04
 -0.36234168D-04  0.53777818D-10 -0.18097198D-07  0.68034469D-06 -0.99862757D-08
 -0.18540621D-05  0.46415456D-04 -0.14215681D-07  0.10023044D-04 -0.70551780D-04
  0.44174508D-07 -0.44608575D-05 -0.68694587D-04 -0.21853231D-08  0.58606724D-08
  0.54935034D-06 -0.25392366D-04  0.71987501D-08 -0.31938818D-05  0.38365080D-04
 -0.24780767D-07  0.15458308D-05  0.37812018D-04  0.75534849D-09
MO    4     MO 0.0        OCC NO =    2.0000123  ORB. ENERGY =    0.000000
  0.26826263D-01  0.50009558D-01  0.84522967D-01  0.12705378D+00  0.15606282D+00
  0.13171151D+00  0.49526968D-01 -0.14567878D-05 -0.10888586D-04 -0.40693133D-04
 -0.11352750D-03 -0.15209556D-03  0.17959649D-03  0.26462147D-02 -0.36106397D-02
 -0.42237121D-04  0.64782679D-06  0.60737879D-06  0.43248988D-06  0.59821401D-05
  0.56086366D-05  0.39936834D-05  0.36695618D-02  0.34404474D-02  0.24498035D-02
  0.22830897D-06  0.10778047D-04  0.13052632D-02 -0.74185785D-07 -0.46596858D-05
 -0.41701477D-03  0.68380177D-09 -0.44085672D-07  0.37049165D-05 -0.31733743D-03
 -0.32103610D-03  0.63837353D-03 -0.11240416D-08  0.33878083D-06  0.95750534D-05
  0.10621116D-04  0.85827141D-05 -0.19203830D-04 -0.30269903D-08 -0.95886096D-08
 -0.86704330D-05 -0.18171916D-04 -0.17561573D-04  0.35733488D-04  0.98806585D-10
  0.18704543D-07 -0.59783607D-06  0.98771947D-08 -0.41828132D-04  0.22589802D-04
 -0.53747608D-07  0.12696041D-03 -0.36181540D-04  0.24116023D-07 -0.14760191D-05
 -0.31587867D-04 -0.42929172D-07  0.12113088D-07  0.82841953D-04 -0.16373035D-03
  0.13748711D-06 -0.24500254D-03  0.24507078D-03 -0.17382638D-06 -0.35233178D-05
  0.24612027D-03  0.86388186D-07 -0.90125629D-04 -0.16254528D-03 -0.23967292D-03
  0.10288053D-02  0.67782208D-03  0.40890017D-05 -0.17864322D-08 -0.57843721D-04
  0.30319488D-04  0.31400970D-07  0.30963564D-03 -0.46263572D-04  0.27346601D-07
  0.11062023D-03  0.74819538D-04 -0.14111461D-03  0.27835596D-04  0.11327902D-03
  0.67908663D-07  0.10770238D-06  0.13891517D-03 -0.15036524D-04 -0.20651478D-04
  0.35688002D-04 -0.12552021D-07  0.10108420D-07 -0.62781145D-04 -0.90414856D-04
 -0.16306692D-03 -0.24044207D-03  0.10199343D-02  0.68752909D-03  0.43561819D-05
 -0.50249686D-04  0.28502613D-04  0.35158113D-04  0.26160434D-03 -0.15118840D-03
 -0.41599457D-04  0.96204847D-04 -0.55832773D-04  0.76362490D-04 -0.19153934D-04
 -0.10144311D-03  0.12059705D-03 -0.14348037D-03  0.12578465D-03 -0.70954530D-04
 -0.19665792D-04 -0.16193563D-04  0.35859356D-04  0.55406998D-05 -0.54351579D-04
  0.31588065D-04 -0.90415069D-04 -0.16306730D-03 -0.24044264D-03  0.10199391D-02
  0.68753243D-03  0.43559133D-05  0.50269191D-04  0.28489460D-04  0.35139415D-04
 -0.26165906D-03 -0.15112292D-03 -0.41507599D-04 -0.96192407D-04 -0.55808540D-04
  0.76396603D-04 -0.19159802D-04 -0.10147815D-03  0.12063796D-03  0.14341514D-03
 -0.12570327D-03 -0.70973018D-04 -0.19647900D-04 -0.16192393D-04  0.35840294D-04
 -0.55272704D-05  0.54399748D-04  0.31576496D-04  0.91314258D-01  0.17083923D+00
  0.29517230D+00  0.47850898D+00  0.72666180D+00  0.10099915D+01  0.12008025D+01
  0.10697166D+01  0.53124390D+00  0.85525774D-01  0.90234743D-03  0.42753197D-03
  0.14261751D-01  0.49699347D-01  0.17897539D+00  0.39452898D+00  0.55536948D+00
 -0.26492934D-01 -0.72679740D+00 -0.42975075D+00  0.62781129D-05  0.76043279D-04
  0.15858024D-03  0.45478052D-03  0.23616119D-04 -0.19612342D-02 -0.50674524D-02
  0.41287217D-02 -0.28545218D-01  0.14181630D-02 -0.18175849D-03  0.17614001D-02
  0.23201760D-02  0.25595174D-02  0.21258796D-02  0.11289010D-02  0.29126237D-03
  0.73910291D-01  0.97357143D-01  0.10740017D+00  0.89204249D-01  0.47369932D-01
  0.12221690D-01  0.99143549D+01  0.13059525D+02  0.14406700D+02  0.11965892D+02
  0.63542209D+01  0.16394222D+01 -0.59860688D-07  0.57869462D-06  0.81601982D-06
  0.11671242D-05 -0.59101527D-08 -0.10703630D-05 -0.23294315D-05  0.22519445D-04
  0.31754768D-04  0.45417718D-04 -0.22998893D-06 -0.41652331D-04 -0.33685806D-03
  0.32565270D-02  0.45920430D-02  0.65678362D-02 -0.33258598D-04 -0.60233253D-02
  0.12890519D-04  0.53622389D-03  0.72555137D-01 -0.54014753D-07 -0.22277349D-05
 -0.30637857D-03 -0.67054522D-09 -0.99662971D-07 -0.39566263D-05  0.45386550D-03
  0.45495167D-03 -0.90881717D-03 -0.22944889D-08 -0.48477428D-06 -0.15877836D-04
 -0.30935523D-03 -0.30993340D-03  0.61928863D-03  0.15107162D-08  0.33018568D-06
  0.10235122D-04  0.42344939D-05  0.44313340D-05 -0.86658279D-05  0.10294208D-09
 -0.47765366D-08  0.12373524D-06  0.17945411D-07 -0.14555414D-04 -0.46952876D-04
 -0.40060356D-08  0.43532359D-04  0.69782615D-04 -0.49830198D-07  0.13388350D-06
  0.71076014D-04 -0.15033561D-07  0.15099738D-07  0.47938526D-05 -0.62575365D-04
  0.21446922D-07 -0.11895412D-04  0.93936130D-04 -0.66746136D-07 -0.24861463D-05
  0.93789965D-04  0.33858030D-08 -0.63566765D-02 -0.11848856D-01 -0.20086451D-01