 title line
GAUSSIAN            211 MOL ORBITALS    339 PRIMITIVES        6 NUCLEI
  C    1    (CENTRE  1)   0.00033070  0.00005480 -0.94053370  CHARGE =  6.0
  H    2    (CENTRE  2)   0.00003590 -1.98906904 -1.17300214  CHARGE =  1.0
  H    3    (CENTRE  3)  -1.72213010  0.99468570 -1.17398291  CHARGE =  1.0
  H    4    (CENTRE  4)   1.72295780  0.99424539 -1.17459707  CHARGE =  1.0
  Cl   5    (CENTRE  5)   0.00104880  0.00181792  3.10806659  CHARGE = 17.0
  F    6    (CENTRE  6)  -0.00035149 -0.00174044 -4.91982640  CHARGE =  9.0
CENTRE ASSIGNMENTS    1  1  1  1  1  1  1  1  1  1  1  1  1  1  1  1  1  1  1  1
CENTRE ASSIGNMENTS    1  1  1  1  1  1  1  1  1  1  1  1  1  1  1  1  1  1  1  1
CENTRE ASSIGNMENTS    1  1  1  1  1  1  1  1  1  1  1  1  1  1  1  1  1  1  1  1
CENTRE ASSIGNMENTS    1  1  1  1  1  1  1  1  1  1  1  1  2  2  2  2  2  2  2  2
CENTRE ASSIGNMENTS    2  2  2  2  2  2  2  2  2  2  2  2  2  2  2  2  2  2  2  3
CENTRE ASSIGNMENTS    3  3  3  3  3  3  3  3  3  3  3  3  3  3  3  3  3  3  3  3
CENTRE ASSIGNMENTS    3  3  3  3  3  3  4  4  4  4  4  4  4  4  4  4  4  4  4  4
CENTRE ASSIGNMENTS    4  4  4  4  4  4  4  4  4  4  4  4  4  5  5  5  5  5  5  5
CENTRE ASSIGNMENTS    5  5  5  5  5  5  5  5  5  5  5  5  5  5  5  5  5  5  5  5
CENTRE ASSIGNMENTS    5  5  5  5  5  5  5  5  5  5  5  5  5  5  5  5  5  5  5  5
CENTRE ASSIGNMENTS    5  5  5  5  5  5  5  5  5  5  5  5  5  5  5  5  5  5  5  5
CENTRE ASSIGNMENTS    5  5  5  5  5  5  5  5  5  5  5  5  5  5  5  5  5  5  5  5
CENTRE ASSIGNMENTS    5  5  5  5  5  5  5  5  5  5  5  5  5  5  5  5  5  5  5  5
CENTRE ASSIGNMENTS    5  5  5  5  5  5  5  6  6  6  6  6  6  6  6  6  6  6  6  6
CENTRE ASSIGNMENTS    6  6  6  6  6  6  6  6  6  6  6  6  6  6  6  6  6  6  6  6
CENTRE ASSIGNMENTS    6  6  6  6  6  6  6  6  6  6  6  6  6  6  6  6  6  6  6  6
CENTRE ASSIGNMENTS    6  6  6  6  6  6  6  6  6  6  6  6  6  6  6  6  6  6  6
TYPE ASSIGNMENTS      1  1  1  1  1  1  1  1  1  1  1  1  1  1  1  1  2  2  2  3
TYPE ASSIGNMENTS      3  3  4  4  4  2  3  4  2  3  4  2  3  4  5  6  7  8  9 10
TYPE ASSIGNMENTS      5  6  7  8  9 10  5  6  7  8  9 10 11 12 13 17 14 15 18 19
TYPE ASSIGNMENTS     16 20 11 12 13 17 14 15 18 19 16 20  1  1  1  1  1  1  2  3
TYPE ASSIGNMENTS      4  2  3  4  2  3  4  5  6  7  8  9 10  5  6  7  8  9 10  1
TYPE ASSIGNMENTS      1  1  1  1  1  2  3  4  2  3  4  2  3  4  5  6  7  8  9 10
TYPE ASSIGNMENTS      5  6  7  8  9 10  1  1  1  1  1  1  2  3  4  2  3  4  2  3
TYPE ASSIGNMENTS      4  5  6  7  8  9 10  5  6  7  8  9 10  1  1  1  1  1  1  1
TYPE ASSIGNMENTS      1  1  1  1  1  1  1  1  1  1  1  1  1  1  1  1  1  1  1  1
TYPE ASSIGNMENTS      1  1  1  1  2  2  2  2  2  2  3  3  3  3  3  3  4  4  4  4
TYPE ASSIGNMENTS      4  4  2  2  2  2  2  2  3  3  3  3  3  3  4  4  4  4  4  4
TYPE ASSIGNMENTS      2  3  4  2  3  4  2  3  4  5  6  7  8  9 10  5  6  7  8  9
TYPE ASSIGNMENTS     10  5  6  7  8  9 10 11 12 13 17 14 15 18 19 16 20 11 12 13
TYPE ASSIGNMENTS     17 14 15 18 19 16 20  1  1  1  1  1  1  1  1  1  1  1  1  1
TYPE ASSIGNMENTS      1  1  1  2  2  2  3  3  3  4  4  4  2  3  4  2  3  4  2  3
TYPE ASSIGNMENTS      4  5  6  7  8  9 10  5  6  7  8  9 10  5  6  7  8  9 10 11
TYPE ASSIGNMENTS     12 13 17 14 15 18 19 16 20 11 12 13 17 14 15 18 19 16 20
EXPONENTS  0.8236000D+04 0.1235000D+04 0.2808000D+03 0.7927000D+02 0.2559000D+02
EXPONENTS  0.8997000D+01 0.3319000D+01 0.2808000D+03 0.7927000D+02 0.2559000D+02
EXPONENTS  0.8997000D+01 0.3319000D+01 0.3643000D+00 0.9059000D+00 0.1285000D+00
EXPONENTS  0.4402000D-01 0.1871000D+02 0.4133000D+01 0.1200000D+01 0.1871000D+02
EXPONENTS  0.4133000D+01 0.1200000D+01 0.1871000D+02 0.4133000D+01 0.1200000D+01
EXPONENTS  0.3827000D+00 0.3827000D+00 0.3827000D+00 0.1209000D+00 0.1209000D+00
EXPONENTS  0.1209000D+00 0.3569000D-01 0.3569000D-01 0.3569000D-01 0.1097000D+01
EXPONENTS  0.1097000D+01 0.1097000D+01 0.1097000D+01 0.1097000D+01 0.1097000D+01
EXPONENTS  0.3180000D+00 0.3180000D+00 0.3180000D+00 0.3180000D+00 0.3180000D+00
EXPONENTS  0.3180000D+00 0.1000000D+00 0.1000000D+00 0.1000000D+00 0.1000000D+00
EXPONENTS  0.1000000D+00 0.1000000D+00 0.7610000D+00 0.7610000D+00 0.7610000D+00
EXPONENTS  0.7610000D+00 0.7610000D+00 0.7610000D+00 0.7610000D+00 0.7610000D+00
EXPONENTS  0.7610000D+00 0.7610000D+00 0.2680000D+00 0.2680000D+00 0.2680000D+00
EXPONENTS  0.2680000D+00 0.2680000D+00 0.2680000D+00 0.2680000D+00 0.2680000D+00
EXPONENTS  0.2680000D+00 0.2680000D+00 0.3387000D+02 0.5095000D+01 0.1159000D+01
EXPONENTS  0.3258000D+00 0.1027000D+00 0.2526000D-01 0.1407000D+01 0.1407000D+01
EXPONENTS  0.1407000D+01 0.3880000D+00 0.3880000D+00 0.3880000D+00 0.1020000D+00
EXPONENTS  0.1020000D+00 0.1020000D+00 0.1057000D+01 0.1057000D+01 0.1057000D+01
EXPONENTS  0.1057000D+01 0.1057000D+01 0.1057000D+01 0.2470000D+00 0.2470000D+00
EXPONENTS  0.2470000D+00 0.2470000D+00 0.2470000D+00 0.2470000D+00 0.3387000D+02
EXPONENTS  0.5095000D+01 0.1159000D+01 0.3258000D+00 0.1027000D+00 0.2526000D-01
EXPONENTS  0.1407000D+01 0.1407000D+01 0.1407000D+01 0.3880000D+00 0.3880000D+00
EXPONENTS  0.3880000D+00 0.1020000D+00 0.1020000D+00 0.1020000D+00 0.1057000D+01
EXPONENTS  0.1057000D+01 0.1057000D+01 0.1057000D+01 0.1057000D+01 0.1057000D+01
EXPONENTS  0.2470000D+00 0.2470000D+00 0.2470000D+00 0.2470000D+00 0.2470000D+00
EXPONENTS  0.2470000D+00 0.3387000D+02 0.5095000D+01 0.1159000D+01 0.3258000D+00
EXPONENTS  0.1027000D+00 0.2526000D-01 0.1407000D+01 0.1407000D+01 0.1407000D+01
EXPONENTS  0.3880000D+00 0.3880000D+00 0.3880000D+00 0.1020000D+00 0.1020000D+00
EXPONENTS  0.1020000D+00 0.1057000D+01 0.1057000D+01 0.1057000D+01 0.1057000D+01
EXPONENTS  0.1057000D+01 0.1057000D+01 0.2470000D+00 0.2470000D+00 0.2470000D+00
EXPONENTS  0.2470000D+00 0.2470000D+00 0.2470000D+00 0.4561000D+06 0.6833000D+05
EXPONENTS  0.1555000D+05 0.4405000D+04 0.1439000D+04 0.5204000D+03 0.2031000D+03
EXPONENTS  0.8396000D+02 0.3620000D+02 0.1583000D+02 0.6334000D+01 0.4405000D+04
EXPONENTS  0.1439000D+04 0.5204000D+03 0.2031000D+03 0.8396000D+02 0.3620000D+02
EXPONENTS  0.1583000D+02 0.6334000D+01 0.2694000D+01 0.1439000D+04 0.2031000D+03
EXPONENTS  0.8396000D+02 0.3620000D+02 0.1583000D+02 0.6334000D+01 0.2694000D+01
EXPONENTS  0.4313000D+00 0.9768000D+00 0.1625000D+00 0.5910000D-01 0.6633000D+03
EXPONENTS  0.1568000D+03 0.4998000D+02 0.1842000D+02 0.7240000D+01 0.2922000D+01
EXPONENTS  0.6633000D+03 0.1568000D+03 0.4998000D+02 0.1842000D+02 0.7240000D+01
EXPONENTS  0.2922000D+01 0.6633000D+03 0.1568000D+03 0.4998000D+02 0.1842000D+02
EXPONENTS  0.7240000D+01 0.2922000D+01 0.1568000D+03 0.4998000D+02 0.1842000D+02
EXPONENTS  0.7240000D+01 0.2922000D+01 0.3818000D+00 0.1568000D+03 0.4998000D+02
EXPONENTS  0.1842000D+02 0.7240000D+01 0.2922000D+01 0.3818000D+00 0.1568000D+03
EXPONENTS  0.4998000D+02 0.1842000D+02 0.7240000D+01 0.2922000D+01 0.3818000D+00
EXPONENTS  0.1022000D+01 0.1022000D+01 0.1022000D+01 0.1301000D+00 0.1301000D+00
EXPONENTS  0.1301000D+00 0.4190000D-01 0.4190000D-01 0.4190000D-01 0.1046000D+01
EXPONENTS  0.1046000D+01 0.1046000D+01 0.1046000D+01 0.1046000D+01 0.1046000D+01
EXPONENTS  0.3440000D+00 0.3440000D+00 0.3440000D+00 0.3440000D+00 0.3440000D+00
EXPONENTS  0.3440000D+00 0.1350000D+00 0.1350000D+00 0.1350000D+00 0.1350000D+00
EXPONENTS  0.1350000D+00 0.1350000D+00 0.7060000D+00 0.7060000D+00 0.7060000D+00
EXPONENTS  0.7060000D+00 0.7060000D+00 0.7060000D+00 0.7060000D+00 0.7060000D+00
EXPONENTS  0.7060000D+00 0.7060000D+00 0.3120000D+00 0.3120000D+00 0.3120000D+00
EXPONENTS  0.3120000D+00 0.3120000D+00 0.3120000D+00 0.3120000D+00 0.3120000D+00
EXPONENTS  0.3120000D+00 0.3120000D+00 0.1950000D+05 0.2923000D+04 0.6645000D+03
EXPONENTS  0.1875000D+03 0.6062000D+02 0.2142000D+02 0.7950000D+01 0.6645000D+03
EXPONENTS  0.1875000D+03 0.6062000D+02 0.2142000D+02 0.7950000D+01 0.8815000D+00
EXPONENTS  0.2257000D+01 0.3041000D+00 0.9158000D-01 0.4388000D+02 0.9926000D+01
EXPONENTS  0.2930000D+01 0.4388000D+02 0.9926000D+01 0.2930000D+01 0.4388000D+02
EXPONENTS  0.9926000D+01 0.2930000D+01 0.9132000D+00 0.9132000D+00 0.9132000D+00
EXPONENTS  0.2672000D+00 0.2672000D+00 0.2672000D+00 0.7361000D-01 0.7361000D-01
EXPONENTS  0.7361000D-01 0.3107000D+01 0.3107000D+01 0.3107000D+01 0.3107000D+01
EXPONENTS  0.3107000D+01 0.3107000D+01 0.8550000D+00 0.8550000D+00 0.8550000D+00
EXPONENTS  0.8550000D+00 0.8550000D+00 0.8550000D+00 0.2920000D+00 0.2920000D+00
EXPONENTS  0.2920000D+00 0.2920000D+00 0.2920000D+00 0.2920000D+00 0.1917000D+01
EXPONENTS  0.1917000D+01 0.1917000D+01 0.1917000D+01 0.1917000D+01 0.1917000D+01
EXPONENTS  0.1917000D+01 0.1917000D+01 0.1917000D+01 0.1917000D+01 0.7240000D+00
EXPONENTS  0.7240000D+00 0.7240000D+00 0.7240000D+00 0.7240000D+00 0.7240000D+00
EXPONENTS  0.7240000D+00 0.7240000D+00 0.7240000D+00 0.7240000D+00
MO    1     MO 0.0        OCC NO =    2.0000300  ORB. ENERGY =    0.000000
  0.92984150D-08  0.17334119D-07  0.29297022D-07  0.44038889D-07  0.54093887D-07
  0.45653333D-07  0.17166845D-07  0.26949018D-11  0.20142721D-10  0.75277948D-10
  0.21001375D-09  0.28136053D-09 -0.33223432D-09  0.72833931D-09  0.32256269D-08
  0.43455643D-08  0.10445521D-03  0.97933395D-04  0.69734411D-04 -0.35147649D-04
 -0.32953155D-04 -0.23464610D-04 -0.74627517D-08 -0.69968041D-08 -0.49821413D-08
  0.34367634D-03 -0.11564231D-03 -0.59718603D-08  0.43805069D-03 -0.14739895D-03
 -0.20289368D-07  0.87689126D-05 -0.29506043D-05 -0.33531833D-09 -0.20447353D-04
  0.20434511D-04  0.12842047D-07  0.12100127D-03 -0.48497457D-03  0.16313586D-03
 -0.61811364D-04  0.61815158D-04 -0.37946743D-08  0.36799203D-03  0.94628733D-04
 -0.32007062D-04 -0.13128415D-04  0.13125590D-04  0.28251875D-08  0.78037696D-04
 -0.62359851D-04  0.20948204D-04  0.87593513D-04 -0.29471428D-04  0.12382149D-07
  0.87618249D-04 -0.29468665D-04 -0.83478187D-05 -0.35039879D-03  0.11788295D-03
  0.83106723D-05  0.48395548D-04 -0.25116484D-04  0.84570325D-05 -0.42558308D-08
 -0.25067571D-04  0.84607510D-05 -0.16058531D-04  0.10041702D-03 -0.33831848D-04
  0.16071299D-04  0.95943270D-04  0.12750820D-04  0.22996629D-04  0.33908516D-04
 -0.11702421D-03 -0.35829274D-03  0.38986942D-05  0.42327167D-05 -0.22734941D-04
 -0.77884233D-05  0.79154839D-04 -0.91757934D-04 -0.86864852D-04  0.71810392D-04
 -0.54909292D-04 -0.71422685D-05  0.35010846D-04 -0.13466964D-04 -0.21543882D-04
  0.29295198D-04 -0.45265178D-04 -0.95446546D-04  0.13865055D-04  0.38226737D-05
 -0.17687729D-04  0.27473287D-04  0.58031129D-04 -0.99774642D-05 -0.39204748D-04
 -0.70707378D-04 -0.10425799D-03  0.35981339D-03  0.11016767D-02 -0.11988052D-04
  0.60970578D-04 -0.34177927D-04  0.23983929D-04  0.25250276D-03 -0.12659531D-03
  0.26717335D-03  0.15367269D-03 -0.71427970D-04  0.21997242D-04  0.67158185D-05
 -0.73133341D-04  0.66417523D-04 -0.12585437D-03  0.24947732D-03 -0.15478984D-03
 -0.16996105D-04 -0.37366142D-04  0.54362247D-04 -0.23811377D-04  0.32576777D-04
 -0.47161560D-05  0.26454737D-04  0.47712207D-04  0.70351622D-04 -0.24280042D-03
 -0.74338290D-03  0.80888061D-05  0.42520165D-04  0.20666365D-04 -0.16197129D-04
  0.19608980D-03  0.40771947D-04 -0.18032993D-03  0.12705304D-03  0.77116759D-05
 -0.14866644D-04 -0.12760482D-04  0.57646242D-04 -0.44885760D-04 -0.75314440D-04
  0.15363204D-03  0.12990296D-03  0.37451384D-05  0.32934818D-04 -0.36679956D-04
 -0.71242259D-05  0.40825681D-04 -0.29530661D-04 -0.88752992D-07 -0.16604738D-06
 -0.28689304D-06 -0.46508732D-06 -0.70627973D-06 -0.98166237D-06 -0.11671213D-05
 -0.10397122D-05 -0.51634309D-06 -0.83126869D-07 -0.87703757D-09 -0.41559100D-09
 -0.13863420D-07 -0.48311244D-07 -0.17397661D-06 -0.38350979D-06 -0.53985800D-06
  0.25752986D-07  0.70649795D-06  0.41774781D-06 -0.90480741D-11 -0.10959427D-09
 -0.22854730D-09 -0.65543388D-09 -0.34035769D-10  0.28265487D-08  0.73032591D-08
 -0.59503518D-08  0.24860724D-07 -0.19731720D-09 -0.79542140D-09  0.11004521D+02
  0.14495528D+02  0.15990836D+02  0.13281642D+02  0.70529203D+01  0.18196903D+01
 -0.37029282D+01 -0.48776226D+01 -0.53807813D+01 -0.44691601D+01 -0.23732481D+01
 -0.61231040D+00 -0.34349084D-03 -0.45245779D-03 -0.49913177D-03 -0.41456802D-03
 -0.22014712D-03 -0.56799108D-04 -0.43571368D-03  0.42121995D-02  0.59396410D-02
  0.84952579D-02 -0.43018790D-04 -0.77909527D-02  0.14661394D-03 -0.14173692D-02
 -0.19986385D-02 -0.28585818D-02  0.14475456D-04  0.26215891D-02  0.13436954D-07
 -0.12989982D-06 -0.18317231D-06 -0.26198486D-06  0.13266545D-08  0.24026483D-06
  0.72635386D-01 -0.24441192D-01 -0.22646530D-05 -0.61057768D-03  0.20545440D-03
  0.18154096D-07 -0.54764251D-04  0.18427710D-04  0.18154510D-08 -0.41425819D-05
  0.41135441D-05  0.29037860D-07  0.23316197D-04 -0.93386264D-03  0.31422540D-03
  0.14591943D-05 -0.14496654D-05 -0.95289024D-08 -0.82035772D-05  0.33759536D-03
 -0.11359362D-03 -0.40950673D-06  0.40749856D-06  0.20081724D-08  0.23534135D-05
 -0.57838312D-04  0.19460943D-04  0.20614404D-05 -0.68943273D-06  0.94038037D-10
  0.20938628D-05 -0.68726423D-06 -0.11118106D-04 -0.82781841D-05  0.27555624D-05
  0.11117824D-04  0.66137252D-04  0.13917758D-04 -0.46840174D-05  0.15709305D-08
  0.13911237D-04 -0.46844738D-05  0.22282605D-05 -0.55664511D-04  0.18736526D-04
 -0.22329733D-05 -0.13461004D-04  0.10670797D-07  0.19890384D-07  0.33718631D-07
  0.51054568D-07  0.63829455D-07  0.54904777D-07  0.21057164D-07 -0.23476086D-10
 -0.31077942D-09 -0.11288074D-08 -0.33485859D-08 -0.38585689D-08  0.46868067D-08
  0.33221110D-09 -0.77486876D-08 -0.79982340D-08 -0.27244700D-03 -0.26644722D-03
 -0.17605294D-03  0.91676683D-04  0.89657793D-04  0.59240695D-04 -0.41164179D-09
 -0.40257668D-09 -0.26599943D-09 -0.84561147D-05  0.28468374D-05  0.37007477D-08
 -0.61493263D-04  0.20690974D-04 -0.73992593D-08 -0.18324312D-04  0.61659447D-05
 -0.53007503D-09 -0.22450987D-04  0.22444697D-04  0.62900033D-08  0.13341892D-03
 -0.12666635D-03  0.42561125D-04  0.11266952D-04 -0.11263561D-04 -0.33910929D-08
 -0.66910216D-04  0.96593668D-04 -0.32472143D-04 -0.56638960D-05  0.56639935D-05
 -0.97520649D-10  0.33613031D-04 -0.69050523D-04  0.23218751D-04 -0.67021393D-04
  0.22529150D-04 -0.38348868D-08 -0.67208188D-04  0.22518986D-04  0.59758896D-04
  0.26827237D-03 -0.90106437D-04 -0.59747391D-04 -0.35468759D-03  0.23680220D-04
 -0.79608668D-05  0.90577521D-09  0.23739278D-04 -0.79575888D-05 -0.18935315D-04
 -0.94779939D-04  0.31840189D-04  0.18932598D-04  0.11235637D-03
MO    2     MO 0.0        OCC NO =    2.0000300  ORB. ENERGY =    0.000000
 -0.21979511D-07 -0.40974236D-07 -0.69252041D-07 -0.10409873D-06 -0.12786665D-06
 -0.10791494D-06 -0.40578836D-07 -0.64665922D-11 -0.48333771D-10 -0.18063434D-09
 -0.50394167D-09 -0.67514291D-09  0.79721789D-09 -0.17156606D-08  0.64711741D-08
 -0.50290095D-08  0.35148275D-04  0.32953742D-04  0.23465028D-04  0.10445323D-03
  0.97931547D-04  0.69733096D-04 -0.47259484D-07 -0.44308770D-07 -0.31550484D-07
  0.11564445D-03  0.34367159D-03 -0.17476245D-06  0.14739983D-03  0.43804496D-03
 -0.20830804D-06  0.29505813D-05  0.87684839D-05 -0.42635052D-08  0.60559308D-04
 -0.60801831D-04  0.24252251D-06  0.40568058D-04 -0.16321386D-03 -0.48488555D-03
  0.18398192D-03 -0.18393565D-03 -0.46269590D-07  0.12368815D-03  0.31770075D-04
  0.94906895D-04  0.39027547D-04 -0.39057303D-04  0.29755986D-07  0.26213576D-04
 -0.20998573D-04 -0.62299377D-04  0.29478971D-04  0.87582753D-04  0.17115086D-06
  0.29477407D-04  0.87605378D-04  0.24272726D-04 -0.11791432D-03 -0.35035364D-03
 -0.24786178D-04  0.16092708D-04 -0.84419337D-05 -0.25132906D-04 -0.48312113D-07
 -0.84439105D-05 -0.25085465D-04  0.47948576D-04  0.33769712D-04  0.10048418D-03
 -0.47803640D-04  0.32292625D-04 -0.37908653D-04 -0.68369817D-04 -0.10081126D-03
  0.34791224D-03  0.10652388D-02 -0.11592039D-04  0.14377744D-05  0.67588615D-04
  0.23152861D-04  0.26713002D-04  0.27276701D-03  0.25821058D-03  0.24181014D-04
  0.16322145D-03  0.21193372D-04 -0.10410129D-03  0.40024106D-04  0.64077183D-04
  0.99505047D-05 -0.15118686D-04  0.28377737D-03 -0.41176233D-04 -0.11375797D-04
  0.52552030D-04  0.92549613D-05  0.19559617D-04  0.29621940D-04  0.79114854D-05
  0.14268690D-04  0.21039175D-04 -0.72610508D-04 -0.22232983D-03  0.24197566D-05
 -0.10023376D-04  0.10844556D-04 -0.48421535D-05 -0.83310266D-05  0.99352108D-04
 -0.53957515D-04  0.76456058D-05  0.81354437D-04 -0.44757080D-05  0.12320452D-04
  0.10602406D-05 -0.13380692D-04  0.41163895D-04 -0.74704759D-04 -0.10904865D-04
  0.16231504D-04 -0.52320694D-05 -0.10999435D-04  0.19595960D-04  0.24664964D-04
  0.55069525D-04  0.29995821D-04  0.54098699D-04  0.79768500D-04 -0.27529861D-03
 -0.84291667D-03  0.91729052D-05  0.44832878D-04  0.29283499D-04 -0.18367312D-04
  0.15919932D-03  0.15562093D-03 -0.20451022D-03  0.86799292D-04  0.10796219D-03
 -0.16891286D-04  0.58048349D-05  0.45068774D-04 -0.50873609D-04 -0.10880200D-03
  0.21026984D-03  0.84843145D-04  0.23195886D-04  0.18420588D-04 -0.41616474D-04
 -0.29988676D-04  0.18954609D-08  0.46736703D-04  0.12491896D-06  0.23371004D-06
  0.40379911D-06  0.65460580D-06  0.99408173D-06  0.13816801D-05  0.16427117D-05
  0.14633847D-05  0.72674778D-06  0.11700024D-06  0.12344217D-08  0.58481548D-09
  0.19508465D-07  0.67983096D-07  0.24481814D-06  0.53967112D-06  0.75968275D-06
 -0.36239343D-07 -0.99417681D-06 -0.58785052D-06  0.12971110D-10  0.15711181D-09
  0.32764013D-09  0.93961484D-09  0.48792890D-10 -0.40520749D-08 -0.10469783D-07
  0.85302866D-08 -0.35075036D-07  0.14072741D-09  0.97881631D-09  0.37029276D+01
  0.48776219D+01  0.53807805D+01  0.44691595D+01  0.23732477D+01  0.61231031D+00
  0.11004519D+02  0.14495526D+02  0.15990835D+02  0.13281640D+02  0.70529196D+01
  0.18196901D+01 -0.54457560D-02 -0.71733346D-02 -0.79133109D-02 -0.65726243D-02
 -0.34902459D-02 -0.90050169D-03 -0.14661391D-03  0.14173690D-02  0.19986382D-02
  0.28585813D-02 -0.14475453D-04 -0.26215887D-02 -0.43571343D-03  0.42121971D-02
  0.59396376D-02  0.84952530D-02 -0.43018765D-04 -0.77909482D-02  0.21583714D-06
 -0.20865746D-05 -0.29422880D-05 -0.42082502D-05  0.21309987D-07  0.38593623D-05
  0.24441189D-01  0.72635374D-01 -0.35948331D-04 -0.20545438D-03 -0.61057868D-03
  0.30340197D-06 -0.18427706D-04 -0.54764258D-04  0.26963149D-07  0.11777511D-04
 -0.12239848D-04  0.46233697D-06  0.76511051D-05 -0.31424047D-03 -0.93383925D-03
 -0.41442839D-05  0.43126621D-05 -0.16837812D-06 -0.26901877D-05  0.11359895D-03
  0.33758528D-03  0.11844709D-05 -0.12128113D-05  0.28340410D-07  0.77954527D-06
 -0.19462456D-04 -0.57835914D-04  0.70017919D-06  0.20487276D-05  0.42605887D-08
  0.69792761D-06  0.20813316D-05  0.33070464D-04 -0.27984652D-05 -0.82275143D-05
 -0.33083245D-04  0.22222650D-04  0.46818373D-05  0.13920066D-04  0.27768119D-07
  0.46823147D-05  0.13913465D-04 -0.67201576D-05 -0.18727827D-04 -0.55673663D-04
  0.66368532D-05 -0.45514059D-05 -0.13250752D-07 -0.24699424D-07 -0.41871026D-07
 -0.63398396D-07 -0.79261959D-07 -0.68179498D-07 -0.26148305D-07  0.28633328D-10
  0.37905165D-09  0.13767846D-08  0.40842055D-08  0.47062219D-08 -0.57164075D-08
 -0.45509904D-09  0.94692458D-08  0.96855667D-08 -0.91675915D-04 -0.89657042D-04
 -0.59240199D-04 -0.27244814D-03 -0.26644833D-03 -0.17605367D-03  0.14494063D-06
  0.14174877D-06  0.93659404D-07 -0.28470343D-05 -0.84651721D-05  0.22618782D-10
 -0.20690639D-04 -0.61486407D-04  0.41621335D-07 -0.61659280D-05 -0.18324078D-04
  0.10400196D-07  0.66730212D-04 -0.66789887D-04  0.59675372D-07  0.44813620D-04
 -0.42647451D-04 -0.12656014D-03 -0.33470092D-04  0.33517325D-04 -0.47232215D-07
 -0.22468018D-04  0.32515346D-04  0.96538936D-04  0.16815977D-04 -0.16852825D-04
  0.36847933D-07  0.11283293D-04 -0.23240245D-04 -0.69018323D-04 -0.22584117D-04
 -0.66948312D-04 -0.13815108D-06 -0.22582153D-04 -0.67124829D-04 -0.17740874D-03
  0.90334503D-04  0.26796977D-03  0.17782319D-03 -0.11907401D-03  0.79782743D-05
  0.23656706D-04  0.49367086D-07  0.79775542D-05  0.23712561D-04  0.56200285D-04
 -0.31912377D-04 -0.94682679D-04 -0.56348386D-04  0.37715178D-04
MO    3     MO 0.0        OCC NO =    2.0000210  ORB. ENERGY =    0.000000
 -0.14576815D-01 -0.27174120D-01 -0.45927964D-01 -0.69038297D-01 -0.84801182D-01
 -0.71569206D-01 -0.26911890D-01 -0.38155944D-05 -0.28519204D-04 -0.10658278D-03
 -0.29734935D-03 -0.39836615D-03  0.47039615D-03 -0.88359915D-03 -0.19169888D-02
 -0.82014891D-04  0.20577875D-06  0.19293066D-06  0.13737812D-06  0.49984822D-06
  0.46863948D-06  0.33369923D-06  0.11523304D-02  0.10803830D-02  0.76929705D-03
  0.10389392D-06  0.26244203D-06  0.60169520D-03 -0.65930115D-07 -0.16848048D-06
 -0.37564863D-03  0.81850499D-09  0.20233142D-08  0.46507103D-05 -0.10437383D-03
 -0.10437486D-03  0.20874869D-03 -0.11585377D-08  0.11206627D-06  0.27007907D-06
 -0.23280643D-04 -0.23278842D-04  0.46559485D-04 -0.54491643D-09  0.24198854D-07
  0.63197190D-07  0.11541651D-04  0.11542428D-04 -0.23084080D-04  0.16111818D-09
 -0.12221222D-07 -0.30588705D-07 -0.15811404D-07  0.36311220D-04  0.75365057D-05
  0.39639959D-07 -0.10895428D-03 -0.11257240D-04  0.77942538D-08  0.20623483D-07
 -0.11352277D-04  0.38616677D-07  0.27722584D-08  0.51431378D-04 -0.84601253D-04
  0.81217616D-07 -0.15407167D-03  0.12696934D-03 -0.89534391D-07 -0.22246037D-06
  0.12683442D-03  0.54419335D-07 -0.43272768D-05 -0.78044219D-05 -0.11507616D-04
  0.74681374D-03  0.23310600D-03  0.50931738D-05  0.17307986D-07  0.96056292D-04
  0.27981899D-04  0.24766879D-07  0.19757850D-03 -0.37006088D-05  0.12565686D-07
  0.43548659D-04  0.38441482D-04 -0.73540865D-04  0.54216531D-04  0.19324334D-04
  0.46023893D-07  0.42934880D-07  0.75014268D-04 -0.96620754D-05 -0.11967357D-04
  0.21629432D-04 -0.65616080D-08  0.66678204D-08 -0.34072374D-04 -0.43271396D-05
 -0.78041744D-05 -0.11507251D-04  0.74681562D-03  0.23312297D-03  0.50934083D-05
  0.83177031D-04 -0.48021217D-04  0.28030637D-04  0.17109635D-03 -0.98814934D-04
 -0.36088616D-05  0.37705698D-04 -0.21755974D-04  0.38463590D-04  0.22249304D-04
 -0.41613278D-04  0.19363974D-04 -0.11060930D-03  0.65028930D-04 -0.37456873D-04
 -0.11385016D-04 -0.10227282D-04  0.21612298D-04  0.19737613D-05 -0.29520767D-04
  0.17082836D-04 -0.43269657D-05 -0.78038607D-05 -0.11506788D-04  0.74681910D-03
  0.23312133D-03  0.50934009D-05 -0.83179471D-04 -0.48000276D-04  0.28060677D-04
 -0.17112315D-03 -0.98771913D-04 -0.35464523D-05 -0.37697275D-04 -0.21746432D-04
  0.38477105D-04  0.22254438D-04 -0.41641029D-04  0.19386591D-04  0.11056328D-03
 -0.65041640D-04 -0.37480714D-04 -0.11375021D-04 -0.10226790D-04  0.21601811D-04
 -0.19669281D-05  0.29548206D-04  0.17075946D-04 -0.15494657D+00 -0.28988851D+00
 -0.50086304D+00 -0.81195784D+00 -0.12330359D+01 -0.17138039D+01 -0.20375815D+01
 -0.18151484D+01 -0.90144108D+00 -0.14512439D+00 -0.15311480D-02 -0.72444667D-03
 -0.24166328D-01 -0.84214816D-01 -0.30327119D+00 -0.66852359D+00 -0.94106545D+00
  0.44891889D-01  0.12315476D+01  0.72820637D+00 -0.15559903D-04 -0.18846842D-03
 -0.39303101D-03 -0.11271445D-02 -0.58531046D-04  0.48607938D-02  0.12559358D-01
 -0.10232774D-01  0.46702415D-01 -0.39270459D-03 -0.13125472D-03  0.10462396D-02
  0.13781424D-02  0.15203068D-02  0.12627338D-02  0.67054668D-03  0.17300455D-03
  0.25768919D-02  0.33943694D-02  0.37445208D-02  0.31101177D-02  0.16515588D-02
  0.42611080D-03  0.59040491D+01  0.77770139D+01  0.85792637D+01  0.71257502D+01
  0.37839711D+01  0.97628432D+00 -0.37071932D-07  0.35838758D-06  0.50536390D-06
  0.72280407D-06 -0.36601781D-08 -0.66287950D-06 -0.91291327D-07  0.88254581D-06
  0.12444817D-05  0.17799381D-05 -0.90133558D-08 -0.16323711D-05 -0.20919141D-03
  0.20223280D-02  0.28516936D-02  0.40786762D-02 -0.20653842D-04 -0.37405307D-02
  0.73353768D-05  0.18063084D-04  0.41390614D-01 -0.85341076D-07 -0.20918767D-06
 -0.48064381D-03 -0.17090484D-08 -0.42936408D-08 -0.97195567D-05 -0.97173842D-05
 -0.97173842D-05  0.19434768D-04  0.35771086D-10  0.10074606D-07  0.26210303D-07
 -0.10995948D-03 -0.10995947D-03  0.21991896D-03  0.36042477D-10  0.11735718D-06
  0.28642261D-06 -0.14295530D-04 -0.14295440D-04  0.28590971D-04  0.20005131D-10
  0.15310555D-07  0.37086057D-07  0.11046738D-08 -0.71673706D-05  0.58898600D-05
 -0.98332707D-08  0.21487307D-04 -0.88445927D-05  0.65192491D-08  0.14805172D-07
 -0.88249874D-05 -0.74143067D-08  0.81937118D-08  0.20627295D-05 -0.33503272D-04
  0.11309992D-07 -0.61012464D-05  0.50257780D-04 -0.35891127D-07 -0.86942137D-07
  0.50252036D-04  0.20539990D-08 -0.84980969D-03 -0.15840467D-02 -0.26853121D-02
 -0.40659257D-02 -0.50833026D-02 -0.43725518D-02 -0.16769677D-02 -0.67857661D-06
 -0.89830838D-05 -0.32628195D-04 -0.96790925D-04 -0.11153199D-03  0.13547222D-03
 -0.93730071D-04 -0.15484468D-03  0.14067158D-04  0.66010775D-06  0.64557096D-06
  0.42655603D-06  0.17622454D-05  0.17234375D-05  0.11387480D-05  0.38786431D-02
  0.37932282D-02  0.25063462D-02  0.14851367D-06  0.40112971D-06  0.87789548D-03
  0.44363271D-08  0.90913413D-08  0.23017359D-04  0.15681032D-08  0.44594889D-08
  0.95693548D-05 -0.34596568D-04 -0.34594672D-04  0.69191240D-04  0.92161260D-09
  0.35394216D-07  0.94323241D-07  0.20071199D-04  0.20070423D-04 -0.40141622D-04
 -0.39380576D-09 -0.20788603D-07 -0.54041141D-07  0.18186761D-04  0.18186787D-04
 -0.36373548D-04  0.48963772D-10 -0.17956546D-07 -0.51102364D-07 -0.10506173D-07
 -0.28008161D-05  0.49512704D-04 -0.14724767D-07  0.82565880D-05 -0.74276200D-04
  0.46243286D-07  0.14586031D-06 -0.74261912D-04 -0.53512988D-09  0.59736720D-08
  0.89210594D-06 -0.26237117D-04  0.73062913D-08 -0.26008529D-05  0.39357956D-04
 -0.25227307D-07 -0.75464898D-07  0.39353396D-04  0.14936163D-09
MO    4     MO 0.0        OCC NO =    2.0000122  ORB. ENERGY =    0.000000
  0.26928963D-01  0.50201011D-01  0.84846549D-01  0.12754019D+00  0.15666028D+00
  0.13221575D+00  0.49716574D-01 -0.14659131D-05 -0.10956792D-04 -0.40948035D-04
 -0.11423864D-03 -0.15304828D-03  0.18072148D-03  0.26572713D-02 -0.36140097D-02
 -0.44135607D-04  0.64811964D-06  0.60765336D-06  0.43268539D-06  0.16035355D-05
  0.15034165D-05  0.10705221D-05  0.36743984D-02  0.34449820D-02  0.24530324D-02
  0.22857731D-06  0.56539910D-06  0.13053165D-02 -0.74244501D-07 -0.18888290D-06
 -0.41861637D-03  0.66256979D-09  0.14120697D-08  0.35549143D-05 -0.31850299D-03
 -0.31850557D-03  0.63700857D-03 -0.12348947D-08  0.33877595D-06  0.83262747D-06
  0.10183569D-04  0.10187954D-04 -0.20371522D-04 -0.44744685D-09 -0.10158467D-07
 -0.27256771D-07 -0.17349067D-04 -0.17348281D-04  0.34697348D-04 -0.39162893D-11
  0.17973591D-07  0.46131867D-07  0.10493857D-07 -0.42475711D-04  0.22338874D-04
 -0.54338341D-07  0.12736661D-03 -0.33564843D-04  0.22856771D-07  0.60526319D-07
 -0.33451778D-04 -0.44285011D-07  0.12084972D-07  0.82506181D-04 -0.16394132D-03
  0.13789961D-06 -0.24708917D-03  0.24601962D-03 -0.17415452D-06 -0.42937478D-06
  0.24580435D-03  0.87597523D-07 -0.90054482D-04 -0.16241697D-03 -0.23948372D-03
  0.10277743D-02  0.68232317D-03  0.43836418D-05 -0.13094134D-08 -0.57571502D-04
  0.33336206D-04  0.31522613D-07  0.30513548D-03 -0.42880327D-04  0.27556037D-07
  0.11074074D-03  0.76072018D-04 -0.14269702D-03  0.24257508D-04  0.11843951D-03
  0.68028542D-07  0.11076924D-06  0.14285144D-03 -0.15063393D-04 -0.21227862D-04
  0.36291255D-04 -0.12694592D-07  0.10339011D-07 -0.62803212D-04 -0.90054136D-04
 -0.16241634D-03 -0.23948280D-03  0.10277845D-02  0.68233759D-03  0.43847433D-05
 -0.49857974D-04  0.28811971D-04  0.33312946D-04  0.26424546D-03 -0.15263210D-03
 -0.42731028D-04  0.95883499D-04 -0.55334576D-04  0.76128173D-04 -0.17528530D-04
 -0.10099130D-03  0.11851983D-03 -0.14451529D-03  0.12374543D-03 -0.71185199D-04
 -0.19675229D-04 -0.16583900D-04  0.36259129D-04  0.52976810D-05 -0.54409632D-04
  0.31477824D-04 -0.90054406D-04 -0.16241683D-03 -0.23948352D-03  0.10277871D-02
  0.68234186D-03  0.43844744D-05  0.49877001D-04  0.28799085D-04  0.33295112D-04
 -0.26429954D-03 -0.15256522D-03 -0.42637245D-04 -0.95871050D-04 -0.55310410D-04
  0.76162384D-04 -0.17534026D-04 -0.10102691D-03  0.11856094D-03  0.14444868D-03
 -0.12366758D-03 -0.71205241D-04 -0.19657342D-04 -0.16582789D-04  0.36240131D-04
 -0.52846426D-05  0.54458087D-04  0.31466158D-04  0.90726372D-01  0.16973936D+00
  0.29327197D+00  0.47542832D+00  0.72198352D+00  0.10034892D+01  0.11930717D+01
  0.10628298D+01  0.52782373D+00  0.84975155D-01  0.89653808D-03  0.42477146D-03
  0.14169665D-01  0.49378445D-01  0.17781977D+00  0.39198156D+00  0.55178353D+00
 -0.26321873D-01 -0.72210457D+00 -0.42697591D+00  0.62083019D-05  0.75197697D-04
  0.15681687D-03  0.44972348D-03  0.23353514D-04 -0.19394258D-02 -0.50111037D-02
  0.40828114D-02 -0.28370336D-01  0.14188547D-02 -0.18029279D-03  0.17663392D-02
  0.23266819D-02  0.25666943D-02  0.21318406D-02  0.11320665D-02  0.29207908D-03
  0.43186541D-02  0.56886778D-02  0.62755021D-02  0.52122958D-02  0.27678737D-02
  0.71412589D-03  0.99364414D+01  0.13088618D+02  0.14438794D+02  0.11992549D+02
  0.63683764D+01  0.16430744D+01 -0.59904273D-07  0.57911597D-06  0.81661397D-06
  0.11679740D-05 -0.59144559D-08 -0.10711423D-05 -0.14637396D-06  0.14150493D-05
  0.19953672D-05  0.28539029D-05 -0.14451762D-07 -0.26172981D-05 -0.33692643D-03
  0.32571880D-02  0.45929750D-02  0.65691693D-02 -0.33265349D-04 -0.60245478D-02
  0.12931764D-04  0.31616250D-04  0.72745968D-01 -0.54072879D-07 -0.13447905D-06
 -0.30673783D-03 -0.65724341D-09 -0.17971074D-08 -0.38890388D-05  0.45722114D-03
  0.45722114D-03 -0.91444229D-03 -0.14857265D-09 -0.48822227D-06 -0.11899989D-05
 -0.31054782D-03 -0.31054792D-03  0.62109574D-03  0.79184376D-10  0.33138539D-06
  0.80880484D-06  0.42819008D-05  0.42820121D-05 -0.85639128D-05  0.30063978D-11
 -0.47647104D-08 -0.10618879D-07  0.17960996D-07 -0.14557019D-04 -0.46556980D-04
 -0.43123809D-08  0.43792426D-04  0.69816172D-04 -0.49570606D-07 -0.12136778D-06
  0.69854768D-04 -0.15692242D-07  0.15148399D-07  0.42324801D-05 -0.62785604D-04
  0.21548516D-07 -0.12533840D-04  0.94183973D-04 -0.66993712D-07 -0.16360050D-06
  0.94172840D-04  0.44737722D-08 -0.62651640D-02 -0.11678276D-01 -0.19797280D-01