 title line
GAUSSIAN            211 MOL ORBITALS    339 PRIMITIVES        6 NUCLEI
  C    1    (CENTRE  1)   0.00033070  0.00005480 -0.94053370  CHARGE =  6.0
  H    2    (CENTRE  2)   0.00003590 -1.98906904 -1.17300214  CHARGE =  1.0
  H    3    (CENTRE  3)  -1.72213010  0.99468570 -1.17398291  CHARGE =  1.0
  H    4    (CENTRE  4)   1.72295780  0.99424539 -1.17459707  CHARGE =  1.0
  Cl   5    (CENTRE  5)   0.00104880  0.00181792  3.10806659  CHARGE = 17.0
  F    6    (CENTRE  6)   0.01854577 -0.00174044 -4.90092914  CHARGE =  9.0
CENTRE ASSIGNMENTS    1  1  1  1  1  1  1  1  1  1  1  1  1  1  1  1  1  1  1  1
CENTRE ASSIGNMENTS    1  1  1  1  1  1  1  1  1  1  1  1  1  1  1  1  1  1  1  1
CENTRE ASSIGNMENTS    1  1  1  1  1  1  1  1  1  1  1  1  1  1  1  1  1  1  1  1
CENTRE ASSIGNMENTS    1  1  1  1  1  1  1  1  1  1  1  1  2  2  2  2  2  2  2  2
CENTRE ASSIGNMENTS    2  2  2  2  2  2  2  2  2  2  2  2  2  2  2  2  2  2  2  3
CENTRE ASSIGNMENTS    3  3  3  3  3  3  3  3  3  3  3  3  3  3  3  3  3  3  3  3
CENTRE ASSIGNMENTS    3  3  3  3  3  3  4  4  4  4  4  4  4  4  4  4  4  4  4  4
CENTRE ASSIGNMENTS    4  4  4  4  4  4  4  4  4  4  4  4  4  5  5  5  5  5  5  5
CENTRE ASSIGNMENTS    5  5  5  5  5  5  5  5  5  5  5  5  5  5  5  5  5  5  5  5
CENTRE ASSIGNMENTS    5  5  5  5  5  5  5  5  5  5  5  5  5  5  5  5  5  5  5  5
CENTRE ASSIGNMENTS    5  5  5  5  5  5  5  5  5  5  5  5  5  5  5  5  5  5  5  5
CENTRE ASSIGNMENTS    5  5  5  5  5  5  5  5  5  5  5  5  5  5  5  5  5  5  5  5
CENTRE ASSIGNMENTS    5  5  5  5  5  5  5  5  5  5  5  5  5  5  5  5  5  5  5  5
CENTRE ASSIGNMENTS    5  5  5  5  5  5  5  6  6  6  6  6  6  6  6  6  6  6  6  6
CENTRE ASSIGNMENTS    6  6  6  6  6  6  6  6  6  6  6  6  6  6  6  6  6  6  6  6
CENTRE ASSIGNMENTS    6  6  6  6  6  6  6  6  6  6  6  6  6  6  6  6  6  6  6  6
CENTRE ASSIGNMENTS    6  6  6  6  6  6  6  6  6  6  6  6  6  6  6  6  6  6  6
TYPE ASSIGNMENTS      1  1  1  1  1  1  1  1  1  1  1  1  1  1  1  1  2  2  2  3
TYPE ASSIGNMENTS      3  3  4  4  4  2  3  4  2  3  4  2  3  4  5  6  7  8  9 10
TYPE ASSIGNMENTS      5  6  7  8  9 10  5  6  7  8  9 10 11 12 13 17 14 15 18 19
TYPE ASSIGNMENTS     16 20 11 12 13 17 14 15 18 19 16 20  1  1  1  1  1  1  2  3
TYPE ASSIGNMENTS      4  2  3  4  2  3  4  5  6  7  8  9 10  5  6  7  8  9 10  1
TYPE ASSIGNMENTS      1  1  1  1  1  2  3  4  2  3  4  2  3  4  5  6  7  8  9 10
TYPE ASSIGNMENTS      5  6  7  8  9 10  1  1  1  1  1  1  2  3  4  2  3  4  2  3
TYPE ASSIGNMENTS      4  5  6  7  8  9 10  5  6  7  8  9 10  1  1  1  1  1  1  1
TYPE ASSIGNMENTS      1  1  1  1  1  1  1  1  1  1  1  1  1  1  1  1  1  1  1  1
TYPE ASSIGNMENTS      1  1  1  1  2  2  2  2  2  2  3  3  3  3  3  3  4  4  4  4
TYPE ASSIGNMENTS      4  4  2  2  2  2  2  2  3  3  3  3  3  3  4  4  4  4  4  4
TYPE ASSIGNMENTS      2  3  4  2  3  4  2  3  4  5  6  7  8  9 10  5  6  7  8  9
TYPE ASSIGNMENTS     10  5  6  7  8  9 10 11 12 13 17 14 15 18 19 16 20 11 12 13
TYPE ASSIGNMENTS     17 14 15 18 19 16 20  1  1  1  1  1  1  1  1  1  1  1  1  1
TYPE ASSIGNMENTS      1  1  1  2  2  2  3  3  3  4  4  4  2  3  4  2  3  4  2  3
TYPE ASSIGNMENTS      4  5  6  7  8  9 10  5  6  7  8  9 10  5  6  7  8  9 10 11
TYPE ASSIGNMENTS     12 13 17 14 15 18 19 16 20 11 12 13 17 14 15 18 19 16 20
EXPONENTS  0.8236000D+04 0.1235000D+04 0.2808000D+03 0.7927000D+02 0.2559000D+02
EXPONENTS  0.8997000D+01 0.3319000D+01 0.2808000D+03 0.7927000D+02 0.2559000D+02
EXPONENTS  0.8997000D+01 0.3319000D+01 0.3643000D+00 0.9059000D+00 0.1285000D+00
EXPONENTS  0.4402000D-01 0.1871000D+02 0.4133000D+01 0.1200000D+01 0.1871000D+02
EXPONENTS  0.4133000D+01 0.1200000D+01 0.1871000D+02 0.4133000D+01 0.1200000D+01
EXPONENTS  0.3827000D+00 0.3827000D+00 0.3827000D+00 0.1209000D+00 0.1209000D+00
EXPONENTS  0.1209000D+00 0.3569000D-01 0.3569000D-01 0.3569000D-01 0.1097000D+01
EXPONENTS  0.1097000D+01 0.1097000D+01 0.1097000D+01 0.1097000D+01 0.1097000D+01
EXPONENTS  0.3180000D+00 0.3180000D+00 0.3180000D+00 0.3180000D+00 0.3180000D+00
EXPONENTS  0.3180000D+00 0.1000000D+00 0.1000000D+00 0.1000000D+00 0.1000000D+00
EXPONENTS  0.1000000D+00 0.1000000D+00 0.7610000D+00 0.7610000D+00 0.7610000D+00
EXPONENTS  0.7610000D+00 0.7610000D+00 0.7610000D+00 0.7610000D+00 0.7610000D+00
EXPONENTS  0.7610000D+00 0.7610000D+00 0.2680000D+00 0.2680000D+00 0.2680000D+00
EXPONENTS  0.2680000D+00 0.2680000D+00 0.2680000D+00 0.2680000D+00 0.2680000D+00
EXPONENTS  0.2680000D+00 0.2680000D+00 0.3387000D+02 0.5095000D+01 0.1159000D+01
EXPONENTS  0.3258000D+00 0.1027000D+00 0.2526000D-01 0.1407000D+01 0.1407000D+01
EXPONENTS  0.1407000D+01 0.3880000D+00 0.3880000D+00 0.3880000D+00 0.1020000D+00
EXPONENTS  0.1020000D+00 0.1020000D+00 0.1057000D+01 0.1057000D+01 0.1057000D+01
EXPONENTS  0.1057000D+01 0.1057000D+01 0.1057000D+01 0.2470000D+00 0.2470000D+00
EXPONENTS  0.2470000D+00 0.2470000D+00 0.2470000D+00 0.2470000D+00 0.3387000D+02
EXPONENTS  0.5095000D+01 0.1159000D+01 0.3258000D+00 0.1027000D+00 0.2526000D-01
EXPONENTS  0.1407000D+01 0.1407000D+01 0.1407000D+01 0.3880000D+00 0.3880000D+00
EXPONENTS  0.3880000D+00 0.1020000D+00 0.1020000D+00 0.1020000D+00 0.1057000D+01
EXPONENTS  0.1057000D+01 0.1057000D+01 0.1057000D+01 0.1057000D+01 0.1057000D+01
EXPONENTS  0.2470000D+00 0.2470000D+00 0.2470000D+00 0.2470000D+00 0.2470000D+00
EXPONENTS  0.2470000D+00 0.3387000D+02 0.5095000D+01 0.1159000D+01 0.3258000D+00
EXPONENTS  0.1027000D+00 0.2526000D-01 0.1407000D+01 0.1407000D+01 0.1407000D+01
EXPONENTS  0.3880000D+00 0.3880000D+00 0.3880000D+00 0.1020000D+00 0.1020000D+00
EXPONENTS  0.1020000D+00 0.1057000D+01 0.1057000D+01 0.1057000D+01 0.1057000D+01
EXPONENTS  0.1057000D+01 0.1057000D+01 0.2470000D+00 0.2470000D+00 0.2470000D+00
EXPONENTS  0.2470000D+00 0.2470000D+00 0.2470000D+00 0.4561000D+06 0.6833000D+05
EXPONENTS  0.1555000D+05 0.4405000D+04 0.1439000D+04 0.5204000D+03 0.2031000D+03
EXPONENTS  0.8396000D+02 0.3620000D+02 0.1583000D+02 0.6334000D+01 0.4405000D+04
EXPONENTS  0.1439000D+04 0.5204000D+03 0.2031000D+03 0.8396000D+02 0.3620000D+02
EXPONENTS  0.1583000D+02 0.6334000D+01 0.2694000D+01 0.1439000D+04 0.2031000D+03
EXPONENTS  0.8396000D+02 0.3620000D+02 0.1583000D+02 0.6334000D+01 0.2694000D+01
EXPONENTS  0.4313000D+00 0.9768000D+00 0.1625000D+00 0.5910000D-01 0.6633000D+03
EXPONENTS  0.1568000D+03 0.4998000D+02 0.1842000D+02 0.7240000D+01 0.2922000D+01
EXPONENTS  0.6633000D+03 0.1568000D+03 0.4998000D+02 0.1842000D+02 0.7240000D+01
EXPONENTS  0.2922000D+01 0.6633000D+03 0.1568000D+03 0.4998000D+02 0.1842000D+02
EXPONENTS  0.7240000D+01 0.2922000D+01 0.1568000D+03 0.4998000D+02 0.1842000D+02
EXPONENTS  0.7240000D+01 0.2922000D+01 0.3818000D+00 0.1568000D+03 0.4998000D+02
EXPONENTS  0.1842000D+02 0.7240000D+01 0.2922000D+01 0.3818000D+00 0.1568000D+03
EXPONENTS  0.4998000D+02 0.1842000D+02 0.7240000D+01 0.2922000D+01 0.3818000D+00
EXPONENTS  0.1022000D+01 0.1022000D+01 0.1022000D+01 0.1301000D+00 0.1301000D+00
EXPONENTS  0.1301000D+00 0.4190000D-01 0.4190000D-01 0.4190000D-01 0.1046000D+01
EXPONENTS  0.1046000D+01 0.1046000D+01 0.1046000D+01 0.1046000D+01 0.1046000D+01
EXPONENTS  0.3440000D+00 0.3440000D+00 0.3440000D+00 0.3440000D+00 0.3440000D+00
EXPONENTS  0.3440000D+00 0.1350000D+00 0.1350000D+00 0.1350000D+00 0.1350000D+00
EXPONENTS  0.1350000D+00 0.1350000D+00 0.7060000D+00 0.7060000D+00 0.7060000D+00
EXPONENTS  0.7060000D+00 0.7060000D+00 0.7060000D+00 0.7060000D+00 0.7060000D+00
EXPONENTS  0.7060000D+00 0.7060000D+00 0.3120000D+00 0.3120000D+00 0.3120000D+00
EXPONENTS  0.3120000D+00 0.3120000D+00 0.3120000D+00 0.3120000D+00 0.3120000D+00
EXPONENTS  0.3120000D+00 0.3120000D+00 0.1950000D+05 0.2923000D+04 0.6645000D+03
EXPONENTS  0.1875000D+03 0.6062000D+02 0.2142000D+02 0.7950000D+01 0.6645000D+03
EXPONENTS  0.1875000D+03 0.6062000D+02 0.2142000D+02 0.7950000D+01 0.8815000D+00
EXPONENTS  0.2257000D+01 0.3041000D+00 0.9158000D-01 0.4388000D+02 0.9926000D+01
EXPONENTS  0.2930000D+01 0.4388000D+02 0.9926000D+01 0.2930000D+01 0.4388000D+02
EXPONENTS  0.9926000D+01 0.2930000D+01 0.9132000D+00 0.9132000D+00 0.9132000D+00
EXPONENTS  0.2672000D+00 0.2672000D+00 0.2672000D+00 0.7361000D-01 0.7361000D-01
EXPONENTS  0.7361000D-01 0.3107000D+01 0.3107000D+01 0.3107000D+01 0.3107000D+01
EXPONENTS  0.3107000D+01 0.3107000D+01 0.8550000D+00 0.8550000D+00 0.8550000D+00
EXPONENTS  0.8550000D+00 0.8550000D+00 0.8550000D+00 0.2920000D+00 0.2920000D+00
EXPONENTS  0.2920000D+00 0.2920000D+00 0.2920000D+00 0.2920000D+00 0.1917000D+01
EXPONENTS  0.1917000D+01 0.1917000D+01 0.1917000D+01 0.1917000D+01 0.1917000D+01
EXPONENTS  0.1917000D+01 0.1917000D+01 0.1917000D+01 0.1917000D+01 0.7240000D+00
EXPONENTS  0.7240000D+00 0.7240000D+00 0.7240000D+00 0.7240000D+00 0.7240000D+00
EXPONENTS  0.7240000D+00 0.7240000D+00 0.7240000D+00 0.7240000D+00
MO    1     MO 0.0        OCC NO =    2.0000300  ORB. ENERGY =    0.000000
 -0.25170010D-05 -0.46921969D-05 -0.79304521D-05 -0.11920949D-04 -0.14642750D-04
 -0.12357965D-04 -0.46469174D-05  0.41611839D-08  0.31102272D-07  0.11623629D-06
  0.32428115D-06  0.43444734D-06 -0.51300130D-06 -0.83270071D-06  0.35727221D-05
  0.14912043D-05  0.78958568D-04  0.74028676D-04  0.52712827D-04  0.78120977D-04
  0.73243382D-04  0.52153651D-04 -0.20700536D-05 -0.19408068D-05 -0.13819701D-05
  0.25753535D-03  0.25479462D-03  0.91649723D-06  0.32899630D-03  0.32549639D-03
 -0.15397983D-05  0.65974125D-05  0.65259700D-05 -0.19658810D-07  0.45279720D-04
 -0.44789271D-04 -0.49044914D-06  0.90666485D-04 -0.36259136D-03 -0.35869743D-03
  0.13668690D-03 -0.13614786D-03 -0.53904268D-06  0.27561066D-03  0.70044006D-04
  0.69564681D-04  0.28776187D-04 -0.29109355D-04  0.33316741D-06  0.58416121D-04
 -0.46805580D-04 -0.46248655D-04  0.65709501D-04  0.64894387D-04  0.55877253D-06
  0.65823062D-04  0.65424782D-04  0.17116373D-04 -0.26295156D-03 -0.26010794D-03
 -0.18792691D-04  0.35672361D-04 -0.19036912D-04 -0.18941035D-04 -0.33085544D-06
 -0.18666910D-04 -0.18195444D-04  0.35982263D-04  0.75777646D-04  0.75018550D-04
 -0.34989697D-04  0.71838508D-04 -0.28065829D-04 -0.50617879D-04 -0.74636033D-04
  0.25521517D-03  0.79082234D-03 -0.86797135D-05  0.32556514D-05  0.49938990D-04
  0.16823540D-04  0.59005784D-04  0.20169024D-03  0.19063138D-03  0.53794703D-04
  0.12138324D-03  0.15774296D-04 -0.76917775D-04  0.29531360D-04  0.47386415D-04
  0.21719121D-04 -0.33415217D-04  0.21015764D-03 -0.30517471D-04 -0.82965476D-05
  0.38814019D-04  0.20610629D-04  0.43437692D-04  0.21735572D-04 -0.10488188D-04
 -0.18915879D-04 -0.27891453D-04  0.94252332D-04  0.29657055D-03 -0.32915006D-05
  0.18209670D-04 -0.55913513D-05  0.64027849D-05  0.10567877D-03  0.32540250D-04
  0.71124997D-04  0.75917710D-04  0.40381782D-04  0.58387011D-05  0.14000926D-04
 -0.31752045D-04  0.17751119D-04 -0.19360827D-04  0.45488055D-04 -0.78883466D-04
  0.69516440D-05 -0.21380248D-04  0.14428604D-04  0.67240729D-05  0.36499472D-04
  0.47261412D-04  0.38745340D-04  0.69878817D-04  0.10303627D-03 -0.35663336D-03
 -0.10875869D-02  0.11782088D-04  0.59437974D-04  0.35680217D-04 -0.22880559D-04
  0.23097817D-03  0.15721929D-03 -0.26371095D-03  0.13487514D-03  0.10003234D-03
 -0.22076355D-04 -0.71984132D-06  0.66422028D-04 -0.65702187D-04 -0.13127949D-03
  0.25603193D-03  0.13390336D-03  0.22476221D-04  0.31348201D-04 -0.53824421D-04
 -0.30035726D-04  0.18626477D-04  0.28515102D-04 -0.31147272D-04 -0.58273222D-04
 -0.10068320D-03 -0.16321930D-03 -0.24786417D-03 -0.34450787D-03 -0.40959347D-03
 -0.36488009D-03 -0.18120717D-03 -0.29172821D-04 -0.30779049D-06 -0.14631626D-06
 -0.48808656D-05 -0.17008839D-04 -0.61251585D-04 -0.13502150D-03 -0.19006669D-03
  0.90668005D-05  0.24873527D-03  0.14707561D-03 -0.26851890D-08 -0.32524196D-07
 -0.67825782D-07 -0.19451254D-06 -0.10100765D-07  0.83883239D-06  0.21673818D-05
 -0.17658807D-05  0.88807579D-05 -0.95137972D-06 -0.25125092D-06  0.82535530D+01
  0.10871860D+02  0.11993363D+02  0.99614274D+01  0.52897944D+01  0.13647946D+01
  0.81662783D+01  0.10756899D+02  0.11866543D+02  0.98560933D+01  0.52338590D+01
  0.13503630D+01 -0.95065067D-02 -0.12522293D-01 -0.13814050D-01 -0.11473650D-01
 -0.60928264D-02 -0.15719811D-02 -0.32664288D-03  0.31577732D-02  0.44527898D-02
  0.63686674D-02 -0.32250035D-04 -0.58406687D-02 -0.32318815D-03  0.31243751D-02
  0.44056951D-02  0.63013094D-02 -0.31908944D-04 -0.57788950D-02  0.35296212D-06
 -0.34122107D-05 -0.48115733D-05 -0.68818226D-05  0.34848581D-07  0.63112804D-05
  0.54488577D-01  0.53912387D-01 -0.62690515D-04 -0.45758981D-03 -0.45275719D-03
  0.49401877D-06 -0.41202949D-04 -0.40767406D-04  0.72222680D-07  0.82156001D-05
 -0.91538112D-05  0.93821113D-06  0.16941956D-04 -0.69701980D-03 -0.68961509D-03
 -0.30285576D-05  0.31450797D-05 -0.11652212D-06 -0.60154761D-05  0.25301060D-03
  0.25031641D-03  0.87328887D-06 -0.95233493D-06  0.79046060D-07  0.18050060D-05
 -0.43367907D-04 -0.42904993D-04  0.16751908D-05  0.16587672D-05 -0.54842175D-07
  0.16795554D-05  0.16139087D-05  0.24799107D-04 -0.67051278D-05 -0.65902104D-05
 -0.24634581D-04  0.49904227D-04  0.10412858D-04  0.10298337D-04  0.11245223D-07
  0.10410783D-04  0.10319175D-04 -0.50591374D-05 -0.41649359D-04 -0.41214185D-04
  0.50254017D-05 -0.10273246D-04  0.39517772D-05  0.73661194D-05  0.12487213D-04
  0.18907330D-04  0.23638327D-04  0.20333200D-04  0.77982198D-05 -0.71179431D-08
 -0.94228239D-07 -0.34225411D-06 -0.10152904D-05 -0.11699171D-05  0.14210386D-05
  0.15146457D-06 -0.24088084D-05 -0.27236041D-05 -0.20697478D-03 -0.20241682D-03
 -0.13374535D-03 -0.20481799D-03 -0.20030752D-03 -0.13235165D-03 -0.47432224D-05
 -0.46387679D-05 -0.30650301D-05 -0.69408117D-05 -0.68851217D-05  0.65670090D-06
 -0.46801171D-04 -0.46306753D-04 -0.29605544D-05 -0.13883803D-04 -0.13738866D-04
 -0.37711218D-06  0.49672336D-04 -0.50449918D-04  0.77758236D-06  0.10102327D-03
 -0.93584646D-04 -0.92491865D-04 -0.25119381D-04  0.25281295D-04 -0.16191381D-06
 -0.50828107D-04  0.71994599D-04  0.71180344D-04  0.13158439D-04 -0.12531110D-04
 -0.62732848D-06  0.25890393D-04 -0.51996714D-04 -0.51418883D-04 -0.49258420D-04
 -0.49380548D-04  0.11109347D-05 -0.51948576D-04 -0.49167434D-04 -0.13631736D-03
  0.19972384D-03  0.19730908D-03  0.13298455D-03 -0.27144800D-03  0.17523695D-04
  0.17532694D-04 -0.52579389D-06  0.18352823D-04  0.17481224D-04  0.43611424D-04
 -0.70923909D-04 -0.70079307D-04 -0.42034042D-04  0.86308210D-04
MO    2     MO 0.0        OCC NO =    2.0000300  ORB. ENERGY =    0.000000
 -0.24486378D-05 -0.45647541D-05 -0.77150564D-05 -0.11597169D-04 -0.14245045D-04
 -0.12022315D-04 -0.45207044D-05  0.41279145D-08  0.30853604D-07  0.11530696D-06
  0.32168847D-06  0.43097386D-06 -0.50889977D-06 -0.81856528D-06  0.35373451D-05
  0.14823043D-05  0.78101881D-04  0.73225478D-04  0.52140903D-04 -0.78935583D-04
 -0.74007127D-04 -0.52697483D-04 -0.19874659D-05 -0.18633756D-05 -0.13268344D-05
  0.25598852D-03 -0.25870590D-03  0.11436564D-05  0.32668969D-03 -0.33016098D-03
 -0.12622543D-05  0.66093028D-05 -0.66782516D-05 -0.14124315D-07 -0.45741121D-04
  0.46547954D-04 -0.80683283D-06  0.91090429D-04 -0.35837331D-03  0.36213999D-03
 -0.13783335D-03  0.13830529D-03 -0.47194380D-06  0.27349599D-03  0.68094473D-04
 -0.69088098D-04 -0.29348994D-04  0.29060247D-04  0.28874777D-06  0.57792321D-04
 -0.46816957D-04  0.47255516D-04  0.65458480D-04 -0.66248276D-04  0.32707558D-06
  0.65376264D-04 -0.65743691D-04 -0.18079166D-04 -0.26175170D-03  0.26448852D-03
  0.17097939D-04  0.34240852D-04 -0.18875916D-04  0.19000164D-04 -0.26292650D-06
 -0.19187112D-04  0.19668592D-04 -0.35327708D-04  0.75814859D-04 -0.76669083D-04
  0.36116488D-04  0.70905282D-04  0.28636493D-04  0.51647095D-04  0.76153611D-04
 -0.26444485D-03 -0.80039131D-03  0.84579279D-05  0.31484703D-05 -0.51571299D-04
 -0.17271419D-04  0.59019367D-04 -0.20637736D-03 -0.19236417D-03  0.52988063D-04
 -0.12259686D-03 -0.15643672D-04  0.79110132D-04 -0.30798346D-04 -0.48311785D-04
  0.21394266D-04 -0.32860565D-04 -0.21090015D-03  0.31005889D-04  0.86712725D-05
 -0.39677162D-04  0.20412142D-04  0.43209137D-04 -0.22421553D-04 -0.38712026D-04
 -0.69818734D-04 -0.10294768D-03  0.35332339D-03  0.10860558D-02 -0.11622670D-04
  0.59476882D-04 -0.35659229D-04  0.23791347D-04  0.23000013D-03 -0.15858810D-03
  0.25984122D-03  0.13419583D-03 -0.10043630D-03  0.21063990D-04  0.78056874D-06
 -0.66172174D-04  0.65391606D-04 -0.13216415D-03  0.25426445D-03 -0.13240001D-03
 -0.22438086D-04 -0.31021837D-04  0.53459923D-04 -0.30138971D-04  0.17681441D-04
 -0.28909371D-04  0.10268807D-04  0.18520217D-04  0.27308049D-04 -0.95974335D-04
 -0.28585622D-03  0.29766340D-05  0.18347959D-04  0.54123513D-05 -0.60979547D-05
  0.10425279D-03 -0.32482081D-04 -0.69066599D-04  0.74353532D-04 -0.41307331D-04
 -0.56552815D-05 -0.13760133D-04  0.31178430D-04 -0.17418297D-04 -0.19675642D-04
  0.42699680D-04  0.76468881D-04 -0.69993305D-05  0.21263168D-04 -0.14263838D-04
  0.71835521D-05  0.36656994D-04 -0.47251243D-04 -0.31012661D-04 -0.58021379D-04
 -0.10024807D-03 -0.16251391D-03 -0.24679296D-03 -0.34301900D-03 -0.40782330D-03
 -0.36330317D-03 -0.18042404D-03 -0.29046744D-04 -0.30646030D-06 -0.14567899D-06
 -0.48596073D-05 -0.16934759D-04 -0.60984808D-04 -0.13443342D-03 -0.18923887D-03
  0.90273107D-05  0.24765192D-03  0.14643503D-03 -0.26804156D-08 -0.32466379D-07
 -0.67705211D-07 -0.19416676D-06 -0.10082809D-07  0.83734122D-06  0.21635289D-05
 -0.17627415D-05  0.88426553D-05 -0.93205683D-06 -0.24638297D-06  0.81662766D+01
  0.10756897D+02  0.11866541D+02  0.98560913D+01  0.52338580D+01  0.13503627D+01
 -0.82535545D+01 -0.10871862D+02 -0.11993366D+02 -0.99614292D+01 -0.52897954D+01
 -0.13647948D+01 -0.22921192D-02 -0.30192572D-02 -0.33307133D-02 -0.27664182D-02
 -0.14690448D-02 -0.37902124D-03 -0.32321485D-03  0.31246332D-02  0.44060590D-02
  0.63018299D-02 -0.31911579D-04 -0.57793724D-02  0.32666847D-03 -0.31580206D-02
 -0.44531387D-02 -0.63691664D-02  0.32252562D-04  0.58411263D-02  0.67359912D-07
 -0.65119229D-06 -0.91824910D-06 -0.13133391D-05  0.66505645D-08  0.12044558D-05
  0.53913348D-01 -0.54489535D-01 -0.15058986D-04 -0.45251722D-03  0.45735958D-03
  0.90018172D-07 -0.40762293D-04  0.41198111D-04  0.35985839D-07 -0.93205634D-05
  0.89916841D-05  0.32887930D-06  0.17537989D-04 -0.69039237D-03  0.69773690D-03
  0.31234117D-05 -0.32270334D-05  0.10362170D-06 -0.60703454D-05  0.25093080D-03
 -0.25359338D-03 -0.90944668D-06  0.86843453D-06  0.41012152D-07  0.17220000D-05
 -0.43004337D-04  0.43459770D-04  0.16540556D-05 -0.16492964D-05 -0.60820732D-07
  0.16927721D-05 -0.17337454D-05 -0.24667385D-04 -0.66549390D-05  0.66816346D-05
  0.24849848D-04  0.49011615D-04  0.10344788D-04 -0.10462021D-04 -0.24476000D-07
  0.10338098D-04 -0.10433643D-04  0.50442909D-05 -0.41372462D-04  0.41819705D-04
 -0.49708629D-05 -0.10005045D-04  0.39251912D-05  0.73165631D-05  0.12403204D-04
  0.18780129D-04  0.23479298D-04  0.20196406D-04  0.77457565D-05 -0.71592464D-08
 -0.94775017D-07 -0.34424011D-06 -0.10211818D-05 -0.11767058D-05  0.14292844D-05
  0.14966114D-06 -0.24204833D-05 -0.27125296D-05 -0.20462958D-03 -0.20012326D-03
 -0.13222990D-03  0.20684419D-03  0.20228910D-03  0.13366096D-03 -0.48711157D-05
 -0.47638447D-05 -0.31476736D-05 -0.51982847D-05  0.52722670D-05  0.65796751D-06
 -0.47603535D-04  0.48110217D-04 -0.30088094D-05 -0.13768072D-04  0.13916762D-04
 -0.38741515D-06 -0.50530905D-04  0.49827993D-04  0.70291126D-06  0.99281698D-04
 -0.93526228D-04  0.94423764D-04  0.25144378D-04 -0.25042560D-04 -0.10181858D-06
 -0.49621813D-04  0.71993150D-04 -0.72709868D-04 -0.12278843D-04  0.12958286D-04
 -0.67944282D-06  0.24934739D-04 -0.52758681D-04  0.53293214D-04 -0.51795003D-04
  0.51557794D-04  0.13200125D-05 -0.49365572D-04  0.51961110D-04  0.12992921D-03
  0.20475058D-03 -0.20663449D-03 -0.13388925D-03 -0.26069681D-03  0.18364872D-04
 -0.18321032D-04 -0.60062994D-06  0.17619468D-04 -0.18432402D-04 -0.40901332D-04
 -0.72714084D-04  0.73395497D-04  0.42703222D-04  0.82594404D-04
MO    3     MO 0.0        OCC NO =    2.0000210  ORB. ENERGY =    0.000000
 -0.14454649D-01 -0.26946378D-01 -0.45543051D-01 -0.68459699D-01 -0.84090479D-01
 -0.70969398D-01 -0.26686347D-01 -0.38142865D-05 -0.28509428D-04 -0.10654624D-03
 -0.29724743D-03 -0.39822960D-03  0.47023491D-03 -0.87196935D-03 -0.19345641D-02
 -0.82091202D-04  0.27434839D-06  0.25721906D-06  0.18315529D-06  0.50715783D-06
  0.47549270D-06  0.33857913D-06  0.11672531D-02  0.10943740D-02  0.77925947D-03
 -0.12430721D-06  0.26542032D-06  0.60719288D-03  0.78761665D-06 -0.16814634D-06
 -0.37921905D-03 -0.51445127D-08  0.18520825D-08  0.46684994D-05 -0.10555842D-03
 -0.10555995D-03  0.21111837D-03 -0.64708280D-07  0.60688835D-06  0.27144687D-06
 -0.24079902D-04 -0.24080720D-04  0.48160622D-04  0.39199812D-06 -0.12603101D-05
  0.66736659D-07  0.11426011D-04  0.11426815D-04 -0.22852826D-04  0.10488047D-06
  0.60489960D-08 -0.30415823D-07  0.65894405D-07  0.36270313D-04  0.77208808D-05
  0.12107948D-06 -0.10882996D-03 -0.11534957D-04 -0.31876270D-06  0.19025185D-07
 -0.11627686D-04 -0.44173633D-06 -0.13509829D-06  0.51881561D-04 -0.85670143D-04
 -0.56104581D-07 -0.15541987D-03  0.12857333D-03  0.46139945D-06 -0.22481494D-06
  0.12843709D-03 -0.32318656D-06 -0.48284832D-05 -0.87083683D-05 -0.12840484D-04
  0.75279801D-03  0.23596876D-03  0.50650188D-05 -0.41648745D-07  0.95868173D-04
  0.28429706D-04  0.33135959D-06  0.19934860D-03 -0.42496663D-05  0.15718553D-06
  0.44037907D-04  0.38735008D-04 -0.73923599D-04  0.54244352D-04  0.19679247D-04
  0.78886544D-07  0.33317471D-06  0.76007908D-04 -0.96546336D-05 -0.12044995D-04
  0.21699629D-04  0.10838747D-06 -0.95021188D-07 -0.34559423D-04 -0.48016566D-05
 -0.86599855D-05 -0.12769144D-04  0.75314782D-03  0.23754823D-03  0.50809555D-05
  0.83124614D-04 -0.48024245D-04  0.28394178D-04  0.17298961D-03 -0.99731877D-04
 -0.48218225D-05  0.38400460D-04 -0.22073537D-04  0.38736246D-04  0.22207582D-04
 -0.41980863D-04  0.19773280D-04 -0.11114104D-03  0.65552582D-04 -0.37589333D-04
 -0.11392361D-04 -0.10284778D-04  0.21677139D-04  0.20020086D-05 -0.30127275D-04
  0.17374359D-04 -0.48547701D-05 -0.87557778D-05 -0.12910389D-04  0.75245551D-03
  0.23440258D-03  0.50501953D-05 -0.82905463D-04 -0.47807288D-04  0.28591969D-04
 -0.17229299D-03 -0.99623973D-04 -0.34338693D-05 -0.37845627D-04 -0.21915287D-04
  0.38793573D-04  0.22143281D-04 -0.41836059D-04  0.19692778D-04  0.11073996D-03
 -0.66236973D-04 -0.38335992D-04 -0.11479136D-04 -0.10195985D-04  0.21675121D-04
 -0.20858295D-05  0.29785960D-04  0.17271599D-04 -0.15460226D+00 -0.28924433D+00
 -0.49975005D+00 -0.81015355D+00 -0.12302959D+01 -0.17099956D+01 -0.20330537D+01
 -0.18111149D+01 -0.89943795D+00 -0.14480190D+00 -0.15277456D-02 -0.72284049D-03
 -0.24112749D-01 -0.84028101D-01 -0.30259880D+00 -0.66704139D+00 -0.93897899D+00
  0.44792358D-01  0.12288171D+01  0.72659184D+00 -0.15531706D-04 -0.18812689D-03
 -0.39231879D-03 -0.11251020D-02 -0.58424979D-04  0.48519854D-02  0.12536598D-01
 -0.10214230D-01  0.46599940D-01 -0.38429265D-03 -0.13194705D-03  0.18555573D-02
  0.24442030D-02  0.26963386D-02  0.22395203D-02  0.11892474D-02  0.30683205D-03
  0.25952915D-02  0.34186061D-02  0.37712576D-02  0.31323247D-02  0.16633514D-02
  0.42915334D-03  0.59414268D+01  0.78262489D+01  0.86335777D+01  0.71708622D+01
  0.38079268D+01  0.98246503D+00 -0.56161069D-07  0.54292908D-06  0.76558668D-06
  0.10949915D-05 -0.55448827D-08 -0.10042105D-05 -0.92081891D-07  0.89018847D-06
  0.12552587D-05  0.17953520D-05 -0.90914096D-08 -0.16465071D-05 -0.21079788D-03
  0.20378583D-02  0.28735929D-02  0.41099980D-02 -0.20812451D-04 -0.37692558D-02
  0.13355343D-04  0.18193232D-04  0.41654218D-01 -0.24986778D-06 -0.21054286D-06
 -0.48396211D-03  0.20101363D-08 -0.43069469D-08 -0.98426764D-05 -0.71303059D-05
 -0.71297499D-05  0.14260056D-04 -0.14248034D-06  0.13945731D-06  0.19412024D-07
 -0.11142281D-03 -0.11142309D-03  0.22284590D-03  0.44055994D-07  0.35149541D-06
  0.29066306D-06 -0.14325446D-04 -0.14325395D-04  0.28650841D-04  0.17798974D-08
  0.13389417D-06  0.37047713D-07 -0.76691039D-07 -0.72133824D-05  0.54459831D-05
 -0.87631811D-07  0.21626981D-04 -0.81784155D-05  0.31770493D-06  0.13165862D-07
 -0.81595337D-05  0.15293111D-06  0.65188062D-07  0.20731542D-05 -0.33741229D-04
  0.68281577D-07 -0.61319139D-05  0.50614521D-04 -0.26384576D-06 -0.87548651D-07
  0.50609165D-04 -0.87032797D-07 -0.87947414D-03 -0.16393413D-02 -0.27790487D-02
 -0.42078556D-02 -0.52607463D-02 -0.45251852D-02 -0.17355059D-02 -0.68421565D-06
 -0.90577341D-05 -0.32899338D-04 -0.97595267D-04 -0.11245883D-03  0.13659800D-03
 -0.95964843D-04 -0.15938908D-03  0.12434840D-04 -0.21425321D-04 -0.20953496D-04
 -0.13844860D-04  0.17931654D-05  0.17536766D-05  0.11587283D-05  0.39018222D-02
  0.38158969D-02  0.25213244D-02 -0.55960849D-05  0.40391845D-06  0.87918141D-03
  0.34896851D-06  0.91211246D-08  0.21397230D-04 -0.10393688D-06  0.47938588D-08
  0.93385307D-05 -0.35638310D-04 -0.35640618D-04  0.71278928D-04  0.75731788D-06
 -0.11615781D-05  0.10819705D-06  0.21092881D-04  0.21093217D-04 -0.42186097D-04
 -0.33452280D-06  0.45367296D-06 -0.61853201D-07  0.18113512D-04  0.18117702D-04
 -0.36231214D-04  0.68071853D-07  0.11241165D-05 -0.50713560D-07  0.12950722D-05
 -0.30063621D-05  0.46405525D-04  0.12913093D-05  0.88682101D-05 -0.69584290D-04
 -0.51765259D-05  0.15087635D-06 -0.69632286D-04  0.13841874D-05 -0.53708981D-06
  0.95518599D-06 -0.25387507D-04 -0.53592093D-06 -0.27874041D-05  0.38071509D-04
  0.21471903D-05 -0.78153849D-07  0.38091013D-04 -0.45208469D-06
MO    4     MO 0.0        OCC NO =    2.0000123  ORB. ENERGY =    0.000000
  0.26825035D-01  0.50007270D-01  0.84519099D-01  0.12704797D+00  0.15605568D+00
  0.13170548D+00  0.49524702D-01 -0.14574022D-05 -0.10893179D-04 -0.40710296D-04
 -0.11357539D-03 -0.15215971D-03  0.17967224D-03  0.26462167D-02 -0.36110766D-02
 -0.42307511D-04 -0.28427941D-05 -0.26653002D-05 -0.18978525D-05  0.15992090D-05
  0.14993601D-05  0.10676337D-05  0.36697317D-02  0.34406068D-02  0.24499170D-02
  0.15941638D-05  0.57148888D-06  0.13052327D-02  0.85252016D-06 -0.18161488D-06
 -0.41705163D-03  0.20493779D-07  0.14045802D-08  0.37028126D-05 -0.31918235D-03
 -0.31919328D-03  0.63837563D-03  0.42135367D-07  0.14594607D-06  0.83653563D-06
  0.95945874D-05  0.95966375D-05 -0.19191225D-04  0.13938158D-05 -0.14361283D-05
 -0.31271084D-07 -0.17856815D-04 -0.17856095D-04  0.35712910D-04  0.52129072D-07
 -0.42183724D-06  0.47879743D-07  0.24652256D-06 -0.42204270D-04  0.22565881D-04
  0.18205079D-06  0.12655912D-03 -0.33908497D-04 -0.92161846D-06  0.53690614D-07
 -0.33789146D-04 -0.16059711D-06 -0.11869323D-06  0.82087115D-04 -0.16373343D-03
  0.62468311D-08 -0.24583617D-03  0.24570748D-03  0.34983285D-06 -0.42517863D-06
  0.24549282D-03 -0.55114573D-06 -0.90319119D-04 -0.16289425D-03 -0.24018748D-03
  0.10231136D-02  0.68432492D-03  0.42693407D-05 -0.12200938D-06 -0.57754029D-04
  0.33549716D-04  0.53028080D-06  0.30467963D-03 -0.43220246D-04  0.84605296D-07
  0.11106022D-03  0.75812483D-04 -0.14239683D-03  0.24269521D-04  0.11812731D-03
  0.58890300D-07  0.39128748D-07  0.14267008D-03 -0.14796783D-04 -0.21044029D-04
  0.35840812D-04  0.15581029D-06 -0.22858420D-07 -0.62802031D-04 -0.90249186D-04
 -0.16276812D-03 -0.24000150D-03  0.10255693D-02  0.68519430D-03  0.43729823D-05
 -0.49636639D-04  0.28614776D-04  0.33643098D-04  0.26502102D-03 -0.15279392D-03
 -0.43722605D-04  0.96301733D-04 -0.55543977D-04  0.75902615D-04 -0.17474004D-04
 -0.10108571D-03  0.11855971D-03 -0.14478854D-03  0.12317429D-03 -0.70892426D-04
 -0.19329104D-04 -0.16322070D-04  0.35651174D-04  0.53204058D-05 -0.54329704D-04
  0.31411965D-04 -0.90385996D-04 -0.16301487D-03 -0.24036533D-03  0.10206634D-02
  0.68345583D-03  0.41669331D-05  0.50417982D-04  0.29181202D-04  0.33387617D-04
 -0.26271479D-03 -0.15194001D-03 -0.42317157D-04 -0.95999274D-04 -0.55418142D-04
  0.75868955D-04 -0.17427894D-04 -0.10046982D-03  0.11789771D-03  0.14366452D-03
 -0.12393353D-03 -0.71314546D-04 -0.19594566D-04 -0.16351965D-04  0.35946531D-04
 -0.54071083D-05  0.54531090D-04  0.31527071D-04  0.91314230D-01  0.17083918D+00
  0.29517221D+00  0.47850883D+00  0.72666158D+00  0.10099912D+01  0.12008022D+01
  0.10697163D+01  0.53124374D+00  0.85525748D-01  0.90234716D-03  0.42753193D-03
  0.14261750D-01  0.49699342D-01  0.17897538D+00  0.39452895D+00  0.55536942D+00
 -0.26492932D-01 -0.72679734D+00 -0.42975072D+00  0.62779507D-05  0.76041314D-04
  0.15857614D-03  0.45476877D-03  0.23615509D-04 -0.19611835D-02 -0.50673215D-02
  0.41286150D-02 -0.28545242D-01  0.14183056D-02 -0.18170625D-03  0.85941510D-02
  0.11320507D-01  0.12488292D-01  0.10372504D-01  0.55080875D-02  0.14211154D-02
  0.43137915D-02  0.56822726D-02  0.62684361D-02  0.52064270D-02  0.27647572D-02
  0.71332181D-03  0.99146292D+01  0.13059886D+02  0.14407099D+02  0.11966223D+02
  0.63543967D+01  0.16394676D+01 -0.27015925D-06  0.26117258D-05  0.36828060D-05
  0.52673869D-05 -0.26673306D-07 -0.48306905D-05 -0.14652586D-06  0.14165177D-05
  0.19974378D-05  0.28568645D-05 -0.14466760D-07 -0.26200142D-05 -0.33686726D-03
  0.32566160D-02  0.45921685D-02  0.65680157D-02 -0.33259507D-04 -0.60234898D-02
  0.62219348D-04  0.31569004D-04  0.72557305D-01  0.43498785D-07 -0.13562897D-06
 -0.30643783D-03  0.83444831D-08 -0.17495195D-08 -0.39587491D-05  0.45444668D-03
  0.45444737D-03 -0.90889406D-03 -0.17011811D-06 -0.19981177D-05 -0.11873873D-05
 -0.30966908D-03 -0.30966948D-03  0.61933855D-03  0.59230171D-07  0.11076474D-05
  0.80945597D-06  0.43301270D-05  0.43302699D-05 -0.86603969D-05 -0.12935635D-07
 -0.98097384D-07 -0.10302202D-07 -0.41081995D-07 -0.14494788D-04 -0.46949461D-04
 -0.63286856D-07  0.43605429D-04  0.70405130D-04  0.18653284D-06 -0.12106457D-06
  0.70443252D-04 -0.68472614D-07  0.68797108D-07  0.42138057D-05 -0.62582991D-04
  0.75161070D-07 -0.12476884D-04  0.93879948D-04 -0.28155239D-06 -0.16453292D-06
  0.93869024D-04 -0.14084340D-07 -0.63570721D-02 -0.11849593D-01 -0.20087700D-01