 title line
GAUSSIAN            211 MOL ORBITALS    339 PRIMITIVES        6 NUCLEI
  C    1    (CENTRE  1)   0.00033070  0.00005480 -0.92163644  CHARGE =  6.0
  H    2    (CENTRE  2)   0.00003590 -1.98906904 -1.17300214  CHARGE =  1.0
  H    3    (CENTRE  3)  -1.72213010  0.99468570 -1.17398291  CHARGE =  1.0
  H    4    (CENTRE  4)   1.72295780  0.99424539 -1.17459707  CHARGE =  1.0
  Cl   5    (CENTRE  5)   0.00104880  0.00181792  3.10806659  CHARGE = 17.0
  F    6    (CENTRE  6)  -0.00035149 -0.00174044 -4.90092914  CHARGE =  9.0
CENTRE ASSIGNMENTS    1  1  1  1  1  1  1  1  1  1  1  1  1  1  1  1  1  1  1  1
CENTRE ASSIGNMENTS    1  1  1  1  1  1  1  1  1  1  1  1  1  1  1  1  1  1  1  1
CENTRE ASSIGNMENTS    1  1  1  1  1  1  1  1  1  1  1  1  1  1  1  1  1  1  1  1
CENTRE ASSIGNMENTS    1  1  1  1  1  1  1  1  1  1  1  1  2  2  2  2  2  2  2  2
CENTRE ASSIGNMENTS    2  2  2  2  2  2  2  2  2  2  2  2  2  2  2  2  2  2  2  3
CENTRE ASSIGNMENTS    3  3  3  3  3  3  3  3  3  3  3  3  3  3  3  3  3  3  3  3
CENTRE ASSIGNMENTS    3  3  3  3  3  3  4  4  4  4  4  4  4  4  4  4  4  4  4  4
CENTRE ASSIGNMENTS    4  4  4  4  4  4  4  4  4  4  4  4  4  5  5  5  5  5  5  5
CENTRE ASSIGNMENTS    5  5  5  5  5  5  5  5  5  5  5  5  5  5  5  5  5  5  5  5
CENTRE ASSIGNMENTS    5  5  5  5  5  5  5  5  5  5  5  5  5  5  5  5  5  5  5  5
CENTRE ASSIGNMENTS    5  5  5  5  5  5  5  5  5  5  5  5  5  5  5  5  5  5  5  5
CENTRE ASSIGNMENTS    5  5  5  5  5  5  5  5  5  5  5  5  5  5  5  5  5  5  5  5
CENTRE ASSIGNMENTS    5  5  5  5  5  5  5  5  5  5  5  5  5  5  5  5  5  5  5  5
CENTRE ASSIGNMENTS    5  5  5  5  5  5  5  6  6  6  6  6  6  6  6  6  6  6  6  6
CENTRE ASSIGNMENTS    6  6  6  6  6  6  6  6  6  6  6  6  6  6  6  6  6  6  6  6
CENTRE ASSIGNMENTS    6  6  6  6  6  6  6  6  6  6  6  6  6  6  6  6  6  6  6  6
CENTRE ASSIGNMENTS    6  6  6  6  6  6  6  6  6  6  6  6  6  6  6  6  6  6  6
TYPE ASSIGNMENTS      1  1  1  1  1  1  1  1  1  1  1  1  1  1  1  1  2  2  2  3
TYPE ASSIGNMENTS      3  3  4  4  4  2  3  4  2  3  4  2  3  4  5  6  7  8  9 10
TYPE ASSIGNMENTS      5  6  7  8  9 10  5  6  7  8  9 10 11 12 13 17 14 15 18 19
TYPE ASSIGNMENTS     16 20 11 12 13 17 14 15 18 19 16 20  1  1  1  1  1  1  2  3
TYPE ASSIGNMENTS      4  2  3  4  2  3  4  5  6  7  8  9 10  5  6  7  8  9 10  1
TYPE ASSIGNMENTS      1  1  1  1  1  2  3  4  2  3  4  2  3  4  5  6  7  8  9 10
TYPE ASSIGNMENTS      5  6  7  8  9 10  1  1  1  1  1  1  2  3  4  2  3  4  2  3
TYPE ASSIGNMENTS      4  5  6  7  8  9 10  5  6  7  8  9 10  1  1  1  1  1  1  1
TYPE ASSIGNMENTS      1  1  1  1  1  1  1  1  1  1  1  1  1  1  1  1  1  1  1  1
TYPE ASSIGNMENTS      1  1  1  1  2  2  2  2  2  2  3  3  3  3  3  3  4  4  4  4
TYPE ASSIGNMENTS      4  4  2  2  2  2  2  2  3  3  3  3  3  3  4  4  4  4  4  4
TYPE ASSIGNMENTS      2  3  4  2  3  4  2  3  4  5  6  7  8  9 10  5  6  7  8  9
TYPE ASSIGNMENTS     10  5  6  7  8  9 10 11 12 13 17 14 15 18 19 16 20 11 12 13
TYPE ASSIGNMENTS     17 14 15 18 19 16 20  1  1  1  1  1  1  1  1  1  1  1  1  1
TYPE ASSIGNMENTS      1  1  1  2  2  2  3  3  3  4  4  4  2  3  4  2  3  4  2  3
TYPE ASSIGNMENTS      4  5  6  7  8  9 10  5  6  7  8  9 10  5  6  7  8  9 10 11
TYPE ASSIGNMENTS     12 13 17 14 15 18 19 16 20 11 12 13 17 14 15 18 19 16 20
EXPONENTS  0.8236000D+04 0.1235000D+04 0.2808000D+03 0.7927000D+02 0.2559000D+02
EXPONENTS  0.8997000D+01 0.3319000D+01 0.2808000D+03 0.7927000D+02 0.2559000D+02
EXPONENTS  0.8997000D+01 0.3319000D+01 0.3643000D+00 0.9059000D+00 0.1285000D+00
EXPONENTS  0.4402000D-01 0.1871000D+02 0.4133000D+01 0.1200000D+01 0.1871000D+02
EXPONENTS  0.4133000D+01 0.1200000D+01 0.1871000D+02 0.4133000D+01 0.1200000D+01
EXPONENTS  0.3827000D+00 0.3827000D+00 0.3827000D+00 0.1209000D+00 0.1209000D+00
EXPONENTS  0.1209000D+00 0.3569000D-01 0.3569000D-01 0.3569000D-01 0.1097000D+01
EXPONENTS  0.1097000D+01 0.1097000D+01 0.1097000D+01 0.1097000D+01 0.1097000D+01
EXPONENTS  0.3180000D+00 0.3180000D+00 0.3180000D+00 0.3180000D+00 0.3180000D+00
EXPONENTS  0.3180000D+00 0.1000000D+00 0.1000000D+00 0.1000000D+00 0.1000000D+00
EXPONENTS  0.1000000D+00 0.1000000D+00 0.7610000D+00 0.7610000D+00 0.7610000D+00
EXPONENTS  0.7610000D+00 0.7610000D+00 0.7610000D+00 0.7610000D+00 0.7610000D+00
EXPONENTS  0.7610000D+00 0.7610000D+00 0.2680000D+00 0.2680000D+00 0.2680000D+00
EXPONENTS  0.2680000D+00 0.2680000D+00 0.2680000D+00 0.2680000D+00 0.2680000D+00
EXPONENTS  0.2680000D+00 0.2680000D+00 0.3387000D+02 0.5095000D+01 0.1159000D+01
EXPONENTS  0.3258000D+00 0.1027000D+00 0.2526000D-01 0.1407000D+01 0.1407000D+01
EXPONENTS  0.1407000D+01 0.3880000D+00 0.3880000D+00 0.3880000D+00 0.1020000D+00
EXPONENTS  0.1020000D+00 0.1020000D+00 0.1057000D+01 0.1057000D+01 0.1057000D+01
EXPONENTS  0.1057000D+01 0.1057000D+01 0.1057000D+01 0.2470000D+00 0.2470000D+00
EXPONENTS  0.2470000D+00 0.2470000D+00 0.2470000D+00 0.2470000D+00 0.3387000D+02
EXPONENTS  0.5095000D+01 0.1159000D+01 0.3258000D+00 0.1027000D+00 0.2526000D-01
EXPONENTS  0.1407000D+01 0.1407000D+01 0.1407000D+01 0.3880000D+00 0.3880000D+00
EXPONENTS  0.3880000D+00 0.1020000D+00 0.1020000D+00 0.1020000D+00 0.1057000D+01
EXPONENTS  0.1057000D+01 0.1057000D+01 0.1057000D+01 0.1057000D+01 0.1057000D+01
EXPONENTS  0.2470000D+00 0.2470000D+00 0.2470000D+00 0.2470000D+00 0.2470000D+00
EXPONENTS  0.2470000D+00 0.3387000D+02 0.5095000D+01 0.1159000D+01 0.3258000D+00
EXPONENTS  0.1027000D+00 0.2526000D-01 0.1407000D+01 0.1407000D+01 0.1407000D+01
EXPONENTS  0.3880000D+00 0.3880000D+00 0.3880000D+00 0.1020000D+00 0.1020000D+00
EXPONENTS  0.1020000D+00 0.1057000D+01 0.1057000D+01 0.1057000D+01 0.1057000D+01
EXPONENTS  0.1057000D+01 0.1057000D+01 0.2470000D+00 0.2470000D+00 0.2470000D+00
EXPONENTS  0.2470000D+00 0.2470000D+00 0.2470000D+00 0.4561000D+06 0.6833000D+05
EXPONENTS  0.1555000D+05 0.4405000D+04 0.1439000D+04 0.5204000D+03 0.2031000D+03
EXPONENTS  0.8396000D+02 0.3620000D+02 0.1583000D+02 0.6334000D+01 0.4405000D+04
EXPONENTS  0.1439000D+04 0.5204000D+03 0.2031000D+03 0.8396000D+02 0.3620000D+02
EXPONENTS  0.1583000D+02 0.6334000D+01 0.2694000D+01 0.1439000D+04 0.2031000D+03
EXPONENTS  0.8396000D+02 0.3620000D+02 0.1583000D+02 0.6334000D+01 0.2694000D+01
EXPONENTS  0.4313000D+00 0.9768000D+00 0.1625000D+00 0.5910000D-01 0.6633000D+03
EXPONENTS  0.1568000D+03 0.4998000D+02 0.1842000D+02 0.7240000D+01 0.2922000D+01
EXPONENTS  0.6633000D+03 0.1568000D+03 0.4998000D+02 0.1842000D+02 0.7240000D+01
EXPONENTS  0.2922000D+01 0.6633000D+03 0.1568000D+03 0.4998000D+02 0.1842000D+02
EXPONENTS  0.7240000D+01 0.2922000D+01 0.1568000D+03 0.4998000D+02 0.1842000D+02
EXPONENTS  0.7240000D+01 0.2922000D+01 0.3818000D+00 0.1568000D+03 0.4998000D+02
EXPONENTS  0.1842000D+02 0.7240000D+01 0.2922000D+01 0.3818000D+00 0.1568000D+03
EXPONENTS  0.4998000D+02 0.1842000D+02 0.7240000D+01 0.2922000D+01 0.3818000D+00
EXPONENTS  0.1022000D+01 0.1022000D+01 0.1022000D+01 0.1301000D+00 0.1301000D+00
EXPONENTS  0.1301000D+00 0.4190000D-01 0.4190000D-01 0.4190000D-01 0.1046000D+01
EXPONENTS  0.1046000D+01 0.1046000D+01 0.1046000D+01 0.1046000D+01 0.1046000D+01
EXPONENTS  0.3440000D+00 0.3440000D+00 0.3440000D+00 0.3440000D+00 0.3440000D+00
EXPONENTS  0.3440000D+00 0.1350000D+00 0.1350000D+00 0.1350000D+00 0.1350000D+00
EXPONENTS  0.1350000D+00 0.1350000D+00 0.7060000D+00 0.7060000D+00 0.7060000D+00
EXPONENTS  0.7060000D+00 0.7060000D+00 0.7060000D+00 0.7060000D+00 0.7060000D+00
EXPONENTS  0.7060000D+00 0.7060000D+00 0.3120000D+00 0.3120000D+00 0.3120000D+00
EXPONENTS  0.3120000D+00 0.3120000D+00 0.3120000D+00 0.3120000D+00 0.3120000D+00
EXPONENTS  0.3120000D+00 0.3120000D+00 0.1950000D+05 0.2923000D+04 0.6645000D+03
EXPONENTS  0.1875000D+03 0.6062000D+02 0.2142000D+02 0.7950000D+01 0.6645000D+03
EXPONENTS  0.1875000D+03 0.6062000D+02 0.2142000D+02 0.7950000D+01 0.8815000D+00
EXPONENTS  0.2257000D+01 0.3041000D+00 0.9158000D-01 0.4388000D+02 0.9926000D+01
EXPONENTS  0.2930000D+01 0.4388000D+02 0.9926000D+01 0.2930000D+01 0.4388000D+02
EXPONENTS  0.9926000D+01 0.2930000D+01 0.9132000D+00 0.9132000D+00 0.9132000D+00
EXPONENTS  0.2672000D+00 0.2672000D+00 0.2672000D+00 0.7361000D-01 0.7361000D-01
EXPONENTS  0.7361000D-01 0.3107000D+01 0.3107000D+01 0.3107000D+01 0.3107000D+01
EXPONENTS  0.3107000D+01 0.3107000D+01 0.8550000D+00 0.8550000D+00 0.8550000D+00
EXPONENTS  0.8550000D+00 0.8550000D+00 0.8550000D+00 0.2920000D+00 0.2920000D+00
EXPONENTS  0.2920000D+00 0.2920000D+00 0.2920000D+00 0.2920000D+00 0.1917000D+01
EXPONENTS  0.1917000D+01 0.1917000D+01 0.1917000D+01 0.1917000D+01 0.1917000D+01
EXPONENTS  0.1917000D+01 0.1917000D+01 0.1917000D+01 0.1917000D+01 0.7240000D+00
EXPONENTS  0.7240000D+00 0.7240000D+00 0.7240000D+00 0.7240000D+00 0.7240000D+00
EXPONENTS  0.7240000D+00 0.7240000D+00 0.7240000D+00 0.7240000D+00
MO    1     MO 0.0        OCC NO =    2.0000302  ORB. ENERGY =    0.000000
 -0.12282007D-07 -0.22896135D-07 -0.38697588D-07 -0.58169692D-07 -0.71451048D-07
 -0.60302163D-07 -0.22675188D-07  0.14948675D-10  0.11173208D-09  0.41756830D-09
  0.11649505D-08  0.15607125D-08 -0.18429105D-08 -0.37887268D-08  0.14121711D-07
  0.24616944D-08  0.10524196D-03  0.98671032D-04  0.70259653D-04  0.14632588D-04
  0.13718981D-04  0.97687320D-05 -0.28519963D-07 -0.26739278D-07 -0.19039959D-07
  0.34202412D-03  0.47553920D-04 -0.81104592D-07  0.45477018D-03  0.63229913D-04
 -0.11014656D-06  0.97124870D-05  0.13503098D-05 -0.23460030D-08  0.89456910D-05
 -0.90694585D-05  0.12376746D-06  0.12941286D-03 -0.51935143D-03 -0.72218387D-04
  0.25679494D-04 -0.25654406D-04 -0.25088746D-07  0.36814073D-03  0.95741989D-04
  0.13293687D-04  0.54524031D-05 -0.54693569D-05  0.16953740D-07  0.78356782D-04
 -0.67668235D-04 -0.94121313D-05  0.91908978D-04  0.12776916D-04  0.88531376D-07
  0.91930021D-04  0.12788244D-04  0.29258961D-05 -0.36765695D-03 -0.51118991D-04
 -0.31914903D-05  0.44208132D-04 -0.27000711D-04 -0.37578723D-05 -0.26116714D-07
 -0.26956146D-04 -0.37301469D-05  0.70907984D-05  0.10795828D-03  0.15003764D-04
 -0.70124482D-05  0.10104961D-03 -0.57840827D-05 -0.10431831D-04 -0.15381729D-04
  0.47089463D-04  0.15270283D-03 -0.15093416D-05  0.79842713D-05  0.93315786D-05
  0.34800297D-05  0.74415246D-04  0.38200348D-04  0.36970318D-04  0.70085704D-04
  0.23488438D-04  0.28645118D-05 -0.15255872D-04  0.54127129D-05  0.98431593D-05
  0.28434715D-04 -0.47704500D-04  0.41420702D-04 -0.59194740D-05 -0.17637280D-05
  0.76832019D-05  0.25730797D-04  0.63058980D-04  0.41538468D-05 -0.33102258D-04
 -0.59701286D-04 -0.88029511D-04  0.26953702D-03  0.87389089D-03 -0.86355173D-05
  0.48730240D-04 -0.22412689D-04  0.19952860D-04  0.21242306D-03 -0.69244681D-04
  0.21173161D-03  0.13819144D-03 -0.29581629D-04  0.16507244D-04  0.90185189D-05
 -0.65435653D-04  0.56417134D-04 -0.93490968D-04  0.19048458D-03 -0.14404264D-03
 -0.91442458D-05 -0.34886948D-04  0.44031194D-04 -0.12686279D-04  0.40202939D-04
  0.22057099D-04  0.38886539D-04  0.70133475D-04  0.10341177D-03 -0.31665180D-03
 -0.10265952D-02  0.10144548D-04  0.55849627D-04  0.28730313D-04 -0.23459421D-04
  0.23647664D-03  0.10380362D-03 -0.24882999D-03  0.15009833D-03  0.55922432D-04
 -0.19457553D-04 -0.62368393D-05  0.72587453D-04 -0.66350614D-04 -0.11469443D-03
  0.23211186D-03  0.15475740D-03  0.14642434D-04  0.37107224D-04 -0.51749658D-04
 -0.19391635D-04  0.36160897D-04 -0.68258400D-05 -0.45215742D-07 -0.84593828D-07
 -0.14615937D-06 -0.23694151D-06 -0.35981842D-06 -0.50011376D-06 -0.59459694D-06
 -0.52968761D-06 -0.26305407D-06 -0.42349480D-07 -0.44681202D-09 -0.21334695D-09
 -0.71168972D-08 -0.24800962D-07 -0.89312279D-07 -0.19687781D-06 -0.27714041D-06
  0.13220501D-07  0.36268635D-06  0.21445417D-06 -0.26223302D-11 -0.31762822D-10
 -0.66238018D-10 -0.18995910D-09 -0.98643117D-11  0.81919578D-09  0.21166446D-08
 -0.17245424D-08  0.12886573D-07 -0.37233531D-08 -0.65556794D-09  0.11500389D+02
  0.15148703D+02  0.16711390D+02  0.13880118D+02  0.73707279D+01  0.19016863D+01
  0.15990235D+01  0.21062880D+01  0.23235654D+01  0.19299030D+01  0.10248320D+01
  0.26441202D+00 -0.27583913D-02 -0.36334466D-02 -0.40082604D-02 -0.33291741D-02
 -0.17678838D-02 -0.45612326D-03 -0.45642170D-03  0.44123914D-02  0.62219324D-02
  0.88990093D-02 -0.45063330D-04 -0.81612308D-02 -0.63461185D-04  0.61350190D-03
  0.86510172D-03  0.12373243D-02 -0.62656361D-05 -0.11347431D-02  0.10948425D-06
 -0.10584233D-05 -0.14924874D-05 -0.21346518D-05  0.10809576D-07  0.19576770D-05
  0.75878616D-01  0.10550223D-01 -0.18200511D-04 -0.63868986D-03 -0.88804341D-04
  0.15375606D-06 -0.56930450D-04 -0.79156636D-05  0.13701784D-07  0.15973728D-05
 -0.18371810D-05  0.23980819D-06  0.25014055D-04 -0.99891047D-03 -0.13888901D-03
 -0.54286206D-06  0.62913572D-06 -0.86273659D-07 -0.85429855D-05  0.36046040D-03
  0.50117991D-04  0.14283396D-06 -0.15755815D-06  0.14724196D-07  0.21768166D-05
 -0.61375886D-04 -0.85336671D-05  0.18669458D-05  0.25745863D-06  0.17077426D-08
  0.18939781D-05  0.27297146D-06  0.46644515D-05 -0.74948155D-05 -0.10453474D-05
 -0.46695747D-05  0.66948375D-04  0.15113897D-04  0.21017615D-05  0.14408560D-07
  0.15108802D-04  0.20988524D-05 -0.92383304D-06 -0.60450493D-04 -0.84041369D-05
  0.88060736D-06 -0.12882796D-04  0.66746111D-08  0.12441487D-07  0.21091092D-07
  0.31934765D-07  0.39925490D-07  0.34343081D-07  0.13171311D-07 -0.12131378D-10
 -0.16059673D-09 -0.58331655D-09 -0.17303976D-08 -0.19939337D-08  0.24219294D-08
  0.23033218D-09 -0.43934315D-08 -0.46007654D-08 -0.29073898D-03 -0.28433637D-03
 -0.18787306D-03 -0.40424858D-04 -0.39534628D-04 -0.26122200D-04  0.59643192D-07
  0.58329739D-07  0.38540925D-07 -0.10311645D-04 -0.14364670D-05  0.26394096D-08
 -0.64748730D-04 -0.90005873D-05  0.10845611D-07 -0.19271474D-04 -0.26794552D-05
  0.39659937D-08  0.99815998D-05 -0.10013913D-04  0.32312999D-07  0.14344635D-03
 -0.13013069D-03 -0.18099506D-04 -0.49948846D-05  0.50192432D-05 -0.24358584D-07
 -0.71850376D-04  0.10061627D-03  0.13992327D-04  0.25107369D-05 -0.25272803D-05
  0.16543407D-07  0.36151901D-04 -0.72532988D-04 -0.10084840D-04 -0.72277369D-04
 -0.10035215D-04 -0.67937786D-07 -0.72445804D-04 -0.10124224D-04 -0.25764667D-04
  0.28927791D-03  0.40229869D-04  0.25968480D-04 -0.37121364D-03  0.25504066D-04
  0.35414529D-05  0.23794977D-07  0.25557363D-04  0.35697128D-05  0.81754420D-05
 -0.10206956D-03 -0.14194071D-04 -0.82468269D-05  0.11784520D-03
MO    2     MO 0.0        OCC NO =    2.0000302  ORB. ENERGY =    0.000000
 -0.43212647D-07 -0.80557080D-07 -0.13615244D-06 -0.20466251D-06 -0.25139124D-06
 -0.21216534D-06 -0.79779707D-07  0.19920107D-10  0.14889046D-09  0.55643763D-09
  0.15523744D-08  0.20797536D-08 -0.24558013D-08 -0.84151221D-08  0.20056788D-07
 -0.49455733D-08 -0.14633202D-04 -0.13719557D-04 -0.97691418D-05  0.10524142D-03
  0.98670518D-04  0.70259287D-04 -0.40302848D-07 -0.37786482D-07 -0.26906226D-07
 -0.47558194D-04  0.34203456D-03 -0.14993228D-06 -0.63233758D-04  0.45477302D-03
 -0.17532243D-06 -0.13504739D-05  0.97119007D-05 -0.38932937D-08  0.64837018D-04
 -0.65055331D-04  0.21831216D-06 -0.18139773D-04  0.72187254D-04 -0.51923269D-03
  0.18404751D-03 -0.18400580D-03 -0.41711731D-07 -0.51313627D-04 -0.13377608D-04
  0.96081443D-04  0.39196332D-04 -0.39223708D-04  0.27375726D-07 -0.10937630D-04
  0.93950597D-05 -0.67595539D-04 -0.12775292D-04  0.91898833D-04  0.14936501D-06
 -0.12787574D-04  0.91915614D-04  0.22306248D-04  0.51113450D-04 -0.36761211D-03
 -0.22754343D-04 -0.63293432D-05  0.37636405D-05 -0.27023758D-04 -0.42566294D-07
  0.37390636D-05 -0.26977103D-04  0.50461513D-04 -0.15029985D-04  0.10804838D-03
 -0.50333814D-04 -0.14039996D-04 -0.41563109D-04 -0.74960778D-04 -0.11052962D-03
  0.33843395D-03  0.10972597D-02 -0.10843456D-04 -0.10978374D-05  0.67069919D-04
  0.25019462D-04 -0.10273487D-04  0.27458196D-03  0.26574326D-03 -0.97285331D-05
  0.16884299D-03  0.20671032D-04 -0.10959589D-03  0.38927612D-04  0.70668282D-04
 -0.38650452D-05  0.67421353D-05  0.29760937D-03 -0.42643266D-04 -0.12651829D-04
  0.55295095D-04 -0.35679353D-05 -0.87369216D-05  0.29942242D-04  0.25790307D-04
  0.46513881D-04  0.68584691D-04 -0.21002148D-03 -0.68088145D-03  0.67287626D-05
 -0.32858737D-04  0.26308082D-04 -0.15551541D-04 -0.11787782D-03  0.13642411D-03
 -0.16500831D-03 -0.62811489D-04  0.10072593D-03 -0.12903166D-04  0.87364216D-05
  0.35190397D-04 -0.43926818D-04  0.91014244D-04 -0.17896762D-03  0.59356401D-04
  0.21378192D-04  0.12966126D-04 -0.34344318D-04  0.26355993D-04  0.90322660D-05
  0.52719427D-04  0.15771335D-04  0.28444252D-04  0.41941033D-04 -0.12843567D-03
 -0.41638416D-03  0.41153351D-05  0.18304152D-04  0.19183214D-04 -0.95177751D-05
  0.55385223D-04  0.11231643D-03 -0.10094562D-03  0.22710431D-04  0.88814894D-04
 -0.79144030D-05  0.10894623D-04  0.16000564D-04 -0.26895187D-04 -0.62016238D-04
  0.12013306D-03  0.17762786D-04  0.18056264D-04  0.29526502D-05 -0.21008915D-04
 -0.21877999D-04 -0.19679814D-04  0.56751362D-04  0.11381320D-06  0.21293236D-06
  0.36789988D-06  0.59640893D-06  0.90570420D-06  0.12588436D-05  0.14966686D-05
  0.13332844D-05  0.66213723D-06  0.10659849D-06  0.11246771D-08  0.53074453D-09
  0.17704749D-07  0.61697506D-07  0.22218271D-06  0.48977413D-06  0.68944391D-06
 -0.32888721D-07 -0.90225708D-06 -0.53349896D-06  0.15142438D-10  0.18341190D-09
  0.38248619D-09  0.10969038D-08  0.56960687D-10 -0.47303812D-08 -0.12222396D-07
  0.99582333D-08 -0.31497132D-07 -0.64825238D-08  0.40940896D-09 -0.15990245D+01
 -0.21062893D+01 -0.23235668D+01 -0.19299042D+01 -0.10248327D+01 -0.26441219D+00
  0.11500388D+02  0.15148702D+02  0.16711389D+02  0.13880117D+02  0.73707273D+01
  0.19016862D+01 -0.47544401D-02 -0.62627099D-02 -0.69087493D-02 -0.57382572D-02
 -0.30471738D-02 -0.78618677D-03  0.63461323D-04 -0.61350324D-03 -0.86510361D-03
 -0.12373270D-02  0.62656498D-05  0.11347456D-02 -0.45642148D-03  0.44123892D-02
  0.62219294D-02  0.88990050D-02 -0.45063309D-04 -0.81612269D-02  0.18907536D-06
 -0.18278589D-05 -0.25774719D-05 -0.36864666D-05  0.18667748D-07  0.33808376D-05
 -0.10550233D-01  0.75878612D-01 -0.31376511D-04  0.88803608D-04 -0.63868960D-03
  0.26717958D-06  0.79156428D-05 -0.56930366D-04  0.23394609D-07  0.12762359D-04
 -0.13175825D-04  0.41346540D-06 -0.36697148D-05  0.13888579D-03 -0.99888205D-03
 -0.43623792D-05  0.45132721D-05 -0.15089288D-06  0.12566814D-05 -0.50118017D-04
  0.36045000D-03  0.11044078D-05 -0.11293361D-05  0.24928324D-07 -0.31457210D-06
  0.85335331D-05 -0.61373641D-04 -0.25355919D-06  0.18515195D-05  0.33191954D-08
 -0.26948977D-06  0.18779960D-05  0.33477556D-04  0.10301673D-05 -0.74325545D-05
 -0.33487514D-04 -0.93375234D-05 -0.21026530D-05  0.15116616D-04  0.25172342D-07
 -0.20996187D-05  0.15111694D-04 -0.64094316D-05  0.84075777D-05 -0.60461541D-04
  0.63339146D-05  0.17686130D-05 -0.11767744D-07 -0.21935095D-07 -0.37184872D-07
 -0.56302925D-07 -0.70391058D-07 -0.60548932D-07 -0.23221819D-07  0.29917198D-10
  0.39604769D-09  0.14385173D-08  0.42673343D-08  0.49172409D-08 -0.59727215D-08
 -0.33782292D-09  0.91339468D-08  0.92207858D-08  0.40424295D-04  0.39534078D-04
  0.26121837D-04 -0.29073861D-03 -0.28433601D-03 -0.18787282D-03  0.12225209D-06
  0.11955987D-06  0.78998262D-07  0.14320875D-05 -0.10319385D-04 -0.28384150D-08
  0.90040475D-05 -0.64742910D-04  0.38885530D-07  0.26795373D-05 -0.19271093D-04
  0.91997582D-08  0.71761008D-04 -0.71811467D-04  0.50458728D-07 -0.20023517D-04
  0.18068022D-04 -0.12999091D-03 -0.35953223D-04  0.35994343D-04 -0.41120503D-07
  0.10035617D-04 -0.13977339D-04  0.10054522D-03  0.18094365D-04 -0.18127815D-04
  0.33450031D-07 -0.50530981D-05  0.10079815D-04 -0.72493822D-04  0.10018924D-04
 -0.72188395D-04 -0.12731215D-06  0.10104944D-04 -0.72343650D-04 -0.18576527D-03
 -0.40161718D-04  0.28890884D-03  0.18614721D-03  0.51880900D-04 -0.35364614D-05
  0.25475558D-04  0.45601100D-07 -0.35637976D-05  0.25524729D-04  0.58977501D-04
  0.14173182D-04 -0.10195140D-03 -0.59114305D-04 -0.16474418D-04
MO    3     MO 0.0        OCC NO =    2.0000211  ORB. ENERGY =    0.000000
 -0.15033988D-01 -0.28026383D-01 -0.47368405D-01 -0.71203547D-01 -0.87460805D-01
 -0.73813834D-01 -0.27755929D-01 -0.38923468D-05 -0.29092881D-04 -0.10872674D-03
 -0.30333067D-03 -0.40637947D-03  0.47985838D-03 -0.91397242D-03 -0.19377672D-02
 -0.84402045D-04  0.20483284D-06  0.19204380D-06  0.13674663D-06  0.49726679D-06
  0.46621923D-06  0.33197586D-06  0.11507638D-02  0.10789142D-02  0.76825116D-03
  0.10696894D-06  0.27012693D-06  0.59793958D-03 -0.65621376D-07 -0.16782098D-06
 -0.37223573D-03  0.82649424D-09  0.20419773D-08  0.45668768D-05 -0.10309345D-03
 -0.10309849D-03  0.20619194D-03  0.45747497D-09  0.11077289D-06  0.26682849D-06
 -0.21488483D-04 -0.21491118D-04  0.42979600D-04  0.12446436D-08  0.21305465D-07
  0.55885945D-07  0.11686654D-04  0.11687794D-04 -0.23374449D-04  0.24582321D-10
 -0.12560138D-07 -0.31447562D-07 -0.14968346D-07  0.37046306D-04  0.34977374D-05
  0.41601258D-07 -0.11114857D-03 -0.51990614D-05  0.33037810D-08  0.96552533D-08
 -0.52941509D-05  0.38705125D-07  0.26611916D-08  0.51442228D-04 -0.84005930D-04
  0.81123516D-07 -0.15410527D-03  0.12607609D-03 -0.89107091D-07 -0.22141484D-06
  0.12594170D-03  0.54213494D-07 -0.44394195D-05 -0.80066759D-05 -0.11805839D-04
  0.75100787D-03  0.23453390D-03  0.51378897D-05  0.17212055D-07  0.96699128D-04
  0.27427258D-04  0.24981472D-07  0.20000608D-03  0.24299271D-05  0.12281127D-07
  0.43723522D-04  0.38143296D-04 -0.72467022D-04  0.55482003D-04  0.16985019D-04
  0.45498674D-07  0.41570957D-07  0.76788236D-04 -0.94204138D-05 -0.11930456D-04
  0.21350870D-04 -0.66589789D-08  0.65031184D-08 -0.34202580D-04 -0.44399609D-05
 -0.80076524D-05 -0.11807279D-04  0.75100039D-03  0.23454833D-03  0.51379250D-05
  0.83732308D-04 -0.48342441D-04  0.27475202D-04  0.17319317D-03 -0.10002616D-03
  0.25239995D-05  0.37856199D-04 -0.21843838D-04  0.38165834D-04  0.23465188D-04
 -0.40491053D-04  0.17025866D-04 -0.11077461D-03  0.66565823D-04 -0.38349297D-04
 -0.11297137D-04 -0.10036609D-04  0.21333746D-04  0.21516835D-05 -0.29633273D-04
  0.17147337D-04 -0.44402048D-05 -0.80080923D-05 -0.11807927D-04  0.75099817D-03
  0.23454503D-03  0.51377933D-05 -0.83734194D-04 -0.48320787D-04  0.27504819D-04
 -0.17321715D-03 -0.99980696D-04  0.25877944D-05 -0.37847640D-04 -0.21833812D-04
  0.38179588D-04  0.23469978D-04 -0.40519263D-04  0.17049286D-04  0.11072745D-03
 -0.66581147D-04 -0.38372289D-04 -0.11287285D-04 -0.10035992D-04  0.21323277D-04
 -0.21451956D-05  0.29660377D-04  0.17140388D-04 -0.15500555D+00 -0.28999884D+00
 -0.50105368D+00 -0.81226688D+00 -0.12335052D+01 -0.17144562D+01 -0.20383570D+01
 -0.18158393D+01 -0.90178418D+00 -0.14517962D+00 -0.15317308D-02 -0.72472936D-03
 -0.24175758D-01 -0.84247677D-01 -0.30338953D+00 -0.66878445D+00 -0.94143266D+00
  0.44909406D-01  0.12320281D+01  0.72849052D+00 -0.15585189D-04 -0.18877470D-03
 -0.39366974D-03 -0.11289763D-02 -0.58626166D-04  0.48686933D-02  0.12579768D-01
 -0.10249403D-01  0.46713145D-01 -0.38558796D-03 -0.12736118D-03  0.10515698D-02
  0.13851635D-02  0.15280521D-02  0.12691669D-02  0.67396287D-03  0.17388594D-03
  0.25901115D-02  0.34117828D-02  0.37637304D-02  0.31260728D-02  0.16600314D-02
  0.42829678D-03  0.58963312D+01  0.77668475D+01  0.85680486D+01  0.71164352D+01
  0.37790246D+01  0.97500809D+00 -0.37289717D-07  0.36049299D-06  0.50833275D-06
  0.72705031D-06 -0.36816804D-08 -0.66677370D-06 -0.91831263D-07  0.88776557D-06
  0.12518421D-05  0.17904654D-05 -0.90666647D-08 -0.16420256D-05 -0.20918112D-03
  0.20222284D-02  0.28515532D-02  0.40784754D-02 -0.20652825D-04 -0.37403466D-02
  0.73732689D-05  0.18157009D-04  0.41340822D-01 -0.86425921D-07 -0.21178549D-06
 -0.48400974D-03 -0.17362724D-08 -0.43606841D-08 -0.97279061D-05 -0.12959919D-04
 -0.12959197D-04  0.25919115D-04 -0.26145689D-09  0.14228951D-07  0.36434238D-07
 -0.11025685D-03 -0.11025707D-03  0.22051392D-03  0.13402911D-09  0.11809426D-06
  0.28819268D-06 -0.14528684D-04 -0.14528620D-04  0.29057304D-04  0.27901007D-10
  0.15700431D-07  0.38012226D-07  0.96701130D-09 -0.68869379D-05  0.58040583D-05
 -0.95426387D-08  0.20645727D-04 -0.87152559D-05  0.66416048D-08  0.15086224D-07
 -0.86969191D-05 -0.69071746D-08  0.82928182D-08  0.19294397D-05 -0.33469652D-04
  0.11205410D-07 -0.57009290D-05  0.50207015D-04 -0.36083864D-07 -0.87390023D-07
  0.50201942D-04  0.17839481D-08 -0.89422879D-03 -0.16668440D-02 -0.28256719D-02
 -0.42784494D-02 -0.53490041D-02 -0.46011027D-02 -0.17646219D-02 -0.68601834D-06
 -0.90815983D-05 -0.32986017D-04 -0.97852399D-04 -0.11275513D-03  0.13695789D-03
 -0.96342256D-04 -0.15092831D-03  0.16033915D-04  0.65094119D-06  0.63660627D-06
  0.42063268D-06  0.17378649D-05  0.16995939D-05  0.11229935D-05  0.38249489D-02
  0.37407164D-02  0.24716495D-02  0.14643277D-06  0.39550097D-06  0.86567228D-03
  0.46426687D-08  0.97481010D-08  0.23989869D-04  0.15801675D-08  0.44961075D-08
  0.97421684D-05 -0.33525737D-04 -0.33524164D-04  0.67049901D-04  0.11293076D-08
  0.34004969D-07  0.90481993D-07  0.19606666D-04  0.19606078D-04 -0.39212745D-04
 -0.50320725D-09 -0.20230738D-07 -0.52543978D-07  0.17820682D-04  0.17820586D-04
 -0.35641268D-04  0.98862538D-10 -0.17536137D-07 -0.49879068D-07 -0.96560787D-08
 -0.34369735D-05  0.47925692D-04 -0.14848716D-07  0.10172105D-04 -0.71897589D-04
  0.43816953D-07  0.13881609D-06 -0.71879486D-04 -0.19731311D-08  0.56427923D-08
  0.10915581D-05 -0.25500955D-04  0.72810616D-08 -0.32021453D-05  0.38254294D-04
 -0.24209438D-07 -0.72528828D-07  0.38248570D-04  0.57268494D-09
MO    4     MO 0.0        OCC NO =    2.0000121  ORB. ENERGY =    0.000000
  0.25422414D-01  0.47392502D-01  0.80099785D-01  0.12040492D+00  0.14789587D+00
  0.12481890D+00  0.46935166D-01 -0.17611983D-05 -0.13163866D-04 -0.49196373D-04
 -0.13725022D-03 -0.18387746D-03  0.21712499D-03  0.25565620D-02 -0.36763636D-02
 -0.48621963D-04  0.65920284D-06  0.61804456D-06  0.44008455D-06  0.16301362D-05
  0.15283563D-05  0.10882808D-05  0.37224968D-02  0.34900774D-02  0.24851430D-02
  0.23620756D-06  0.58437430D-06  0.13042191D-02 -0.72486131D-07 -0.18436719D-06
 -0.41365681D-03  0.66916272D-09  0.14281120D-08  0.34525618D-05 -0.32255293D-03
 -0.32255959D-03  0.64511252D-03  0.38278638D-09  0.34437170D-06  0.84617679D-06
  0.16958513D-04  0.16951284D-04 -0.33909797D-04  0.42029623D-08 -0.20149080D-07
 -0.51996016D-07 -0.17558775D-04 -0.17558807D-04  0.35117583D-04  0.31654879D-09
  0.18070785D-07  0.46348455D-07  0.11774458D-07 -0.39024502D-04  0.12839399D-04
 -0.47797727D-07  0.11703851D-03 -0.19313119D-04  0.12474353D-07  0.34994112D-07
 -0.19205077D-04 -0.42059454D-07  0.12725236D-07  0.81695628D-04 -0.16468877D-03
  0.13730105D-06 -0.24465441D-03  0.24713835D-03 -0.17547676D-06 -0.43247028D-06
  0.24692794D-03  0.85560058D-07 -0.89961535D-04 -0.16224933D-03 -0.23923655D-03
  0.10374960D-02  0.69196253D-03  0.45418989D-05 -0.83213354D-09 -0.52939270D-04
  0.30993702D-04  0.31972942D-07  0.31177911D-03 -0.39166409D-04  0.27878702D-07
  0.11194239D-03  0.76485065D-04 -0.14244114D-03  0.29217571D-04  0.11322357D-03
  0.68235904D-07  0.10794973D-06  0.13895241D-03 -0.13408284D-04 -0.20820946D-04
  0.34229230D-04 -0.13049907D-07  0.86869157D-08 -0.64327175D-04 -0.89960998D-04
 -0.16224837D-03 -0.23923512D-03  0.10374839D-02  0.69196007D-03  0.45428048D-05
 -0.45849241D-04  0.26496479D-04  0.30970600D-04  0.26998928D-03 -0.15595041D-03
 -0.39009039D-04  0.96922146D-04 -0.55933860D-04  0.76541711D-04 -0.13747905D-04
 -0.99557126D-04  0.11330503D-03 -0.14858705D-03  0.12037442D-03 -0.69245385D-04
 -0.18955991D-04 -0.15240506D-04  0.34196497D-04  0.63792070D-05 -0.55728419D-04
  0.32235105D-04 -0.89961096D-04 -0.16224854D-03 -0.23923538D-03  0.10374731D-02
  0.69195449D-03  0.45424094D-05  0.45868991D-04  0.26485501D-04  0.30952866D-04
 -0.27003921D-03 -0.15587872D-03 -0.38910199D-04 -0.96908497D-04 -0.55908845D-04
  0.76576218D-04 -0.13752981D-04 -0.99593814D-04  0.11334680D-03  0.14851627D-03
 -0.12030242D-03 -0.69267254D-04 -0.18938266D-04 -0.15238903D-04  0.34177169D-04
 -0.63661057D-05  0.55774617D-04  0.32223373D-04  0.90653379D-01  0.16960280D+00
  0.29303602D+00  0.47504581D+00  0.72140265D+00  0.10026818D+01  0.11921118D+01
  0.10619747D+01  0.52739907D+00  0.84906789D-01  0.89581677D-03  0.42444602D-03
  0.14158809D-01  0.49340614D-01  0.17768354D+00  0.39168125D+00  0.55136079D+00
 -0.26301706D-01 -0.72155134D+00 -0.42664879D+00  0.61717661D-05  0.74755159D-04
  0.15589400D-03  0.44707686D-03  0.23216079D-04 -0.19280122D-02 -0.49816134D-02
  0.40587841D-02 -0.28365204D-01  0.14347632D-02 -0.17568466D-03  0.17809891D-02
  0.23459792D-02  0.25879823D-02  0.21495219D-02  0.11414558D-02  0.29450156D-03
  0.43548648D-02  0.57363756D-02  0.63281203D-02  0.52559994D-02  0.27910815D-02
  0.72011362D-03  0.99435054D+01  0.13097923D+02  0.14449059D+02  0.12001075D+02
  0.63729038D+01  0.16442425D+01 -0.60413729D-07  0.58404106D-06  0.82355886D-06
  0.11779070D-05 -0.59647554D-08 -0.10802518D-05 -0.14763446D-06  0.14272350D-05
  0.20125503D-05  0.28784793D-05 -0.14576214D-07 -0.26398370D-05 -0.33748017D-03
  0.32625411D-02  0.46005236D-02  0.65799657D-02 -0.33320020D-04 -0.60344491D-02
  0.13049907D-04  0.31908029D-04  0.72865138D-01 -0.55684775D-07 -0.13843490D-06
 -0.31362980D-03 -0.67952140D-09 -0.18538180D-08 -0.38314020D-05  0.46272434D-03
  0.46272509D-03 -0.92544943D-03 -0.45773061D-09 -0.49657911D-06 -0.12105943D-05
 -0.31563188D-03 -0.31563239D-03  0.63126427D-03  0.24864333D-09  0.33838554D-06
  0.82603451D-06  0.35976880D-05  0.35978045D-05 -0.71954926D-05 -0.21367838D-12
 -0.39737292D-08 -0.86861414D-08  0.17871168D-07 -0.14129348D-04 -0.46962640D-04
 -0.37494806D-08  0.42510128D-04  0.70425657D-04 -0.49864024D-07 -0.12208477D-06
  0.70462263D-04 -0.14906170D-07  0.15722865D-07  0.40320974D-05 -0.64267538D-04
  0.21815149D-07 -0.11927786D-04  0.96406287D-04 -0.68983745D-07 -0.16850650D-06
  0.96396326D-04  0.40000571D-08 -0.64848982D-02 -0.12087861D-01 -0.20491618D-01