 title line
GAUSSIAN            211 MOL ORBITALS    339 PRIMITIVES        6 NUCLEI
  C    1    (CENTRE  1)   0.00033070  0.00005480 -0.94053370  CHARGE =  6.0
  H    2    (CENTRE  2)   0.00003590 -1.98906904 -1.17300214  CHARGE =  1.0
  H    3    (CENTRE  3)  -1.72213010  1.01358296 -1.17398291  CHARGE =  1.0
  H    4    (CENTRE  4)   1.72295780  0.99424539 -1.17459707  CHARGE =  1.0
  Cl   5    (CENTRE  5)   0.00104880  0.00181792  3.10806659  CHARGE = 17.0
  F    6    (CENTRE  6)  -0.00035149 -0.00174044 -4.90092914  CHARGE =  9.0
CENTRE ASSIGNMENTS    1  1  1  1  1  1  1  1  1  1  1  1  1  1  1  1  1  1  1  1
CENTRE ASSIGNMENTS    1  1  1  1  1  1  1  1  1  1  1  1  1  1  1  1  1  1  1  1
CENTRE ASSIGNMENTS    1  1  1  1  1  1  1  1  1  1  1  1  1  1  1  1  1  1  1  1
CENTRE ASSIGNMENTS    1  1  1  1  1  1  1  1  1  1  1  1  2  2  2  2  2  2  2  2
CENTRE ASSIGNMENTS    2  2  2  2  2  2  2  2  2  2  2  2  2  2  2  2  2  2  2  3
CENTRE ASSIGNMENTS    3  3  3  3  3  3  3  3  3  3  3  3  3  3  3  3  3  3  3  3
CENTRE ASSIGNMENTS    3  3  3  3  3  3  4  4  4  4  4  4  4  4  4  4  4  4  4  4
CENTRE ASSIGNMENTS    4  4  4  4  4  4  4  4  4  4  4  4  4  5  5  5  5  5  5  5
CENTRE ASSIGNMENTS    5  5  5  5  5  5  5  5  5  5  5  5  5  5  5  5  5  5  5  5
CENTRE ASSIGNMENTS    5  5  5  5  5  5  5  5  5  5  5  5  5  5  5  5  5  5  5  5
CENTRE ASSIGNMENTS    5  5  5  5  5  5  5  5  5  5  5  5  5  5  5  5  5  5  5  5
CENTRE ASSIGNMENTS    5  5  5  5  5  5  5  5  5  5  5  5  5  5  5  5  5  5  5  5
CENTRE ASSIGNMENTS    5  5  5  5  5  5  5  5  5  5  5  5  5  5  5  5  5  5  5  5
CENTRE ASSIGNMENTS    5  5  5  5  5  5  5  6  6  6  6  6  6  6  6  6  6  6  6  6
CENTRE ASSIGNMENTS    6  6  6  6  6  6  6  6  6  6  6  6  6  6  6  6  6  6  6  6
CENTRE ASSIGNMENTS    6  6  6  6  6  6  6  6  6  6  6  6  6  6  6  6  6  6  6  6
CENTRE ASSIGNMENTS    6  6  6  6  6  6  6  6  6  6  6  6  6  6  6  6  6  6  6
TYPE ASSIGNMENTS      1  1  1  1  1  1  1  1  1  1  1  1  1  1  1  1  2  2  2  3
TYPE ASSIGNMENTS      3  3  4  4  4  2  3  4  2  3  4  2  3  4  5  6  7  8  9 10
TYPE ASSIGNMENTS      5  6  7  8  9 10  5  6  7  8  9 10 11 12 13 17 14 15 18 19
TYPE ASSIGNMENTS     16 20 11 12 13 17 14 15 18 19 16 20  1  1  1  1  1  1  2  3
TYPE ASSIGNMENTS      4  2  3  4  2  3  4  5  6  7  8  9 10  5  6  7  8  9 10  1
TYPE ASSIGNMENTS      1  1  1  1  1  2  3  4  2  3  4  2  3  4  5  6  7  8  9 10
TYPE ASSIGNMENTS      5  6  7  8  9 10  1  1  1  1  1  1  2  3  4  2  3  4  2  3
TYPE ASSIGNMENTS      4  5  6  7  8  9 10  5  6  7  8  9 10  1  1  1  1  1  1  1
TYPE ASSIGNMENTS      1  1  1  1  1  1  1  1  1  1  1  1  1  1  1  1  1  1  1  1
TYPE ASSIGNMENTS      1  1  1  1  2  2  2  2  2  2  3  3  3  3  3  3  4  4  4  4
TYPE ASSIGNMENTS      4  4  2  2  2  2  2  2  3  3  3  3  3  3  4  4  4  4  4  4
TYPE ASSIGNMENTS      2  3  4  2  3  4  2  3  4  5  6  7  8  9 10  5  6  7  8  9
TYPE ASSIGNMENTS     10  5  6  7  8  9 10 11 12 13 17 14 15 18 19 16 20 11 12 13
TYPE ASSIGNMENTS     17 14 15 18 19 16 20  1  1  1  1  1  1  1  1  1  1  1  1  1
TYPE ASSIGNMENTS      1  1  1  2  2  2  3  3  3  4  4  4  2  3  4  2  3  4  2  3
TYPE ASSIGNMENTS      4  5  6  7  8  9 10  5  6  7  8  9 10  5  6  7  8  9 10 11
TYPE ASSIGNMENTS     12 13 17 14 15 18 19 16 20 11 12 13 17 14 15 18 19 16 20
EXPONENTS  0.8236000D+04 0.1235000D+04 0.2808000D+03 0.7927000D+02 0.2559000D+02
EXPONENTS  0.8997000D+01 0.3319000D+01 0.2808000D+03 0.7927000D+02 0.2559000D+02
EXPONENTS  0.8997000D+01 0.3319000D+01 0.3643000D+00 0.9059000D+00 0.1285000D+00
EXPONENTS  0.4402000D-01 0.1871000D+02 0.4133000D+01 0.1200000D+01 0.1871000D+02
EXPONENTS  0.4133000D+01 0.1200000D+01 0.1871000D+02 0.4133000D+01 0.1200000D+01
EXPONENTS  0.3827000D+00 0.3827000D+00 0.3827000D+00 0.1209000D+00 0.1209000D+00
EXPONENTS  0.1209000D+00 0.3569000D-01 0.3569000D-01 0.3569000D-01 0.1097000D+01
EXPONENTS  0.1097000D+01 0.1097000D+01 0.1097000D+01 0.1097000D+01 0.1097000D+01
EXPONENTS  0.3180000D+00 0.3180000D+00 0.3180000D+00 0.3180000D+00 0.3180000D+00
EXPONENTS  0.3180000D+00 0.1000000D+00 0.1000000D+00 0.1000000D+00 0.1000000D+00
EXPONENTS  0.1000000D+00 0.1000000D+00 0.7610000D+00 0.7610000D+00 0.7610000D+00
EXPONENTS  0.7610000D+00 0.7610000D+00 0.7610000D+00 0.7610000D+00 0.7610000D+00
EXPONENTS  0.7610000D+00 0.7610000D+00 0.2680000D+00 0.2680000D+00 0.2680000D+00
EXPONENTS  0.2680000D+00 0.2680000D+00 0.2680000D+00 0.2680000D+00 0.2680000D+00
EXPONENTS  0.2680000D+00 0.2680000D+00 0.3387000D+02 0.5095000D+01 0.1159000D+01
EXPONENTS  0.3258000D+00 0.1027000D+00 0.2526000D-01 0.1407000D+01 0.1407000D+01
EXPONENTS  0.1407000D+01 0.3880000D+00 0.3880000D+00 0.3880000D+00 0.1020000D+00
EXPONENTS  0.1020000D+00 0.1020000D+00 0.1057000D+01 0.1057000D+01 0.1057000D+01
EXPONENTS  0.1057000D+01 0.1057000D+01 0.1057000D+01 0.2470000D+00 0.2470000D+00
EXPONENTS  0.2470000D+00 0.2470000D+00 0.2470000D+00 0.2470000D+00 0.3387000D+02
EXPONENTS  0.5095000D+01 0.1159000D+01 0.3258000D+00 0.1027000D+00 0.2526000D-01
EXPONENTS  0.1407000D+01 0.1407000D+01 0.1407000D+01 0.3880000D+00 0.3880000D+00
EXPONENTS  0.3880000D+00 0.1020000D+00 0.1020000D+00 0.1020000D+00 0.1057000D+01
EXPONENTS  0.1057000D+01 0.1057000D+01 0.1057000D+01 0.1057000D+01 0.1057000D+01
EXPONENTS  0.2470000D+00 0.2470000D+00 0.2470000D+00 0.2470000D+00 0.2470000D+00
EXPONENTS  0.2470000D+00 0.3387000D+02 0.5095000D+01 0.1159000D+01 0.3258000D+00
EXPONENTS  0.1027000D+00 0.2526000D-01 0.1407000D+01 0.1407000D+01 0.1407000D+01
EXPONENTS  0.3880000D+00 0.3880000D+00 0.3880000D+00 0.1020000D+00 0.1020000D+00
EXPONENTS  0.1020000D+00 0.1057000D+01 0.1057000D+01 0.1057000D+01 0.1057000D+01
EXPONENTS  0.1057000D+01 0.1057000D+01 0.2470000D+00 0.2470000D+00 0.2470000D+00
EXPONENTS  0.2470000D+00 0.2470000D+00 0.2470000D+00 0.4561000D+06 0.6833000D+05
EXPONENTS  0.1555000D+05 0.4405000D+04 0.1439000D+04 0.5204000D+03 0.2031000D+03
EXPONENTS  0.8396000D+02 0.3620000D+02 0.1583000D+02 0.6334000D+01 0.4405000D+04
EXPONENTS  0.1439000D+04 0.5204000D+03 0.2031000D+03 0.8396000D+02 0.3620000D+02
EXPONENTS  0.1583000D+02 0.6334000D+01 0.2694000D+01 0.1439000D+04 0.2031000D+03
EXPONENTS  0.8396000D+02 0.3620000D+02 0.1583000D+02 0.6334000D+01 0.2694000D+01
EXPONENTS  0.4313000D+00 0.9768000D+00 0.1625000D+00 0.5910000D-01 0.6633000D+03
EXPONENTS  0.1568000D+03 0.4998000D+02 0.1842000D+02 0.7240000D+01 0.2922000D+01
EXPONENTS  0.6633000D+03 0.1568000D+03 0.4998000D+02 0.1842000D+02 0.7240000D+01
EXPONENTS  0.2922000D+01 0.6633000D+03 0.1568000D+03 0.4998000D+02 0.1842000D+02
EXPONENTS  0.7240000D+01 0.2922000D+01 0.1568000D+03 0.4998000D+02 0.1842000D+02
EXPONENTS  0.7240000D+01 0.2922000D+01 0.3818000D+00 0.1568000D+03 0.4998000D+02
EXPONENTS  0.1842000D+02 0.7240000D+01 0.2922000D+01 0.3818000D+00 0.1568000D+03
EXPONENTS  0.4998000D+02 0.1842000D+02 0.7240000D+01 0.2922000D+01 0.3818000D+00
EXPONENTS  0.1022000D+01 0.1022000D+01 0.1022000D+01 0.1301000D+00 0.1301000D+00
EXPONENTS  0.1301000D+00 0.4190000D-01 0.4190000D-01 0.4190000D-01 0.1046000D+01
EXPONENTS  0.1046000D+01 0.1046000D+01 0.1046000D+01 0.1046000D+01 0.1046000D+01
EXPONENTS  0.3440000D+00 0.3440000D+00 0.3440000D+00 0.3440000D+00 0.3440000D+00
EXPONENTS  0.3440000D+00 0.1350000D+00 0.1350000D+00 0.1350000D+00 0.1350000D+00
EXPONENTS  0.1350000D+00 0.1350000D+00 0.7060000D+00 0.7060000D+00 0.7060000D+00
EXPONENTS  0.7060000D+00 0.7060000D+00 0.7060000D+00 0.7060000D+00 0.7060000D+00
EXPONENTS  0.7060000D+00 0.7060000D+00 0.3120000D+00 0.3120000D+00 0.3120000D+00
EXPONENTS  0.3120000D+00 0.3120000D+00 0.3120000D+00 0.3120000D+00 0.3120000D+00
EXPONENTS  0.3120000D+00 0.3120000D+00 0.1950000D+05 0.2923000D+04 0.6645000D+03
EXPONENTS  0.1875000D+03 0.6062000D+02 0.2142000D+02 0.7950000D+01 0.6645000D+03
EXPONENTS  0.1875000D+03 0.6062000D+02 0.2142000D+02 0.7950000D+01 0.8815000D+00
EXPONENTS  0.2257000D+01 0.3041000D+00 0.9158000D-01 0.4388000D+02 0.9926000D+01
EXPONENTS  0.2930000D+01 0.4388000D+02 0.9926000D+01 0.2930000D+01 0.4388000D+02
EXPONENTS  0.9926000D+01 0.2930000D+01 0.9132000D+00 0.9132000D+00 0.9132000D+00
EXPONENTS  0.2672000D+00 0.2672000D+00 0.2672000D+00 0.7361000D-01 0.7361000D-01
EXPONENTS  0.7361000D-01 0.3107000D+01 0.3107000D+01 0.3107000D+01 0.3107000D+01
EXPONENTS  0.3107000D+01 0.3107000D+01 0.8550000D+00 0.8550000D+00 0.8550000D+00
EXPONENTS  0.8550000D+00 0.8550000D+00 0.8550000D+00 0.2920000D+00 0.2920000D+00
EXPONENTS  0.2920000D+00 0.2920000D+00 0.2920000D+00 0.2920000D+00 0.1917000D+01
EXPONENTS  0.1917000D+01 0.1917000D+01 0.1917000D+01 0.1917000D+01 0.1917000D+01
EXPONENTS  0.1917000D+01 0.1917000D+01 0.1917000D+01 0.1917000D+01 0.7240000D+00
EXPONENTS  0.7240000D+00 0.7240000D+00 0.7240000D+00 0.7240000D+00 0.7240000D+00
EXPONENTS  0.7240000D+00 0.7240000D+00 0.7240000D+00 0.7240000D+00
MO    1     MO 0.0        OCC NO =    2.0000300  ORB. ENERGY =    0.000000
 -0.13956133D-04 -0.26017043D-04 -0.43972348D-04 -0.66098641D-04 -0.81190341D-04
 -0.68521783D-04 -0.25765980D-04 -0.34007117D-08 -0.25418213D-07 -0.94993665D-07
 -0.26501753D-06 -0.35505043D-06  0.41924835D-06 -0.17481849D-05  0.22687205D-04
  0.60151305D-06  0.10960845D-03  0.10276489D-03  0.73174720D-04  0.14314111D-05
  0.13420389D-05  0.95561167D-06  0.22116231D-06  0.20735372D-06  0.14764820D-06
  0.35488548D-03  0.48999009D-05  0.16932808D-05  0.45933684D-03  0.50692075D-05
 -0.14023592D-05  0.94798902D-05  0.16261012D-06 -0.15969707D-07  0.12207452D-05
 -0.18934476D-05  0.67270233D-06  0.12679720D-03 -0.51069165D-03 -0.48088237D-05
  0.45538429D-05 -0.24475943D-05 -0.21062486D-05  0.38440042D-03  0.96948281D-04
  0.19146198D-05  0.40992419D-06 -0.83646187D-06  0.42653767D-06  0.81611569D-04
 -0.65795480D-04 -0.54855088D-06  0.91255661D-04  0.84031581D-06 -0.26802049D-06
  0.95149152D-04  0.78411380D-06  0.21870611D-05 -0.36891614D-03 -0.33050612D-05
 -0.13829997D-05  0.50212487D-04 -0.27174077D-04 -0.11057935D-05 -0.12079052D-06
 -0.24938504D-04  0.25092268D-05  0.11010766D-05  0.10646073D-03  0.80815367D-06
 -0.73870502D-06  0.10052408D-03 -0.55913212D-06 -0.10084178D-05 -0.14869115D-05
 -0.36526503D-05  0.12868253D-04 -0.95883310D-07  0.50334839D-05  0.81588815D-07
  0.65170608D-07  0.79470199D-04  0.25682985D-05  0.34489344D-05  0.74475533D-04
  0.16325391D-05  0.56381494D-06 -0.10941849D-05  0.57827702D-06  0.51590788D-06
  0.27726350D-04 -0.47082431D-04  0.40826865D-05 -0.50142603D-07  0.11877165D-06
 -0.68629043D-07  0.28442075D-04  0.60695599D-04  0.41969917D-06 -0.34792921D-04
 -0.62750465D-04 -0.92525524D-04  0.29930897D-03  0.95175411D-03 -0.10306953D-04
  0.52509678D-04 -0.27454760D-04  0.19310296D-04  0.23164260D-03 -0.86824166D-04
  0.22941665D-03  0.14492848D-03 -0.41880893D-04  0.19280539D-04  0.10329674D-04
 -0.67581450D-04  0.57251776D-04 -0.10719425D-03  0.20641785D-03 -0.14950061D-03
 -0.10495845D-04 -0.36135925D-04  0.46631771D-04 -0.16155537D-04  0.38448330D-04
  0.12941144D-04  0.34842668D-04  0.62840186D-04  0.92657817D-04 -0.32360759D-03
 -0.97546185D-03  0.10302176D-04  0.54919919D-04  0.29051562D-04 -0.21224036D-04
  0.23715406D-03  0.87455818D-04 -0.23684741D-03  0.14790038D-03  0.42915647D-04
 -0.19488939D-04 -0.10060611D-04  0.69991787D-04 -0.59931177D-04 -0.10534772D-03
  0.21357939D-03  0.14983957D-03  0.11484786D-04  0.37332746D-04 -0.48817532D-04
 -0.16420186D-04  0.38349145D-04 -0.12480212D-04  0.37403593D-04  0.69978131D-04
  0.12090669D-03  0.19600395D-03  0.29765080D-03  0.41370661D-03  0.49186546D-03
  0.43817084D-03  0.21760491D-03  0.35032549D-04  0.36961408D-06  0.17506592D-06
  0.58399059D-05  0.20350903D-04  0.73286896D-04  0.16155184D-03  0.22741285D-03
 -0.10848334D-04 -0.29760921D-03 -0.17597446D-03  0.44716397D-08  0.54162476D-07
  0.11295013D-06  0.32392132D-06  0.16820783D-07 -0.13969058D-05 -0.36093364D-05
  0.29407174D-05 -0.11078312D-04 -0.72579886D-06 -0.43722830D-06  0.11610099D+02
  0.15293217D+02  0.16870812D+02  0.14012530D+02  0.74410424D+01  0.19198278D+01
  0.12251164D+00  0.16137649D+00  0.17802353D+00  0.14786248D+00  0.78519079D-01
  0.20258333D-01  0.35030078D-03  0.46142807D-03  0.50902739D-03  0.42278711D-03
  0.22451168D-03  0.57925188D-04 -0.45945901D-03  0.44417540D-02  0.62633369D-02
  0.89582286D-02 -0.45363209D-04 -0.82155405D-02 -0.48265979D-05  0.46660443D-04
  0.65796095D-04  0.94105821D-04 -0.47653863D-06 -0.86303914D-04 -0.59434844D-08
  0.57457783D-07  0.81021472D-07  0.11588214D-06 -0.58681083D-09 -0.10627485D-06
  0.76646820D-01  0.80824168D-03  0.24209860D-05 -0.64404458D-03 -0.70098949D-05
  0.32906139D-06 -0.58014281D-04 -0.63031732D-06  0.28825349D-07  0.60087189D-06
 -0.18678914D-06 -0.41408275D-06  0.24714720D-04 -0.98014253D-03 -0.99310166D-05
 -0.18398160D-06 -0.76144073D-08  0.19159601D-06 -0.86292212D-05  0.35547178D-03
  0.34680380D-05  0.32279679D-07 -0.25516750D-07 -0.67629287D-08  0.25700765D-05
 -0.60856655D-04 -0.51488470D-06  0.22504319D-05  0.96137201D-08 -0.69659462D-08
  0.21852554D-05 -0.17706448D-06  0.68480826D-06 -0.89365512D-05  0.14822331D-06
 -0.66391042D-06  0.70294658D-04  0.14663376D-04  0.14992370D-06 -0.72180847D-07
  0.14651333D-04  0.21623367D-06 -0.52023249D-07 -0.58641460D-04 -0.66600477D-06
  0.26856579D-06 -0.14508794D-04 -0.61349541D-06 -0.11435565D-05 -0.19385830D-05
 -0.29352769D-05 -0.36697426D-05 -0.31566367D-05 -0.12106381D-05 -0.37118023D-08
 -0.49137312D-07 -0.17847566D-06 -0.52944468D-06 -0.61007805D-06  0.74103067D-06
 -0.17952861D-06 -0.16450573D-05 -0.66294083D-06 -0.29235808D-03 -0.28591981D-03
 -0.18891931D-03 -0.20364849D-05 -0.19916377D-05 -0.13159593D-05  0.13045249D-05
  0.12757969D-05  0.84297292D-06 -0.83726964D-05  0.12123069D-06  0.18775561D-06
 -0.66935935D-04 -0.48038094D-06 -0.67058118D-06 -0.19622628D-04 -0.21568550D-06
 -0.29923253D-07  0.12054941D-05 -0.14644944D-05  0.25900034D-06  0.14163751D-03
 -0.13376822D-03 -0.23342172D-05 -0.58212907D-06  0.76489393D-06 -0.18276486D-06
 -0.70991211D-04  0.10254127D-03  0.14441834D-05  0.34933206D-06 -0.37565704D-06
  0.26324980D-07  0.35913360D-04 -0.74273349D-04 -0.72532948D-06 -0.71090969D-04
 -0.28349685D-06 -0.50499799D-06 -0.72417706D-04 -0.12058151D-05 -0.33315608D-05
  0.28569061D-03  0.20563056D-05  0.48465548D-05 -0.37666176D-03  0.25252226D-04
  0.10146132D-06  0.17476492D-06  0.25656116D-04  0.38681014D-06  0.10458211D-05
 -0.10141279D-03 -0.69119410D-06 -0.15701159D-05  0.11953392D-03
MO    2     MO 0.0        OCC NO =    2.0000300  ORB. ENERGY =    0.000000
 -0.87756931D-05 -0.16359660D-04 -0.27650054D-04 -0.41563188D-04 -0.51052932D-04
 -0.43086874D-04 -0.16201790D-04  0.12895655D-07  0.96387029D-07  0.36022034D-06
  0.10049586D-05  0.13463675D-05 -0.15898090D-05 -0.35390543D-05  0.14513200D-04
  0.44826933D-06 -0.92956558D-06 -0.87152682D-06 -0.62057902D-06  0.11126890D-03
  0.10432166D-03  0.74283239D-04  0.33197511D-06  0.31124777D-06  0.22162695D-06
 -0.26130151D-05  0.36450364D-03 -0.13788136D-05 -0.46691439D-05  0.46472510D-03
 -0.69054631D-06 -0.34570060D-07  0.92098683D-05 -0.10500293D-07  0.63334168D-04
 -0.64934261D-04  0.16000933D-05 -0.17243336D-05  0.59384258D-05 -0.51050276D-03
  0.19516236D-03 -0.19239420D-03 -0.27681529D-05 -0.76800004D-05 -0.13750699D-06
  0.97324072D-04  0.40797171D-04 -0.41576968D-04  0.77979657D-06 -0.19006509D-05
  0.84174702D-06 -0.66316541D-04 -0.19381358D-06  0.93066329D-04  0.47352783D-06
 -0.39247270D-05  0.92834393D-04  0.23523796D-04  0.45061678D-05 -0.37203338D-03
 -0.24944379D-04  0.16989260D-05  0.86891245D-06 -0.28108534D-04  0.35823152D-07
 -0.11626884D-05 -0.23440094D-04  0.49812720D-04 -0.14440490D-05  0.10776570D-03
 -0.49920189D-04 -0.19829862D-05 -0.40244940D-04 -0.72583407D-04 -0.10702419D-03
  0.35899560D-03  0.11244019D-02 -0.12341074D-04  0.48448470D-07  0.71880177D-04
  0.24405729D-04  0.24402306D-06  0.28760822D-03  0.26868664D-03 -0.13883493D-05
  0.17199900D-03  0.22264628D-04 -0.11035638D-03  0.43030635D-04  0.67325743D-04
  0.32181125D-06  0.56774305D-06  0.29692168D-03 -0.43030752D-04 -0.11793372D-04
  0.54824124D-04 -0.32729881D-06 -0.10003169D-05  0.31137069D-04  0.20710624D-04
  0.37352463D-04  0.55076185D-04 -0.19566399D-03 -0.57441457D-03  0.63723631D-05
 -0.29810134D-04  0.22349472D-04 -0.12274447D-04 -0.93989864D-04  0.13559958D-03
 -0.13678094D-03 -0.44237939D-04  0.10102487D-03 -0.11026946D-04  0.88538305D-05
  0.25404882D-04 -0.34258712D-04  0.82483490D-04 -0.15073240D-03  0.42399182D-04
  0.21370065D-04  0.79753409D-05 -0.29345406D-04  0.26715137D-04  0.12690204D-04
  0.52853325D-04  0.19509800D-04  0.35186727D-04  0.51882809D-04 -0.18872766D-03
 -0.55110705D-03  0.59175296D-05  0.29055715D-04  0.20706636D-04 -0.12348219D-04
  0.85256441D-04  0.13754526D-03 -0.13257191D-03  0.40480491D-04  0.10046438D-03
 -0.10754625D-04  0.10725984D-04  0.22541094D-04 -0.33267078D-04 -0.79583071D-04
  0.14668338D-03  0.37735448D-04  0.21088034D-04  0.68764090D-05 -0.27964443D-04
 -0.26623018D-04 -0.13713073D-04  0.54088118D-04  0.49101401D-05  0.91863482D-05
  0.15871972D-04  0.25730332D-04  0.39073978D-04  0.54309153D-04  0.64569421D-04
  0.57520684D-04  0.28565988D-04  0.45988824D-05  0.48520926D-07  0.22014414D-07
  0.73436399D-06  0.25591115D-05  0.92157748D-05  0.20315029D-04  0.28597004D-04
 -0.13641703D-05 -0.37424145D-04 -0.22128663D-04  0.23099743D-08  0.27979430D-07
  0.58348152D-07  0.16733234D-06  0.86893354D-08 -0.72161821D-06 -0.18645229D-05
  0.15191255D-05 -0.16436572D-05 -0.35064875D-05 -0.68772202D-06 -0.12250884D+00
 -0.16137280D+00 -0.17801946D+00 -0.14785910D+00 -0.78517286D-01 -0.20257870D-01
  0.11610082D+02  0.15293194D+02  0.16870787D+02  0.14012509D+02  0.74410313D+01
  0.19198250D+01 -0.53812856D-02 -0.70884120D-02 -0.78196280D-02 -0.64948133D-02
 -0.34489261D-02 -0.88984096D-03  0.48702329D-05 -0.47082278D-04 -0.66390927D-04
 -0.94956588D-04  0.48084680D-06  0.87084148D-04 -0.45950467D-03  0.44421954D-02
  0.62639593D-02  0.89591188D-02 -0.45367717D-04 -0.82163569D-02  0.26026822D-06
 -0.25161057D-05 -0.35479717D-05 -0.50745381D-05  0.25696747D-07  0.46538300D-05
 -0.80936134D-03  0.76650854D-01 -0.36242335D-04  0.65749392D-05 -0.64305448D-03
  0.11915424D-05  0.59319526D-06 -0.57931423D-04  0.70412542D-07  0.12398599D-04
 -0.12539457D-04  0.14085767D-06 -0.16578879D-06  0.10765412D-04 -0.98101599D-03
 -0.43387507D-05  0.44085980D-05 -0.69847243D-07  0.15762754D-06 -0.40464312D-05
  0.35669032D-03  0.12512061D-05 -0.12632916D-05  0.12085596D-07 -0.38899533D-07
  0.77248648D-06 -0.61267665D-04 -0.10938447D-06  0.26366522D-05  0.52159487D-07
 -0.15573217D-07  0.20132762D-05  0.34842248D-04  0.34372663D-06 -0.99232327D-05
 -0.34998726D-04 -0.13259366D-05 -0.14109169D-06  0.14592443D-04 -0.87421521D-07
 -0.14850596D-06  0.14804500D-04 -0.69853183D-05  0.57178102D-06 -0.58581830D-04
  0.72475829D-05  0.22611745D-06  0.12005087D-05  0.22377503D-05  0.37934853D-05
  0.57438497D-05  0.71810772D-05  0.61770141D-05  0.23690179D-05 -0.46628817D-08
 -0.61727823D-07 -0.22420668D-06 -0.66510490D-06 -0.76639906D-06  0.93090581D-06
 -0.28406755D-07 -0.23031734D-05 -0.12905884D-05  0.41262887D-05  0.40354202D-05
  0.26663728D-05 -0.29188485D-03 -0.28545701D-03 -0.18861351D-03 -0.19158186D-05
 -0.18736287D-05 -0.12379857D-05  0.29730694D-06 -0.88095051D-05 -0.97000047D-06
  0.93602663D-06 -0.66985735D-04 -0.59089869D-06  0.19758868D-06 -0.19500088D-04
 -0.12099046D-06  0.70540119D-04 -0.71094208D-04  0.55408907D-06 -0.27449982D-05
  0.46110324D-06 -0.13084743D-03 -0.35305523D-04  0.35747155D-04 -0.44163199D-06
  0.13668978D-05 -0.70864321D-06  0.10122238D-03  0.17783702D-04 -0.18130619D-04
  0.34691716D-06 -0.64520123D-06  0.84289992D-06 -0.74132339D-04  0.96459771D-06
 -0.71393329D-04 -0.14129208D-05  0.11035154D-05 -0.73137050D-04 -0.18564174D-03
 -0.39973085D-05  0.28731704D-03  0.18988051D-03  0.61609706D-05 -0.35458909D-06
  0.25397110D-04  0.50704605D-06 -0.39445370D-06  0.25912464D-04  0.58825666D-04
  0.14582210D-05 -0.10210380D-03 -0.60346804D-04 -0.19335113D-05
MO    3     MO 0.0        OCC NO =    2.0000210  ORB. ENERGY =    0.000000
 -0.14462257D-01 -0.26960560D-01 -0.45567019D-01 -0.68495729D-01 -0.84134735D-01
 -0.71006748D-01 -0.26700392D-01 -0.38184849D-05 -0.28540809D-04 -0.10666352D-03
 -0.29757461D-03 -0.39866794D-03  0.47075250D-03 -0.87151640D-03 -0.19298712D-02
 -0.81709773D-04  0.20391479D-05  0.19118308D-05  0.13613374D-05 -0.85762638D-06
 -0.80407925D-06 -0.57255233D-06  0.11663624D-02  0.10935389D-02  0.77866483D-03
 -0.67522813D-05  0.25084091D-05  0.60569781D-03 -0.39227653D-05 -0.18834919D-05
 -0.37868691D-03  0.22925707D-07  0.62246927D-07  0.46718701D-05 -0.10437438D-03
 -0.10588773D-03  0.21026211D-03 -0.19084726D-05  0.12144376D-06 -0.27659112D-06
 -0.23395576D-04 -0.25372054D-04  0.48767630D-04 -0.24939309D-05  0.18541247D-05
  0.16755973D-06  0.11263558D-04  0.11658594D-04 -0.22922151D-04 -0.47847566D-06
 -0.37276591D-06 -0.34834109D-06 -0.46544275D-06  0.36222067D-04  0.76200386D-05
  0.77254575D-06 -0.10882974D-03 -0.11759921D-04  0.62378250D-06  0.16353809D-06
 -0.11100195D-04  0.33110200D-06 -0.35553528D-06  0.52004592D-04 -0.85567189D-04
  0.14345077D-05 -0.15569069D-03  0.12829620D-03 -0.36790181D-06 -0.32308352D-06
  0.12840537D-03  0.50972455D-06 -0.46739301D-05 -0.84296254D-05 -0.12429478D-04
  0.75416157D-03  0.23209067D-03  0.51782391D-05  0.92104293D-06  0.95807461D-04
  0.28763247D-04 -0.26862440D-05  0.20089034D-03 -0.42009210D-05 -0.72592087D-06
  0.43646716D-04  0.38221806D-04 -0.74111029D-04  0.54690755D-04  0.19420274D-04
 -0.66620592D-06 -0.86537769D-06  0.76179607D-04 -0.97607673D-05 -0.11844220D-04
  0.21604988D-04 -0.55922285D-06  0.14137636D-06 -0.34461869D-04 -0.53562970D-05
 -0.96603022D-05 -0.14244110D-04  0.74463825D-03  0.22772078D-03  0.49285214D-05
  0.81492962D-04 -0.46684126D-04  0.26932860D-04  0.16907364D-03 -0.10410935D-03
 -0.28484281D-05  0.36427501D-04 -0.22512048D-04  0.38230819D-04  0.21003192D-04
 -0.40054130D-04  0.19050938D-04 -0.11271627D-03  0.64390479D-04 -0.39448103D-04
 -0.11791105D-04 -0.99841885D-05  0.21775293D-04  0.21111024D-05 -0.29471478D-04
  0.17396008D-04 -0.48553055D-05 -0.87567435D-05 -0.12911813D-04  0.75763036D-03
  0.24403959D-03  0.50064690D-05 -0.83530293D-04 -0.47990717D-04  0.28609360D-04
 -0.17417965D-03 -0.10206785D-03 -0.43031441D-05 -0.39157062D-04 -0.22829302D-04
  0.39408438D-04  0.22318941D-04 -0.41679396D-04  0.19360455D-04  0.11211875D-03
 -0.65581733D-04 -0.38397925D-04 -0.11372852D-04 -0.10383940D-04  0.21756791D-04
 -0.17357924D-05  0.30169923D-04  0.17296021D-04 -0.15462855D+00 -0.28929352D+00
 -0.49983503D+00 -0.81029131D+00 -0.12305051D+01 -0.17102863D+01 -0.20333994D+01
 -0.18114228D+01 -0.89959089D+00 -0.14482652D+00 -0.15280054D-02 -0.72296314D-03
 -0.24116840D-01 -0.84042359D-01 -0.30265014D+00 -0.66715457D+00 -0.93913832D+00
  0.44799958D-01  0.12290256D+01  0.72671513D+00 -0.15533154D-04 -0.18814442D-03
 -0.39235536D-03 -0.11252069D-02 -0.58430426D-04  0.48524377D-02  0.12537767D-01
 -0.10215183D-01  0.46608499D-01 -0.38468899D-03 -0.13201580D-03  0.18278465D-02
  0.24077014D-02  0.26560716D-02  0.22060754D-02  0.11714873D-02  0.30224984D-03
  0.30267286D-02  0.39869096D-02  0.43981854D-02  0.36530374D-02  0.19398642D-02
  0.50049510D-03  0.59385678D+01  0.78224830D+01  0.86294232D+01  0.71674117D+01
  0.38060945D+01  0.98199227D+00 -0.65073108D-07  0.62908494D-06  0.88707544D-06
  0.12687525D-05 -0.64247842D-08 -0.11635657D-05 -0.94370770D-07  0.91231589D-06
  0.12864606D-05  0.18399790D-05 -0.93173948D-08 -0.16874343D-05 -0.21066240D-03
  0.20365485D-02  0.28717460D-02  0.41073564D-02 -0.20799075D-04 -0.37668332D-02
  0.12347945D-04  0.20802821D-04  0.41633959D-01  0.41723065D-07 -0.70317175D-07
 -0.48362592D-03 -0.25852344D-07 -0.34381406D-07 -0.98366797D-05 -0.75170423D-05
 -0.72799938D-05  0.14797036D-04  0.14989226D-06  0.57792738D-07  0.69233407D-06
 -0.11118265D-03 -0.11125567D-03  0.22243832D-03 -0.29834623D-07 -0.74265838D-07
 -0.98480033D-07 -0.14279601D-04 -0.14330666D-04  0.28610266D-04  0.61498147D-08
 -0.56662214D-07  0.28404084D-07  0.83977056D-07 -0.72300590D-05  0.54536553D-05
 -0.16244178D-06  0.21668330D-04 -0.78796142D-05 -0.89489394D-07  0.21846624D-07
 -0.84813517D-05  0.75591908D-07 -0.29408269D-07  0.20572738D-05 -0.33662941D-04
  0.40359593D-07 -0.61590365D-05  0.50363954D-04  0.47865214D-07 -0.12784939D-07
  0.50624868D-04  0.94880608D-08 -0.87909598D-03 -0.16386364D-02 -0.27778538D-02
 -0.42060463D-02 -0.52584843D-02 -0.45232394D-02 -0.17347597D-02 -0.68261044D-06
 -0.90364841D-05 -0.32822154D-04 -0.97366303D-04 -0.11219500D-03  0.13627754D-03
 -0.95888767D-04 -0.15886917D-03  0.12558585D-04  0.30917886D-06  0.30237017D-06
  0.19978875D-06  0.23799897D-05  0.23275780D-05  0.15379292D-05  0.39005116D-02
  0.38146152D-02  0.25204775D-02  0.29367041D-06  0.97168980D-06  0.87888571D-03
 -0.10287612D-06 -0.11188190D-06  0.21571240D-04 -0.44258770D-07 -0.13647018D-07
  0.93441281D-05 -0.35580193D-04 -0.35703725D-04  0.71283918D-04  0.44405929D-06
 -0.35458015D-06 -0.76160874D-06  0.21035403D-04  0.21101802D-04 -0.42137205D-04
 -0.20329902D-06  0.17177376D-06  0.32549635D-06  0.18143432D-04  0.18093990D-04
 -0.36237422D-04  0.88585140D-07  0.10332174D-07 -0.14655554D-06  0.19967931D-06
 -0.29414259D-05  0.46625982D-04  0.96802061D-07  0.93650519D-05 -0.70594996D-04
 -0.69584000D-06 -0.54077429D-06 -0.69282950D-04 -0.62536769D-06 -0.76893757D-07
  0.92614524D-06 -0.25460464D-04 -0.44623587D-07 -0.29388367D-05  0.38380646D-04
  0.27530486D-06  0.16040101D-06  0.38000747D-04  0.19860260D-06
MO    4     MO 0.0        OCC NO =    2.0000123  ORB. ENERGY =    0.000000
  0.26635286D-01  0.49653539D-01  0.83921246D-01  0.12614929D+00  0.15495180D+00
  0.13077385D+00  0.49174384D-01 -0.14915188D-05 -0.11148179D-04 -0.41663291D-04
 -0.11623409D-03 -0.15572164D-03  0.18387822D-03  0.26311303D-02 -0.35999963D-02
 -0.41398933D-04 -0.24932509D-05 -0.23375812D-05 -0.16644971D-05  0.29249990D-05
  0.27423725D-05  0.19527326D-05  0.36691296D-02  0.34400422D-02  0.24495150D-02
 -0.95369266D-05  0.62238975D-05  0.13032485D-02 -0.68274134D-05 -0.78173510D-06
 -0.41604749D-03  0.83761457D-08  0.68549493D-07  0.37277604D-05 -0.31904395D-03
 -0.31969697D-03  0.63874091D-03 -0.17824390D-05 -0.20917450D-06  0.10725769D-06
  0.12588754D-04  0.61695903D-05 -0.18758344D-04 -0.27764090D-05  0.33124137D-05
 -0.45992974D-06 -0.17542080D-04 -0.18171166D-04  0.35713246D-04 -0.35041542D-06
 -0.48921721D-06 -0.25948108D-06  0.32290795D-06 -0.41847446D-04  0.22312929D-04
 -0.11436217D-05  0.12537147D-03 -0.33930274D-04  0.17489788D-06  0.17086981D-06
 -0.33008515D-04  0.65426922D-06 -0.51129581D-06  0.82119684D-04 -0.16359718D-03
  0.23111048D-05 -0.24567782D-03  0.24472219D-03 -0.77721738D-06 -0.68123414D-06
  0.24606936D-03  0.37095256D-06 -0.90206912D-04 -0.16269188D-03 -0.23988908D-03
  0.10268161D-02  0.68625149D-03  0.43654795D-05  0.13427455D-05 -0.57210042D-04
  0.34476273D-04 -0.33806286D-05  0.30814705D-03 -0.44110072D-04 -0.68665474D-06
  0.11132434D-03  0.75445175D-04 -0.14292460D-03  0.25311822D-04  0.11761278D-03
  0.35170898D-06 -0.14648275D-05  0.14296011D-03 -0.14971844D-04 -0.20635199D-04
  0.35607042D-04 -0.71079737D-06  0.83083706D-07 -0.62783999D-04 -0.89835210D-04
 -0.16202150D-03 -0.23890061D-03  0.10081168D-02  0.66674012D-03  0.40781947D-05
 -0.51629732D-04  0.32528082D-04  0.30677042D-04  0.25884570D-03 -0.15724692D-03
 -0.40415932D-04  0.93775017D-04 -0.55302494D-04  0.74901254D-04 -0.19242572D-04
 -0.99053663D-04  0.11829624D-03 -0.14178671D-03  0.12030066D-03 -0.73039009D-04
 -0.19572063D-04 -0.16112082D-04  0.35684145D-04  0.55478527D-05 -0.53617723D-04
  0.31200723D-04 -0.90153813D-04 -0.16259612D-03 -0.23974788D-03  0.10259652D-02
  0.69259343D-03  0.42301307D-05  0.48934341D-04  0.28849283D-04  0.33743685D-04
 -0.26544724D-03 -0.15424552D-03 -0.43315073D-04 -0.97883056D-04 -0.55795554D-04
  0.76682525D-04 -0.16401419D-04 -0.10132682D-03  0.11772824D-03  0.14575995D-03
 -0.12312840D-03 -0.71577107D-04 -0.19207230D-04 -0.16632925D-04  0.35840155D-04
 -0.52478206D-05  0.54941875D-04  0.31249738D-04  0.91277943D-01  0.17077129D+00
  0.29505491D+00  0.47831868D+00  0.72637282D+00  0.10095899D+01  0.12003250D+01
  0.10692912D+01  0.53103263D+00  0.85491761D-01  0.90198858D-03  0.42736211D-03
  0.14256085D-01  0.49679601D-01  0.17890429D+00  0.39437223D+00  0.55514882D+00
 -0.26482408D-01 -0.72650864D+00 -0.42958001D+00  0.62756052D-05  0.76012905D-04
  0.15851690D-03  0.45459887D-03  0.23606686D-04 -0.19604508D-02 -0.50654283D-02
  0.41270726D-02 -0.28533942D-01  0.14170212D-02 -0.18234567D-03 -0.15260076D-02
 -0.20101090D-02 -0.22174648D-02 -0.18417782D-02 -0.97803531D-03 -0.25233822D-03
  0.44509236D-02  0.58629076D-02  0.64677048D-02  0.53719352D-02  0.28526467D-02
  0.73599775D-03  0.99166519D+01  0.13062550D+02  0.14410038D+02  0.11968665D+02
  0.63556931D+01  0.16398020D+01  0.51314393D-07 -0.49607453D-06 -0.69951687D-06
 -0.10004942D-05  0.50663617D-08  0.91754752D-06 -0.13068979D-06  0.12634248D-05
  0.17815608D-05  0.25481032D-05 -0.12903236D-07 -0.23368510D-05 -0.33685798D-03
  0.32565263D-02  0.45920420D-02  0.65678348D-02 -0.33258591D-04 -0.60233239D-02
 -0.11058640D-04  0.31970472D-04  0.72571363D-01  0.24970424D-06 -0.11749306D-07
 -0.30559567D-03 -0.14925352D-07 -0.40271258D-07 -0.39344256D-05  0.45404560D-03
  0.45409813D-03 -0.90814374D-03  0.22941032D-06  0.64308615D-06 -0.26027586D-06
 -0.30937763D-03 -0.30945077D-03  0.61882839D-03 -0.44906532D-07 -0.33500557D-06
  0.21555921D-06  0.44201300D-05  0.43737655D-05 -0.87938955D-05 -0.25576907D-07
 -0.80109001D-07  0.17407019D-07  0.17460357D-06 -0.14537166D-04 -0.46977646D-04
 -0.32053927D-06  0.43639124D-04  0.70938120D-04 -0.20327143D-06 -0.27626132D-07
  0.69994819D-04 -0.16991625D-06 -0.62753340D-07  0.41906293D-05 -0.62454342D-04
  0.78868448D-07 -0.12514862D-04  0.93455404D-04  0.10939157D-06 -0.57025543D-07
  0.93907622D-04  0.11307496D-06 -0.63503739D-02 -0.11837108D-01 -0.20066535D-01