 title line                                              
GAUSSIAN            211 MOL ORBITALS    339 PRIMITIVES        6 NUCLEI
  C    1    (CENTRE  1)   0.00033070  0.00005480 -0.94053370  CHARGE =  6.0
  H    2    (CENTRE  2)   0.00003590 -1.98906904 -1.17300214  CHARGE =  1.0
  H    3    (CENTRE  3)  -1.72213010  0.99468570 -1.17398291  CHARGE =  1.0
  H    4    (CENTRE  4)   1.72295780  0.99424539 -1.17459707  CHARGE =  1.0
  Cl   5    (CENTRE  5)  -0.01784846  0.00181792  3.10806659  CHARGE = 17.0
  F    6    (CENTRE  6)  -0.00035149 -0.00174044 -4.90092914  CHARGE =  9.0
CENTRE ASSIGNMENTS    1  1  1  1  1  1  1  1  1  1  1  1  1  1  1  1  1  1  1  1
CENTRE ASSIGNMENTS    1  1  1  1  1  1  1  1  1  1  1  1  1  1  1  1  1  1  1  1
CENTRE ASSIGNMENTS    1  1  1  1  1  1  1  1  1  1  1  1  1  1  1  1  1  1  1  1
CENTRE ASSIGNMENTS    1  1  1  1  1  1  1  1  1  1  1  1  2  2  2  2  2  2  2  2
CENTRE ASSIGNMENTS    2  2  2  2  2  2  2  2  2  2  2  2  2  2  2  2  2  2  2  3
CENTRE ASSIGNMENTS    3  3  3  3  3  3  3  3  3  3  3  3  3  3  3  3  3  3  3  3
CENTRE ASSIGNMENTS    3  3  3  3  3  3  4  4  4  4  4  4  4  4  4  4  4  4  4  4
CENTRE ASSIGNMENTS    4  4  4  4  4  4  4  4  4  4  4  4  4  5  5  5  5  5  5  5
CENTRE ASSIGNMENTS    5  5  5  5  5  5  5  5  5  5  5  5  5  5  5  5  5  5  5  5
CENTRE ASSIGNMENTS    5  5  5  5  5  5  5  5  5  5  5  5  5  5  5  5  5  5  5  5
CENTRE ASSIGNMENTS    5  5  5  5  5  5  5  5  5  5  5  5  5  5  5  5  5  5  5  5
CENTRE ASSIGNMENTS    5  5  5  5  5  5  5  5  5  5  5  5  5  5  5  5  5  5  5  5
CENTRE ASSIGNMENTS    5  5  5  5  5  5  5  5  5  5  5  5  5  5  5  5  5  5  5  5
CENTRE ASSIGNMENTS    5  5  5  5  5  5  5  6  6  6  6  6  6  6  6  6  6  6  6  6
CENTRE ASSIGNMENTS    6  6  6  6  6  6  6  6  6  6  6  6  6  6  6  6  6  6  6  6
CENTRE ASSIGNMENTS    6  6  6  6  6  6  6  6  6  6  6  6  6  6  6  6  6  6  6  6
CENTRE ASSIGNMENTS    6  6  6  6  6  6  6  6  6  6  6  6  6  6  6  6  6  6  6
TYPE ASSIGNMENTS      1  1  1  1  1  1  1  1  1  1  1  1  1  1  1  1  2  2  2  3
TYPE ASSIGNMENTS      3  3  4  4  4  2  3  4  2  3  4  2  3  4  5  6  7  8  9 10
TYPE ASSIGNMENTS      5  6  7  8  9 10  5  6  7  8  9 10 11 12 13 17 14 15 18 19
TYPE ASSIGNMENTS     16 20 11 12 13 17 14 15 18 19 16 20  1  1  1  1  1  1  2  3
TYPE ASSIGNMENTS      4  2  3  4  2  3  4  5  6  7  8  9 10  5  6  7  8  9 10  1
TYPE ASSIGNMENTS      1  1  1  1  1  2  3  4  2  3  4  2  3  4  5  6  7  8  9 10
TYPE ASSIGNMENTS      5  6  7  8  9 10  1  1  1  1  1  1  2  3  4  2  3  4  2  3
TYPE ASSIGNMENTS      4  5  6  7  8  9 10  5  6  7  8  9 10  1  1  1  1  1  1  1
TYPE ASSIGNMENTS      1  1  1  1  1  1  1  1  1  1  1  1  1  1  1  1  1  1  1  1
TYPE ASSIGNMENTS      1  1  1  1  2  2  2  2  2  2  3  3  3  3  3  3  4  4  4  4
TYPE ASSIGNMENTS      4  4  2  2  2  2  2  2  3  3  3  3  3  3  4  4  4  4  4  4
TYPE ASSIGNMENTS      2  3  4  2  3  4  2  3  4  5  6  7  8  9 10  5  6  7  8  9
TYPE ASSIGNMENTS     10  5  6  7  8  9 10 11 12 13 17 14 15 18 19 16 20 11 12 13
TYPE ASSIGNMENTS     17 14 15 18 19 16 20  1  1  1  1  1  1  1  1  1  1  1  1  1
TYPE ASSIGNMENTS      1  1  1  2  2  2  3  3  3  4  4  4  2  3  4  2  3  4  2  3
TYPE ASSIGNMENTS      4  5  6  7  8  9 10  5  6  7  8  9 10  5  6  7  8  9 10 11
TYPE ASSIGNMENTS     12 13 17 14 15 18 19 16 20 11 12 13 17 14 15 18 19 16 20
EXPONENTS  0.8236000D+04 0.1235000D+04 0.2808000D+03 0.7927000D+02 0.2559000D+02
EXPONENTS  0.8997000D+01 0.3319000D+01 0.2808000D+03 0.7927000D+02 0.2559000D+02
EXPONENTS  0.8997000D+01 0.3319000D+01 0.3643000D+00 0.9059000D+00 0.1285000D+00
EXPONENTS  0.4402000D-01 0.1871000D+02 0.4133000D+01 0.1200000D+01 0.1871000D+02
EXPONENTS  0.4133000D+01 0.1200000D+01 0.1871000D+02 0.4133000D+01 0.1200000D+01
EXPONENTS  0.3827000D+00 0.3827000D+00 0.3827000D+00 0.1209000D+00 0.1209000D+00
EXPONENTS  0.1209000D+00 0.3569000D-01 0.3569000D-01 0.3569000D-01 0.1097000D+01
EXPONENTS  0.1097000D+01 0.1097000D+01 0.1097000D+01 0.1097000D+01 0.1097000D+01
EXPONENTS  0.3180000D+00 0.3180000D+00 0.3180000D+00 0.3180000D+00 0.3180000D+00
EXPONENTS  0.3180000D+00 0.1000000D+00 0.1000000D+00 0.1000000D+00 0.1000000D+00
EXPONENTS  0.1000000D+00 0.1000000D+00 0.7610000D+00 0.7610000D+00 0.7610000D+00
EXPONENTS  0.7610000D+00 0.7610000D+00 0.7610000D+00 0.7610000D+00 0.7610000D+00
EXPONENTS  0.7610000D+00 0.7610000D+00 0.2680000D+00 0.2680000D+00 0.2680000D+00
EXPONENTS  0.2680000D+00 0.2680000D+00 0.2680000D+00 0.2680000D+00 0.2680000D+00
EXPONENTS  0.2680000D+00 0.2680000D+00 0.3387000D+02 0.5095000D+01 0.1159000D+01
EXPONENTS  0.3258000D+00 0.1027000D+00 0.2526000D-01 0.1407000D+01 0.1407000D+01
EXPONENTS  0.1407000D+01 0.3880000D+00 0.3880000D+00 0.3880000D+00 0.1020000D+00
EXPONENTS  0.1020000D+00 0.1020000D+00 0.1057000D+01 0.1057000D+01 0.1057000D+01
EXPONENTS  0.1057000D+01 0.1057000D+01 0.1057000D+01 0.2470000D+00 0.2470000D+00
EXPONENTS  0.2470000D+00 0.2470000D+00 0.2470000D+00 0.2470000D+00 0.3387000D+02
EXPONENTS  0.5095000D+01 0.1159000D+01 0.3258000D+00 0.1027000D+00 0.2526000D-01
EXPONENTS  0.1407000D+01 0.1407000D+01 0.1407000D+01 0.3880000D+00 0.3880000D+00
EXPONENTS  0.3880000D+00 0.1020000D+00 0.1020000D+00 0.1020000D+00 0.1057000D+01
EXPONENTS  0.1057000D+01 0.1057000D+01 0.1057000D+01 0.1057000D+01 0.1057000D+01
EXPONENTS  0.2470000D+00 0.2470000D+00 0.2470000D+00 0.2470000D+00 0.2470000D+00
EXPONENTS  0.2470000D+00 0.3387000D+02 0.5095000D+01 0.1159000D+01 0.3258000D+00
EXPONENTS  0.1027000D+00 0.2526000D-01 0.1407000D+01 0.1407000D+01 0.1407000D+01
EXPONENTS  0.3880000D+00 0.3880000D+00 0.3880000D+00 0.1020000D+00 0.1020000D+00
EXPONENTS  0.1020000D+00 0.1057000D+01 0.1057000D+01 0.1057000D+01 0.1057000D+01
EXPONENTS  0.1057000D+01 0.1057000D+01 0.2470000D+00 0.2470000D+00 0.2470000D+00
EXPONENTS  0.2470000D+00 0.2470000D+00 0.2470000D+00 0.4561000D+06 0.6833000D+05
EXPONENTS  0.1555000D+05 0.4405000D+04 0.1439000D+04 0.5204000D+03 0.2031000D+03
EXPONENTS  0.8396000D+02 0.3620000D+02 0.1583000D+02 0.6334000D+01 0.4405000D+04
EXPONENTS  0.1439000D+04 0.5204000D+03 0.2031000D+03 0.8396000D+02 0.3620000D+02
EXPONENTS  0.1583000D+02 0.6334000D+01 0.2694000D+01 0.1439000D+04 0.2031000D+03
EXPONENTS  0.8396000D+02 0.3620000D+02 0.1583000D+02 0.6334000D+01 0.2694000D+01
EXPONENTS  0.4313000D+00 0.9768000D+00 0.1625000D+00 0.5910000D-01 0.6633000D+03
EXPONENTS  0.1568000D+03 0.4998000D+02 0.1842000D+02 0.7240000D+01 0.2922000D+01
EXPONENTS  0.6633000D+03 0.1568000D+03 0.4998000D+02 0.1842000D+02 0.7240000D+01
EXPONENTS  0.2922000D+01 0.6633000D+03 0.1568000D+03 0.4998000D+02 0.1842000D+02
EXPONENTS  0.7240000D+01 0.2922000D+01 0.1568000D+03 0.4998000D+02 0.1842000D+02
EXPONENTS  0.7240000D+01 0.2922000D+01 0.3818000D+00 0.1568000D+03 0.4998000D+02
EXPONENTS  0.1842000D+02 0.7240000D+01 0.2922000D+01 0.3818000D+00 0.1568000D+03
EXPONENTS  0.4998000D+02 0.1842000D+02 0.7240000D+01 0.2922000D+01 0.3818000D+00
EXPONENTS  0.1022000D+01 0.1022000D+01 0.1022000D+01 0.1301000D+00 0.1301000D+00
EXPONENTS  0.1301000D+00 0.4190000D-01 0.4190000D-01 0.4190000D-01 0.1046000D+01
EXPONENTS  0.1046000D+01 0.1046000D+01 0.1046000D+01 0.1046000D+01 0.1046000D+01
EXPONENTS  0.3440000D+00 0.3440000D+00 0.3440000D+00 0.3440000D+00 0.3440000D+00
EXPONENTS  0.3440000D+00 0.1350000D+00 0.1350000D+00 0.1350000D+00 0.1350000D+00
EXPONENTS  0.1350000D+00 0.1350000D+00 0.7060000D+00 0.7060000D+00 0.7060000D+00
EXPONENTS  0.7060000D+00 0.7060000D+00 0.7060000D+00 0.7060000D+00 0.7060000D+00
EXPONENTS  0.7060000D+00 0.7060000D+00 0.3120000D+00 0.3120000D+00 0.3120000D+00
EXPONENTS  0.3120000D+00 0.3120000D+00 0.3120000D+00 0.3120000D+00 0.3120000D+00
EXPONENTS  0.3120000D+00 0.3120000D+00 0.1950000D+05 0.2923000D+04 0.6645000D+03
EXPONENTS  0.1875000D+03 0.6062000D+02 0.2142000D+02 0.7950000D+01 0.6645000D+03
EXPONENTS  0.1875000D+03 0.6062000D+02 0.2142000D+02 0.7950000D+01 0.8815000D+00
EXPONENTS  0.2257000D+01 0.3041000D+00 0.9158000D-01 0.4388000D+02 0.9926000D+01
EXPONENTS  0.2930000D+01 0.4388000D+02 0.9926000D+01 0.2930000D+01 0.4388000D+02
EXPONENTS  0.9926000D+01 0.2930000D+01 0.9132000D+00 0.9132000D+00 0.9132000D+00
EXPONENTS  0.2672000D+00 0.2672000D+00 0.2672000D+00 0.7361000D-01 0.7361000D-01
EXPONENTS  0.7361000D-01 0.3107000D+01 0.3107000D+01 0.3107000D+01 0.3107000D+01
EXPONENTS  0.3107000D+01 0.3107000D+01 0.8550000D+00 0.8550000D+00 0.8550000D+00
EXPONENTS  0.8550000D+00 0.8550000D+00 0.8550000D+00 0.2920000D+00 0.2920000D+00
EXPONENTS  0.2920000D+00 0.2920000D+00 0.2920000D+00 0.2920000D+00 0.1917000D+01
EXPONENTS  0.1917000D+01 0.1917000D+01 0.1917000D+01 0.1917000D+01 0.1917000D+01
EXPONENTS  0.1917000D+01 0.1917000D+01 0.1917000D+01 0.1917000D+01 0.7240000D+00
EXPONENTS  0.7240000D+00 0.7240000D+00 0.7240000D+00 0.7240000D+00 0.7240000D+00
EXPONENTS  0.7240000D+00 0.7240000D+00 0.7240000D+00 0.7240000D+00
MO    1     MO 0.0        OCC NO =    2.0000300  ORB. ENERGY =    0.000000
  0.31884729D-04  0.59439559D-04  0.10046095D-03  0.15101155D-03  0.18549064D-03
  0.15654756D-03  0.58865969D-04 -0.14463106D-07 -0.10810275D-06 -0.40400468D-06
 -0.11271101D-05 -0.15100168D-05  0.17830483D-05  0.55565525D-05 -0.20279132D-04
 -0.20092621D-05  0.79709744D-04  0.74732952D-04  0.53214314D-04 -0.79225549D-04
 -0.74278988D-04 -0.52891065D-04  0.55403860D-05  0.51944641D-05  0.36987679D-05
  0.25661472D-03 -0.25508721D-03  0.10646683D-05  0.32833094D-03 -0.32631917D-03
 -0.71966078D-06  0.65879929D-05 -0.65466763D-05  0.29289811D-07 -0.43665140D-04
  0.44520723D-04 -0.85558326D-06  0.88495931D-04 -0.36188051D-03  0.35959872D-03
 -0.13777145D-03  0.13585571D-03  0.19157374D-05  0.27555081D-03  0.70671923D-04
 -0.70504623D-04 -0.28606591D-04  0.29175551D-04 -0.56895989D-06  0.58139867D-04
 -0.46609876D-04  0.46270794D-04  0.65675256D-04 -0.65015380D-04 -0.97239805D-06
  0.65689232D-04 -0.66045263D-04 -0.15401009D-04 -0.26271500D-03  0.26109140D-03
  0.18318203D-04  0.33395799D-04 -0.18942245D-04  0.19673097D-04  0.28840137D-06
 -0.18855835D-04  0.16255329D-04 -0.37015858D-04  0.75682569D-04 -0.75274622D-04
  0.36150654D-04  0.73800385D-04  0.28130252D-04  0.50734069D-04  0.74807355D-04
 -0.24865611D-03 -0.78987120D-03  0.87471007D-05  0.34713803D-05 -0.49698749D-04
 -0.16514150D-04  0.59336812D-04 -0.20076947D-03 -0.19185939D-03  0.53621545D-04
 -0.12113614D-03 -0.15629537D-04  0.76972487D-04 -0.29592218D-04 -0.47380269D-04
  0.22157078D-04 -0.32018802D-04 -0.21081653D-03  0.30325289D-04  0.82609502D-05
 -0.38586239D-04  0.20607721D-04  0.44179855D-04 -0.21989900D-04 -0.38312322D-04
 -0.69097850D-04 -0.10188474D-03  0.36310188D-03  0.10886741D-02 -0.11785323D-04
  0.60349552D-04 -0.36292041D-04  0.23898448D-04  0.23067221D-03 -0.15778079D-03
  0.26729803D-03  0.13489148D-03 -0.10023710D-03  0.22877448D-04 -0.50401065D-06
 -0.66841725D-04  0.67345736D-04 -0.13072931D-03  0.25573228D-03 -0.13419794D-03
 -0.22713467D-04 -0.31444115D-04  0.54157582D-04 -0.29971505D-04  0.18083523D-04
 -0.28772684D-04  0.10525762D-04  0.18983644D-04  0.27991373D-04 -0.86524290D-04
 -0.29206386D-03  0.33035295D-05  0.17828907D-04  0.48312637D-05 -0.58519256D-05
  0.10421986D-03 -0.33307095D-04 -0.70179619D-04  0.75255138D-04 -0.40800549D-04
 -0.54493969D-05 -0.14456632D-04  0.31551088D-04 -0.17094456D-04 -0.18974574D-04
  0.46260319D-04  0.76700715D-04 -0.71557002D-05  0.21151874D-04 -0.13996174D-04
  0.69481925D-05  0.37120225D-04 -0.48036534D-04  0.29539083D-04  0.55264472D-04
  0.95484749D-04  0.15479200D-03  0.23506650D-03  0.32672032D-03  0.38844543D-03
  0.34604068D-03  0.17185112D-03  0.27666577D-04  0.29189873D-06  0.14055059D-06
  0.46885324D-05  0.16338597D-04  0.58837932D-04  0.12970090D-03  0.18257701D-03
 -0.87095182D-05 -0.23893372D-03 -0.14128001D-03  0.46330642D-09  0.56117722D-08
  0.11702759D-07  0.33561476D-07  0.17428007D-08 -0.14473336D-06 -0.37396321D-06
  0.30468762D-06 -0.89787685D-05  0.44603935D-05  0.18962532D-06  0.82349764D+01
  0.10847390D+02  0.11966369D+02  0.99390068D+01  0.52778884D+01  0.13617228D+01
 -0.81848116D+01 -0.10781312D+02 -0.11893474D+02 -0.98784617D+01 -0.52457373D+01
 -0.13534276D+01  0.58634612D-01  0.77235500D-01  0.85202847D-01  0.70767635D-01
  0.37579578D-01  0.96957276D-02 -0.32593914D-03  0.31509699D-02  0.44431965D-02
  0.63549464D-02 -0.32180554D-04 -0.58280852D-02  0.32395372D-03 -0.31317761D-02
 -0.44161313D-02 -0.63162360D-02  0.31984530D-04  0.57925841D-02 -0.24259027D-05
  0.23452067D-04  0.33069862D-04  0.47298651D-04 -0.23951371D-06 -0.43377324D-04
  0.54365773D-01 -0.54034604D-01  0.39032836D-03 -0.45657550D-03  0.45380745D-03
 -0.43158621D-05 -0.41114514D-04  0.40864099D-04 -0.27207509D-06 -0.39092197D-05
  0.97316697D-05 -0.58224500D-05  0.13180307D-04 -0.69611967D-03  0.69190772D-03
  0.14561969D-05 -0.37345913D-05  0.22783944D-05 -0.50201924D-05  0.25278161D-03
 -0.25125209D-03 -0.73443345D-06  0.90592851D-06 -0.17149506D-06  0.16161072D-05
 -0.43333220D-04  0.43064393D-04  0.17925919D-05 -0.18541064D-05  0.62002531D-07
  0.18605470D-05 -0.15872631D-05 -0.25021896D-04 -0.72383228D-05  0.71495824D-05
  0.24835888D-04  0.50184596D-04  0.10406200D-04 -0.10299469D-04 -0.33782790D-06
  0.10328995D-04 -0.10410811D-04  0.57869151D-05 -0.41547595D-04  0.41309219D-04
 -0.47734315D-05 -0.10718482D-04 -0.56238119D-05 -0.10482795D-04 -0.17770673D-04
 -0.26907202D-04 -0.33639929D-04 -0.28936372D-04 -0.11097721D-04  0.51823917D-08
  0.68605162D-07  0.24918643D-06  0.73920686D-06  0.85178660D-06 -0.10346217D-05
 -0.26486110D-06  0.17959630D-05  0.32526726D-05 -0.20630883D-03 -0.20176553D-03
 -0.13331501D-03  0.20505859D-03  0.20054282D-03  0.13250712D-03  0.12493915D-04
  0.12218776D-04  0.80734617D-05 -0.65741295D-05  0.65543306D-05  0.92885605D-06
 -0.46940237D-04  0.46641858D-04  0.27900432D-05 -0.13885144D-04  0.13801042D-04
  0.44752229D-06 -0.49106375D-04  0.49908574D-04 -0.80219860D-06  0.99612694D-04
 -0.94074121D-04  0.93410827D-04  0.24747293D-04 -0.25013695D-04  0.26640228D-06
 -0.50036938D-04  0.72189304D-04 -0.71699378D-04 -0.12789585D-04  0.12555219D-04
  0.23436637D-06  0.25468851D-04 -0.52173300D-04  0.51820285D-04 -0.50068136D-04
  0.49653856D-04  0.32945464D-06 -0.50250793D-04  0.49961655D-04  0.13329114D-03
  0.20045520D-03 -0.19892322D-03 -0.13427950D-03 -0.26889570D-03  0.17778897D-04
 -0.17632991D-04 -0.47632025D-07  0.17836316D-04 -0.17738971D-04 -0.42436420D-04
 -0.71173007D-04  0.70637944D-04  0.42579316D-04  0.85418370D-04
MO    2     MO 0.0        OCC NO =    2.0000300  ORB. ENERGY =    0.000000
  0.31548779D-04  0.58813279D-04  0.99402455D-04  0.14942043D-03  0.18353624D-03
  0.15489811D-03  0.58245734D-04 -0.14366533D-07 -0.10738093D-06 -0.40130706D-06
 -0.11195842D-05 -0.14999342D-05  0.17711426D-05  0.55225882D-05 -0.20242591D-04
 -0.20154989D-05  0.77363285D-04  0.72532997D-04  0.51647815D-04  0.77846657D-04
  0.72986189D-04  0.51970514D-04  0.54602452D-05  0.51193269D-05  0.36452657D-05
  0.25679234D-03  0.25841322D-03  0.79314697D-06  0.32731692D-03  0.32932341D-03
 -0.96772029D-06  0.66176148D-05  0.66572609D-05  0.23543877D-07  0.47342100D-04
 -0.46811029D-04 -0.53107111D-06  0.93208909D-04 -0.35905236D-03 -0.36118639D-03
  0.13673590D-03 -0.13860272D-03  0.18668241D-05  0.27347532D-03  0.67418993D-04
  0.68104612D-04  0.29518030D-04 -0.28988996D-04 -0.52903404D-06  0.58062884D-04
 -0.47001607D-04 -0.47237235D-04  0.65478295D-04  0.66131201D-04 -0.74478552D-06
  0.65472029D-04  0.65107079D-04  0.19779200D-04 -0.26190691D-03 -0.26350068D-03
 -0.17544844D-04  0.36511932D-04 -0.18959730D-04 -0.18265413D-04  0.23014192D-06
 -0.19010028D-04 -0.21612089D-04  0.34278605D-04  0.75889217D-04  0.76408327D-04
 -0.34969031D-04  0.68895954D-04 -0.28569518D-04 -0.51526302D-04 -0.75975502D-04
  0.27102654D-03  0.80129344D-03 -0.83912093D-05  0.29364323D-05  0.51819233D-04
  0.17565358D-04  0.58705712D-04  0.20730776D-03  0.19113234D-03  0.53154557D-04
  0.12283711D-03  0.15783054D-04 -0.79052132D-04  0.30748423D-04  0.48303710D-04
  0.20982962D-04 -0.34273357D-04  0.21021475D-03 -0.31198179D-04 -0.87093085D-05
  0.39907487D-04  0.20410599D-04  0.42450982D-04  0.22170518D-04 -0.10229841D-04
 -0.18449939D-04 -0.27204425D-04  0.10363590D-03  0.29029557D-03 -0.29661692D-05
  0.18715107D-04 -0.61587438D-05  0.66710916D-05  0.10564119D-03  0.31699441D-04
  0.69959252D-04  0.74999085D-04  0.40883455D-04  0.60421202D-05  0.13292549D-04
 -0.31355823D-04  0.18063274D-04 -0.20042580D-04  0.41879806D-04 -0.78645641D-04
  0.67914821D-05 -0.21487419D-04  0.14695937D-04  0.69650127D-05  0.36031034D-04
  0.46480687D-04  0.39133394D-04  0.70578688D-04  0.10406823D-03 -0.34676048D-03
 -0.10848514D-02  0.11623711D-04  0.58538182D-04  0.35032124D-04 -0.22824113D-04
  0.23021362D-03  0.15802221D-03 -0.25612090D-03  0.13415830D-03  0.10022332D-03
 -0.20262267D-04 -0.19821008D-05  0.65727565D-04 -0.63745464D-04 -0.13267092D-03
  0.25442790D-03  0.13206904D-03  0.22192739D-04  0.30911916D-04 -0.53104655D-04
 -0.30198071D-04  0.18201425D-04  0.28653639D-04  0.29502006D-04  0.55195104D-04
  0.95364898D-04  0.15459770D-03  0.23477145D-03  0.32631023D-03  0.38795785D-03
  0.34560634D-03  0.17163542D-03  0.27631850D-04  0.29153234D-06  0.14036255D-06
  0.46822598D-05  0.16316738D-04  0.58759216D-04  0.12952738D-03  0.18233274D-03
 -0.86978661D-05 -0.23861406D-03 -0.14109100D-03  0.47866031D-09  0.57977452D-08
  0.12090586D-07  0.34673697D-07  0.18005568D-08 -0.14952980D-06 -0.38635628D-06
  0.31478491D-06 -0.89565567D-05  0.44167925D-05  0.19027094D-06  0.81846442D+01
  0.10781091D+02  0.11893231D+02  0.98782596D+01  0.52456300D+01  0.13534000D+01
  0.82351751D+01  0.10847652D+02  0.11966658D+02  0.99392467D+01  0.52780158D+01
  0.13617557D+01  0.51169037D-01  0.67401592D-01  0.74354506D-01  0.61757239D-01
  0.32794808D-01  0.84612318D-02 -0.32390600D-03  0.31313148D-02  0.44154807D-02
  0.63153055D-02 -0.31979818D-04 -0.57917307D-02 -0.32590593D-03  0.31506488D-02
  0.44427437D-02  0.63542988D-02 -0.32177274D-04 -0.58274913D-02 -0.21281878D-05
  0.20573951D-04  0.29011418D-04  0.41494003D-04 -0.21011979D-06 -0.38053914D-04
  0.54034838D-01  0.54368453D-01  0.34100711D-03 -0.45349488D-03 -0.45630892D-03
 -0.38845534D-05 -0.40851048D-04 -0.41103282D-04 -0.23521725D-06  0.13591047D-04
 -0.84157980D-05 -0.51752490D-05  0.21305446D-04 -0.69106113D-03 -0.69535946D-03
 -0.46784866D-05  0.26437601D-05  0.20347265D-05 -0.70670660D-05  0.25107826D-03
  0.25264098D-03  0.10481836D-05 -0.91377779D-06 -0.13440580D-06  0.19131213D-05
 -0.43040035D-04 -0.43300764D-04  0.15433874D-05  0.14556894D-05  0.74587331D-07
  0.15132018D-05  0.17697004D-05  0.24430403D-04 -0.61433639D-05 -0.61367684D-05
 -0.24654165D-04  0.48732029D-04  0.10343234D-04  0.10459453D-04 -0.29841048D-06
  0.10415007D-04  0.10337471D-04 -0.43248935D-05 -0.41444708D-04 -0.41715828D-04
  0.52201249D-05 -0.95644342D-05 -0.56114203D-05 -0.10459697D-04 -0.17731517D-04
 -0.26847914D-04 -0.33565806D-04 -0.28872613D-04 -0.11073268D-04  0.52775562D-08
  0.69864962D-07  0.25376225D-06  0.75278095D-06  0.86742800D-06 -0.10536205D-05
 -0.26239399D-06  0.18279880D-05  0.32628156D-05 -0.20534272D-03 -0.20082070D-03
 -0.13269073D-03 -0.20660433D-03 -0.20205452D-03 -0.13350597D-03  0.12597347D-04
  0.12319930D-04  0.81402987D-05 -0.55439508D-05 -0.55977537D-05  0.91526642D-06
 -0.47506936D-04 -0.47784883D-04  0.28525775D-05 -0.13770590D-04 -0.13855590D-04
  0.46050528D-06  0.51100563D-04 -0.50371402D-04 -0.72916114D-06  0.10068884D-03
 -0.93017854D-04 -0.93500908D-04 -0.25518909D-04  0.25311473D-04  0.20743612D-06
 -0.50413394D-04  0.71798442D-04  0.72190621D-04  0.12650582D-04 -0.12937123D-04
  0.28654019D-06  0.25360334D-04 -0.52611994D-04 -0.52900306D-04 -0.51006954D-04
 -0.51285506D-04  0.13886121D-06 -0.51084433D-04 -0.51199795D-04 -0.13303676D-03
  0.20410529D-03  0.20505631D-03  0.13262017D-03 -0.26329853D-03  0.18120213D-04
  0.18221974D-04  0.21403232D-07  0.18145271D-04  0.18186447D-04  0.42102862D-04
 -0.72505910D-04 -0.72852370D-04 -0.42167071D-04  0.83502783D-04
MO    3     MO 0.0        OCC NO =    2.0000210  ORB. ENERGY =    0.000000
 -0.14453564D-01 -0.26944355D-01 -0.45539632D-01 -0.68454560D-01 -0.84084166D-01
 -0.70964070D-01 -0.26684343D-01 -0.38140147D-05 -0.28507397D-04 -0.10653865D-03
 -0.29722624D-03 -0.39820122D-03  0.47020140D-03 -0.87191277D-03 -0.19343995D-02
 -0.82065319D-04 -0.30330333D-05 -0.28436615D-05 -0.20248564D-05  0.50983872D-06
  0.47800620D-06  0.34036889D-06  0.11672405D-02  0.10943622D-02  0.77925105D-03
 -0.28268822D-05  0.27410013D-06  0.60719852D-03  0.30365583D-05 -0.16636451D-06
 -0.37920081D-03  0.13225990D-07  0.20946683D-08  0.46694139D-05 -0.10555708D-03
 -0.10556731D-03  0.21112438D-03 -0.12267765D-05 -0.21354983D-05  0.27505478D-06
 -0.24080789D-04 -0.24075233D-04  0.48156022D-04 -0.66931432D-07  0.30453150D-05
  0.65719175D-07  0.11420775D-04  0.11424483D-04 -0.22845258D-04  0.38862289D-06
  0.69912546D-06 -0.29252381D-07 -0.12030693D-06  0.36267281D-04  0.77249069D-05
 -0.64321666D-07 -0.10882078D-03 -0.11544207D-04  0.42524245D-06  0.18941538D-07
 -0.11630513D-04  0.12963765D-05 -0.33592347D-06  0.51874444D-04 -0.85669141D-04
 -0.25684350D-06 -0.15539900D-03  0.12857093D-03  0.12646139D-05 -0.22432941D-06
  0.12843649D-03 -0.12298793D-06 -0.48312064D-05 -0.87132797D-05 -0.12847726D-04
  0.75272082D-03  0.23595028D-03  0.50643541D-05  0.19436916D-06  0.95856946D-04
  0.28426344D-04  0.20856436D-06  0.19933794D-03 -0.42572396D-05  0.24799167D-06
  0.44035353D-04  0.38734775D-04 -0.73919111D-04  0.54244373D-04  0.19674739D-04
  0.25709230D-06 -0.44866174D-06  0.76005263D-04 -0.96519300D-05 -0.12042848D-04
  0.21694778D-04  0.20175817D-06 -0.25537807D-06 -0.34559430D-04 -0.48249656D-05
 -0.87020241D-05 -0.12831130D-04  0.75284202D-03  0.23870354D-03  0.51485173D-05
  0.83355861D-04 -0.48023697D-04  0.29916951D-04  0.17181813D-03 -0.99127645D-04
 -0.42723140D-05  0.38286889D-04 -0.21958675D-04  0.39297021D-04  0.21455651D-04
 -0.42566349D-04  0.21110697D-04 -0.11067493D-03  0.66086305D-04 -0.38352493D-04
 -0.11354640D-04 -0.10134114D-04  0.21488754D-04  0.22899432D-05 -0.30071789D-04
  0.17251395D-04 -0.48328279D-05 -0.87162042D-05 -0.12852038D-04  0.75259147D-03
  0.23323260D-03  0.49804307D-05 -0.82650631D-04 -0.47799896D-04  0.27082419D-04
 -0.17343307D-03 -0.10021314D-03 -0.40105809D-05 -0.37952681D-04 -0.22033156D-04
  0.38228393D-04  0.22898948D-04 -0.41231582D-04  0.18332634D-04  0.11118297D-03
 -0.65681599D-04 -0.37571011D-04 -0.11511820D-04 -0.10340255D-04  0.21852076D-04
 -0.17977482D-05  0.29836733D-04  0.17395832D-04 -0.15460214D+00 -0.28924411D+00
 -0.49974967D+00 -0.81015293D+00 -0.12302950D+01 -0.17099943D+01 -0.20330521D+01
 -0.18111135D+01 -0.89943726D+00 -0.14480179D+00 -0.15277444D-02 -0.72283993D-03
 -0.24112730D-01 -0.84028037D-01 -0.30259857D+00 -0.66704088D+00 -0.93897828D+00
  0.44792324D-01  0.12288161D+01  0.72659129D+00 -0.15531620D-04 -0.18812585D-03
 -0.39231663D-03 -0.11250958D-02 -0.58424658D-04  0.48519587D-02  0.12536530D-01
 -0.10214174D-01  0.46599921D-01 -0.38434488D-03 -0.13196989D-03 -0.37359173D-01
 -0.49210770D-01 -0.54287183D-01 -0.45089756D-01 -0.23943912D-01 -0.61776544D-02
  0.25849556D-02  0.34049913D-02  0.37562384D-02  0.31198501D-02  0.16567270D-02
  0.42744421D-03  0.59413251D+01  0.78261150D+01  0.86334299D+01  0.71707395D+01
  0.38078617D+01  0.98244822D+00  0.12616946D-05 -0.12197252D-04 -0.17199399D-04
 -0.24599690D-04  0.12456937D-06  0.22560236D-04 -0.91646115D-07  0.88597568D-06
  0.12493182D-05  0.17868555D-05 -0.90483847D-08 -0.16387150D-05 -0.21079361D-03
  0.20378170D-02  0.28735347D-02  0.41099148D-02 -0.20812030D-04 -0.37691795D-02
 -0.26084195D-03  0.18120028D-04  0.41653495D-01  0.28538381D-05 -0.21182713D-06
 -0.48393244D-03  0.97787229D-07 -0.43867677D-08 -0.98417791D-05 -0.71149440D-05
 -0.71247330D-05  0.14239677D-04  0.71818427D-06 -0.18182195D-05  0.23735337D-07
 -0.11141486D-03 -0.11142082D-03  0.22283567D-03 -0.27531066D-06 -0.30837056D-05
  0.28827319D-06 -0.14322348D-04 -0.14324502D-04  0.28646850D-04  0.92889388D-07
 -0.66529171D-06  0.38148918D-07  0.25530654D-06 -0.72128948D-05  0.54417600D-05
  0.24453350D-06  0.21623245D-04 -0.81662557D-05 -0.10104531D-05  0.15439456D-07
 -0.81590242D-05  0.46458412D-06 -0.33265776D-06  0.20730444D-05 -0.33737961D-04
 -0.32957032D-06 -0.61315610D-05  0.50604884D-04  0.13275436D-05 -0.87572203D-07
  0.50608998D-04 -0.59014330D-07 -0.87940291D-03 -0.16392085D-02 -0.27788237D-02
 -0.42075148D-02 -0.52603203D-02 -0.45248187D-02 -0.17353654D-02 -0.68419782D-06
 -0.90574980D-05 -0.32898481D-04 -0.97592723D-04 -0.11245590D-03  0.13659444D-03
 -0.95960930D-04 -0.15940988D-03  0.12409530D-04  0.30434921D-05  0.29764688D-05
  0.19666788D-05  0.17841782D-05  0.17448873D-05  0.11529208D-05  0.39019791D-02
  0.38160503D-02  0.25214258D-02  0.16957136D-05  0.40064907D-06  0.87921401D-03
 -0.55291293D-06  0.99763100D-08  0.21387760D-04  0.12745423D-06  0.46556708D-08
  0.93355018D-05 -0.35647735D-04 -0.35642335D-04  0.71290070D-04 -0.13860013D-05
 -0.15358437D-07  0.10570352D-06  0.21097933D-04  0.21095451D-04 -0.42193384D-04
  0.69154990D-06  0.31143294D-06 -0.61288921D-07  0.18116462D-04  0.18116989D-04
 -0.36233450D-04 -0.28737176D-06 -0.75151480D-06 -0.49529401D-07 -0.11603526D-05
 -0.30038212D-05  0.46412440D-04 -0.11639689D-05  0.88737423D-05 -0.69622462D-04
  0.46450266D-05  0.13772122D-06 -0.69614859D-04  0.18458015D-05  0.41091163D-06
  0.95424722D-06 -0.25391313D-04  0.41206739D-06 -0.27891265D-05  0.38088282D-04
 -0.16448023D-05 -0.73615121D-07  0.38085658D-04 -0.55003133D-06
MO    4     MO 0.0        OCC NO =    2.0000123  ORB. ENERGY =    0.000000
  0.26825955D-01  0.50008984D-01  0.84521996D-01  0.12705232D+00  0.15606102D+00
  0.13171000D+00  0.49526399D-01 -0.14569114D-05 -0.10889510D-04 -0.40696586D-04
 -0.11353714D-03 -0.15210846D-03  0.17961173D-03  0.26462056D-02 -0.36106998D-02
 -0.42243198D-04 -0.37310898D-05 -0.34981339D-05 -0.24908797D-05  0.16029038D-05
  0.15028242D-05  0.10701004D-05  0.36695963D-02  0.34404798D-02  0.24498265D-02
 -0.10027735D-04  0.60731176D-06  0.13052654D-02  0.43880522D-05 -0.17939850D-06
 -0.41702297D-03  0.45964151D-07  0.17454548D-08  0.37047229D-05 -0.31916447D-03
 -0.31921269D-03  0.63837717D-03 -0.37536315D-05 -0.83962713D-05  0.83395994D-06
  0.96011371D-05  0.96094190D-05 -0.19210556D-04 -0.20326942D-05  0.86369582D-05
 -0.24128860D-07 -0.17868268D-04 -0.17863907D-04  0.35732175D-04  0.61398031D-06
  0.66166679D-06  0.49555438D-07 -0.37607822D-06 -0.42208780D-04  0.22585146D-04
 -0.43845868D-06  0.12657526D-03 -0.33941277D-04  0.15666933D-05  0.51077298D-07
 -0.33814161D-04  0.44575583D-05 -0.76033518D-06  0.82068820D-04 -0.16373239D-03
 -0.63455913D-06 -0.24578094D-03  0.24570056D-03  0.29155647D-05 -0.42552517D-06
  0.24549663D-03  0.13702143D-05 -0.90323067D-04 -0.16290137D-03 -0.24019798D-03
  0.10229324D-02  0.68429491D-03  0.42672282D-05  0.54356797D-06 -0.57777331D-04
  0.33541605D-04  0.11784493D-06  0.30466177D-03 -0.43242933D-04  0.34524668D-06
  0.11105600D-03  0.75812096D-04 -0.14238611D-03  0.24277892D-04  0.11810822D-03
  0.65263770D-06 -0.12773186D-05  0.14266203D-03 -0.14789408D-04 -0.21036946D-04
  0.35826355D-04  0.22816394D-06 -0.13458484D-06 -0.62799062D-04 -0.90478556D-04
 -0.16318180D-03 -0.24061147D-03  0.10177484D-02  0.68989449D-03  0.44204032D-05
 -0.49865167D-04  0.29124262D-04  0.36379023D-04  0.26004047D-03 -0.15015728D-03
 -0.40509666D-04  0.96551789D-04 -0.55541763D-04  0.76722601D-04 -0.19919702D-04
 -0.10244642D-03  0.12236612D-03 -0.14231821D-03  0.12597937D-03 -0.73289667D-04
 -0.19605613D-04 -0.16300824D-04  0.35906438D-04  0.59080067D-05 -0.54459111D-04
  0.31421960D-04 -0.90152666D-04 -0.16259405D-03 -0.23974483D-03  0.10280585D-02
  0.67871475D-03  0.41141387D-05  0.50238688D-04  0.28684568D-04  0.30707711D-04
 -0.26760727D-03 -0.15453049D-03 -0.45610381D-04 -0.95737589D-04 -0.55422172D-04
  0.75043202D-04 -0.14982064D-04 -0.99065313D-04  0.11404738D-03  0.14607237D-03
 -0.12104538D-03 -0.68913130D-04 -0.19301378D-04 -0.16354664D-04  0.35656042D-04
 -0.48217392D-05  0.54403913D-04  0.31517734D-04  0.91314478D-01  0.17083964D+00
  0.29517301D+00  0.47851013D+00  0.72666355D+00  0.10099940D+01  0.12008054D+01
  0.10697192D+01  0.53124518D+00  0.85525980D-01  0.90234960D-03  0.42753302D-03
  0.14261786D-01  0.49699469D-01  0.17897583D+00  0.39452995D+00  0.55537084D+00
 -0.26492999D-01 -0.72679919D+00 -0.42975181D+00  0.62781195D-05  0.76043358D-04
  0.15858041D-03  0.45478100D-03  0.23616144D-04 -0.19612362D-02 -0.50674577D-02
  0.41287260D-02 -0.28545292D-01  0.14181840D-02 -0.18175376D-03 -0.67839319D-01
 -0.89360253D-01 -0.98578348D-01 -0.81877036D-01 -0.43478978D-01 -0.11217804D-01
  0.43014503D-02  0.56660163D-02  0.62505030D-02  0.51915321D-02  0.27568476D-02
  0.71128109D-03  0.99143899D+01  0.13059571D+02  0.14406751D+02  0.11965935D+02
  0.63542433D+01  0.16394280D+01  0.21229742D-05 -0.20523548D-04 -0.28940345D-04
 -0.41392350D-04  0.20960503D-06  0.37960689D-04 -0.14587451D-06  0.14102209D-05
  0.19885587D-05  0.28441650D-05 -0.14402451D-07 -0.26083676D-05 -0.33685994D-03
  0.32565451D-02  0.45920685D-02  0.65678728D-02 -0.33258783D-04 -0.60233588D-02
 -0.49179147D-03  0.31473532D-04  0.72555418D-01  0.20429207D-05 -0.13795013D-06
 -0.30638766D-03  0.97226284D-07 -0.18929759D-08 -0.39567834D-05  0.45439732D-03
  0.45443335D-03 -0.90883066D-03  0.11380054D-05  0.14202950D-04 -0.11752012D-05
 -0.30963972D-03 -0.30966027D-03  0.61929999D-03 -0.60856748D-06 -0.90936388D-05
  0.80160554D-06  0.43327178D-05  0.43319928D-05 -0.86647106D-05  0.19584432D-06
 -0.14176913D-06 -0.83841029D-08  0.84420114D-07 -0.14493795D-04 -0.46953167D-04
  0.62811680D-07  0.43595525D-04  0.70415368D-04 -0.31607202D-06 -0.11414007D-06
  0.70444135D-04  0.12296319D-05 -0.56588866D-06  0.42132876D-05 -0.62577449D-04
 -0.55959150D-06 -0.12476205D-04  0.93864499D-04  0.22572575D-05 -0.16365772D-06
  0.93867849D-04 -0.11018140D-06 -0.63567630D-02 -0.11849017D-01 -0.20086724D-01