 Entering Gaussian System, Link 0=/home/bruns/programas/chemistry/gaussian/g09/g09
 Input=GAUSSIAN+XH_3.com
 Output=GAUSSIAN+XH_3.log
 Initial command:
 /home/bruns/programas/chemistry/gaussian/g09/l1.exe /home/bruns/programas/chemistry/gaussian/work/Gau-41078.inp -scrdir=/home/bruns/programas/chemistry/gaussian/work/
 Entering Link 1 = /home/bruns/programas/chemistry/gaussian/g09/l1.exe PID=     41080.
  
 Copyright (c) 1988,1990,1992,1993,1995,1998,2003,2009,2010,
            Gaussian, Inc.  All Rights Reserved.
  
 This is part of the Gaussian(R) 09 program.  It is based on
 the Gaussian(R) 03 system (copyright 2003, Gaussian, Inc.),
 the Gaussian(R) 98 system (copyright 1998, Gaussian, Inc.),
 the Gaussian(R) 94 system (copyright 1995, Gaussian, Inc.),
 the Gaussian 92(TM) system (copyright 1992, Gaussian, Inc.),
 the Gaussian 90(TM) system (copyright 1990, Gaussian, Inc.),
 the Gaussian 88(TM) system (copyright 1988, Gaussian, Inc.),
 the Gaussian 86(TM) system (copyright 1986, Carnegie Mellon
 University), and the Gaussian 82(TM) system (copyright 1983,
 Carnegie Mellon University). Gaussian is a federally registered
 trademark of Gaussian, Inc.
  
 This software contains proprietary and confidential information,
 including trade secrets, belonging to Gaussian, Inc.
  
 This software is provided under written license and may be
 used, copied, transmitted, or stored only in accord with that
 written license.
  
 The following legend is applicable only to US Government
 contracts under FAR:
  
                    RESTRICTED RIGHTS LEGEND
  
 Use, reproduction and disclosure by the US Government is
 subject to restrictions as set forth in subparagraphs (a)
 and (c) of the Commercial Computer Software - Restricted
 Rights clause in FAR 52.227-19.
  
 Gaussian, Inc.
 340 Quinnipiac St., Bldg. 40, Wallingford CT 06492
  
  
 ---------------------------------------------------------------
 Warning -- This program may not be used in any manner that
 competes with the business of Gaussian, Inc. or will provide
 assistance to any competitor of Gaussian, Inc.  The licensee
 of this program is prohibited from giving any competitor of
 Gaussian, Inc. access to this program.  By using this program,
 the user acknowledges that Gaussian, Inc. is engaged in the
 business of creating and licensing software in the field of
 computational chemistry and represents and warrants to the
 licensee that it is not a competitor of Gaussian, Inc. and that
 it will not use this program in any manner prohibited above.
 ---------------------------------------------------------------
  

 Cite this work as:
 Gaussian 09, Revision B.01,
 M. J. Frisch, G. W. Trucks, H. B. Schlegel, G. E. Scuseria, 
 M. A. Robb, J. R. Cheeseman, G. Scalmani, V. Barone, B. Mennucci, 
 G. A. Petersson, H. Nakatsuji, M. Caricato, X. Li, H. P. Hratchian, 
 A. F. Izmaylov, J. Bloino, G. Zheng, J. L. Sonnenberg, M. Hada, 
 M. Ehara, K. Toyota, R. Fukuda, J. Hasegawa, M. Ishida, T. Nakajima, 
 Y. Honda, O. Kitao, H. Nakai, T. Vreven, J. A. Montgomery, Jr., 
 J. E. Peralta, F. Ogliaro, M. Bearpark, J. J. Heyd, E. Brothers, 
 K. N. Kudin, V. N. Staroverov, T. Keith, R. Kobayashi, J. Normand, 
 K. Raghavachari, A. Rendell, J. C. Burant, S. S. Iyengar, J. Tomasi, 
 M. Cossi, N. Rega, J. M. Millam, M. Klene, J. E. Knox, J. B. Cross, 
 V. Bakken, C. Adamo, J. Jaramillo, R. Gomperts, R. E. Stratmann, 
 O. Yazyev, A. J. Austin, R. Cammi, C. Pomelli, J. W. Ochterski, 
 R. L. Martin, K. Morokuma, V. G. Zakrzewski, G. A. Voth, 
 P. Salvador, J. J. Dannenberg, S. Dapprich, A. D. Daniels, 
 O. Farkas, J. B. Foresman, J. V. Ortiz, J. Cioslowski, 
 and D. J. Fox, Gaussian, Inc., Wallingford CT, 2010.
 
 ******************************************
 Gaussian 09:  EM64L-G09RevB.01 12-Aug-2010
                12-Aug-2021 
 ******************************************
 %nproc=8
 Will use up to    8 processors via shared memory.
 %mem=8GB
 -----------------------------------------------------
 # QCISD aug-cc-pvtz nosymm density=current output=wfn
 -----------------------------------------------------
 1/30=1,38=1/1;
 2/12=2,15=1,17=6,18=5,40=1/2;
 3/5=16,6=1,7=10,11=9,16=1,25=1,30=1,71=1/1,2,3;
 4//1;
 5/5=2,38=5/2;
 8/6=4,9=120000,10=1/1,4;
 9/5=8,15=1/13;
 11/28=-7,31=1,32=3,42=3/11;
 10/5=6,13=10,31=1/2;
 6/7=2,8=2,9=2,10=2,22=-1,31=1/1;
 99/5=1,6=1100,9=1/99;
 ----------
 title line
 ----------
 Symbolic Z-matrix:
 Charge = -1 Multiplicity = 1
 C                     0.00018   0.00003  -0.49771 
 H                     0.00002  -1.05257  -0.62073 
 H                    -0.90131   0.52637  -0.62125 
 H                     0.91175   0.52613  -0.62157 
 Cl                    0.00056   0.00096   1.64472 
 F                    -0.00019  -0.00092  -2.59346 
 
                          Input orientation:                          
 ---------------------------------------------------------------------
 Center     Atomic      Atomic             Coordinates (Angstroms)
 Number     Number       Type             X           Y           Z
 ---------------------------------------------------------------------
      1          6           0        0.000175    0.000029   -0.497709
      2          1           0        0.000019   -1.052570   -0.620726
      3          1           0       -0.901312    0.526365   -0.621245
      4          1           0        0.911750    0.526132   -0.621570
      5         17           0        0.000555    0.000962    1.644718
      6          9           0       -0.000186   -0.000921   -2.593460
 ---------------------------------------------------------------------
                    Distance matrix (angstroms):
                    1          2          3          4          5
     1  C    0.000000
     2  H    1.059763   0.000000
     3  H    1.051175   1.818085   0.000000
     4  H    1.059762   1.823062   1.813062   0.000000
     5  Cl   2.142427   2.498433   2.494795   2.498428   0.000000
     6  F    2.095751   2.235541   2.231522   2.235568   4.238178
                    6
     6  F    0.000000
 Symmetry turned off by external request.
 Stoichiometry    CH3ClF(1-)
 Framework group  C1[X(CH3ClF)]
 Deg. of freedom    12
 Full point group                 C1      NOp   1
 Rotational constants (GHZ):    151.7066718      2.2149212      2.2147161
 Standard basis: Aug-CC-pVTZ (5D, 7F)
 Integral buffers will be    131072 words long.
 Raffenetti 1 integral format.
 Two-electron integral symmetry is turned off.
   211 basis functions,   339 primitive gaussians,   244 cartesian basis functions
    18 alpha electrons       18 beta electrons
       nuclear repulsion energy        85.0203781199 Hartrees.
 NAtoms=    6 NActive=    6 NUniq=    6 SFac= 1.00D+00 NAtFMM=   50 NAOKFM=F Big=F
 One-electron integrals computed using PRISM.
 NBasis=   211 RedAO= T  NBF=   211
 NBsUse=   211 1.00D-06 NBFU=   211
 Harris functional with IExCor=  205 diagonalized for initial guess.
 ExpMin= 2.53D-02 ExpMax= 4.56D+05 ExpMxC= 1.44D+03 IAcc=3 IRadAn=         0 AccDes= 0.00D+00
 HarFok:  IExCor=  205 AccDes= 0.00D+00 IRadAn=         0 IDoV= 1
 ScaDFX=  1.000000  1.000000  1.000000  1.000000
 FoFCou: FMM=F IPFlag=           0 FMFlag=      100000 FMFlg1=           0
         NFxFlg=           0 DoJE=T BraDBF=F KetDBF=T FulRan=T
         Omega=  0.000000  0.000000  1.000000  0.000000  0.000000 ICntrl=     500 IOpCl=  0
         NMat0=    1 NMatS0=    1 NMatT0=    0 NMatD0=    1 NMtDS0=    0 NMtDT0=    0
         I1Cent=           4 NGrid=           0.
 Symmetry not used in FoFCou.
 Requested convergence on RMS density matrix=1.00D-08 within 128 cycles.
 Requested convergence on MAX density matrix=1.00D-06.
 Requested convergence on             energy=1.00D-06.
 No special actions if energy rises.
 Keep R1 ints in memory in canonical form, NReq=454274131.
 SCF Done:  E(RHF) =  -598.617064343     A.U. after   12 cycles
             Convg  =    0.9457D-08             -V/T =  2.0001
 ExpMin= 2.53D-02 ExpMax= 4.56D+05 ExpMxC= 1.44D+03 IAcc=3 IRadAn=         5 AccDes= 0.00D+00
 HarFok:  IExCor=  205 AccDes= 0.00D+00 IRadAn=         5 IDoV=-2
 ScaDFX=  1.000000  1.000000  1.000000  1.000000
 DSYEVD returned Info=         101 IAlg= 4 N=    50 NDim=    50 NE2=    21472034 trying DSYEV.
 Range of M.O.s used for correlation:     8   211
 NBasis=   211 NAE=    18 NBE=    18 NFC=     7 NFV=     0
 NROrb=    204 NOA=    11 NOB=    11 NVA=   193 NVB=   193

 **** Warning!!: The largest alpha MO coefficient is  0.35092769D+02

 Semi-Direct transformation.
 ModeAB=           2 MOrb=            11 LenV=    1072528222
 LASXX=     44979418 LTotXX=    44979418 LenRXX=    44979418
 LTotAB=    45631872 MaxLAS=    67073160 LenRXY=    67073160
 NonZer=    89958836 LenScr=   135708672 LnRSAI=           0
 LnScr1=           0 LExtra=           0 Total=    247761250
 MaxDsk=          -1 SrtSym=           F ITran=            4
 JobTyp=0 Pass  1:  I=   1 to  11.
 (rs|ai) integrals will be sorted in core.
 Spin components of T(2) and E(2):
     alpha-alpha T2 =       0.2565662863D-01 E2=     -0.8206795203D-01
     alpha-beta  T2 =       0.1451181983D+00 E2=     -0.5098782805D+00
     beta-beta   T2 =       0.2565662863D-01 E2=     -0.8206795203D-01
 ANorm=    0.1093815092D+01
 E2 =    -0.6740141846D+00 EUMP2 =    -0.59929107852724D+03
 R2 and R3 integrals will be kept in memory, NReq=   900794930.
 Iterations=  50 Convergence= 0.100D-07
 Iteration Nr.   1
 **********************
 DD1Dir will call FoFMem   1 times, MxPair=       132
 NAB=    66 NAA=     0 NBB=     0.
 MP4(R+Q)=  0.14426894D-01
 E3=       -0.18711681D-01        EUMP3=      -0.59930979021D+03
 E4(DQ)=   -0.44648557D-03        UMP4(DQ)=   -0.59931023669D+03
 E4(SDQ)=  -0.98025748D-02        UMP4(SDQ)=  -0.59931959278D+03
 DE(Corr)= -0.67829897     E(Corr)=     -599.29536331    
 NORM(A)=   0.10995972D+01
 Iteration Nr.   2
 **********************
 DD1Dir will call FoFMem   1 times, MxPair=       132
 NAB=    66 NAA=     0 NBB=     0.
 DE(Corr)= -0.70047513     E(CORR)=     -599.31753947     Delta=-2.22D-02
 NORM(A)=   0.11069377D+01
 Iteration Nr.   3
 **********************
 DD1Dir will call FoFMem   1 times, MxPair=       132
 NAB=    66 NAA=     0 NBB=     0.
 DE(Corr)= -0.69807872     E(CORR)=     -599.31514306     Delta= 2.40D-03
 NORM(A)=   0.11109166D+01
 Iteration Nr.   4
 **********************
 DD1Dir will call FoFMem   1 times, MxPair=       132
 NAB=    66 NAA=     0 NBB=     0.
 DE(Corr)= -0.70113304     E(CORR)=     -599.31819738     Delta=-3.05D-03
 NORM(A)=   0.11130201D+01
 Iteration Nr.   5
 **********************
 DD1Dir will call FoFMem   1 times, MxPair=       132
 NAB=    66 NAA=     0 NBB=     0.
 DE(Corr)= -0.70172767     E(CORR)=     -599.31879202     Delta=-5.95D-04
 NORM(A)=   0.11140504D+01
 Iteration Nr.   6
 **********************
 DD1Dir will call FoFMem   1 times, MxPair=       132
 NAB=    66 NAA=     0 NBB=     0.
 DE(Corr)= -0.70187432     E(CORR)=     -599.31893867     Delta=-1.47D-04
 NORM(A)=   0.11143753D+01
 Iteration Nr.   7
 **********************
 DD1Dir will call FoFMem   1 times, MxPair=       132
 NAB=    66 NAA=     0 NBB=     0.
 DE(Corr)= -0.70190396     E(CORR)=     -599.31896830     Delta=-2.96D-05
 NORM(A)=   0.11144063D+01
 Iteration Nr.   8
 **********************
 DD1Dir will call FoFMem   1 times, MxPair=       132
 NAB=    66 NAA=     0 NBB=     0.
 DE(Corr)= -0.70191781     E(CORR)=     -599.31898216     Delta=-1.39D-05
 NORM(A)=   0.11144240D+01
 Iteration Nr.   9
 **********************
 DD1Dir will call FoFMem   1 times, MxPair=       132
 NAB=    66 NAA=     0 NBB=     0.
 DE(Corr)= -0.70189464     E(CORR)=     -599.31895898     Delta= 2.32D-05
 NORM(A)=   0.11144272D+01
 Iteration Nr.  10
 **********************
 DD1Dir will call FoFMem   1 times, MxPair=       132
 NAB=    66 NAA=     0 NBB=     0.
 DE(Corr)= -0.70191392     E(CORR)=     -599.31897826     Delta=-1.93D-05
 NORM(A)=   0.11144274D+01
 Iteration Nr.  11
 **********************
 DD1Dir will call FoFMem   1 times, MxPair=       132
 NAB=    66 NAA=     0 NBB=     0.
 DE(Corr)= -0.70190474     E(CORR)=     -599.31896909     Delta= 9.17D-06
 NORM(A)=   0.11144303D+01
 Iteration Nr.  12
 **********************
 DD1Dir will call FoFMem   1 times, MxPair=       132
 NAB=    66 NAA=     0 NBB=     0.
 DE(Corr)= -0.70190849     E(CORR)=     -599.31897283     Delta=-3.74D-06
 NORM(A)=   0.11144308D+01
 Iteration Nr.  13
 **********************
 DD1Dir will call FoFMem   1 times, MxPair=       132
 NAB=    66 NAA=     0 NBB=     0.
 DE(Corr)= -0.70190905     E(CORR)=     -599.31897339     Delta=-5.64D-07
 NORM(A)=   0.11144314D+01
 Iteration Nr.  14
 **********************
 DD1Dir will call FoFMem   1 times, MxPair=       132
 NAB=    66 NAA=     0 NBB=     0.
 DE(Corr)= -0.70190927     E(CORR)=     -599.31897362     Delta=-2.22D-07
 NORM(A)=   0.11144316D+01
 Iteration Nr.  15
 **********************
 DD1Dir will call FoFMem   1 times, MxPair=       132
 NAB=    66 NAA=     0 NBB=     0.
 DE(Corr)= -0.70190918     E(CORR)=     -599.31897353     Delta= 9.02D-08
 NORM(A)=   0.11144315D+01
 Iteration Nr.  16
 **********************
 DD1Dir will call FoFMem   1 times, MxPair=       132
 NAB=    66 NAA=     0 NBB=     0.
 DE(Corr)= -0.70190938     E(CORR)=     -599.31897373     Delta=-2.02D-07
 NORM(A)=   0.11144313D+01
 Iteration Nr.  17
 **********************
 DD1Dir will call FoFMem   1 times, MxPair=       132
 NAB=    66 NAA=     0 NBB=     0.
 DE(Corr)= -0.70190925     E(CORR)=     -599.31897360     Delta= 1.30D-07
 NORM(A)=   0.11144312D+01
 Iteration Nr.  18
 **********************
 DD1Dir will call FoFMem   1 times, MxPair=       132
 NAB=    66 NAA=     0 NBB=     0.
 DE(Corr)= -0.70190929     E(CORR)=     -599.31897363     Delta=-3.65D-08
 NORM(A)=   0.11144311D+01
 Iteration Nr.  19
 **********************
 DD1Dir will call FoFMem   1 times, MxPair=       132
 NAB=    66 NAA=     0 NBB=     0.
 DE(Corr)= -0.70190924     E(CORR)=     -599.31897358     Delta= 5.22D-08
 NORM(A)=   0.11144310D+01
 Iteration Nr.  20
 **********************
 DD1Dir will call FoFMem   1 times, MxPair=       132
 NAB=    66 NAA=     0 NBB=     0.
 DE(Corr)= -0.70190924     E(CORR)=     -599.31897358     Delta=-2.40D-09
 NORM(A)=   0.11144309D+01
 Iteration Nr.  21
 **********************
 DD1Dir will call FoFMem   1 times, MxPair=       132
 NAB=    66 NAA=     0 NBB=     0.
 DE(Corr)= -0.70190922     E(CORR)=     -599.31897356     Delta= 1.86D-08
 NORM(A)=   0.11144309D+01
 Iteration Nr.  22
 **********************
 DD1Dir will call FoFMem   1 times, MxPair=       132
 NAB=    66 NAA=     0 NBB=     0.
 DE(Corr)= -0.70190922     E(CORR)=     -599.31897356     Delta= 4.01D-09
 NORM(A)=   0.11144309D+01
 Iteration Nr.  23
 **********************
 DD1Dir will call FoFMem   1 times, MxPair=       132
 NAB=    66 NAA=     0 NBB=     0.
 DE(Corr)= -0.70190921     E(CORR)=     -599.31897356     Delta= 5.30D-09
 NORM(A)=   0.11144309D+01
 Iteration Nr.  24
 **********************
 DD1Dir will call FoFMem   1 times, MxPair=       132
 NAB=    66 NAA=     0 NBB=     0.
 DE(Corr)= -0.70190921     E(CORR)=     -599.31897356     Delta=-1.94D-09
 NORM(A)=   0.11144309D+01
 Iteration Nr.  25
 **********************
 DD1Dir will call FoFMem   1 times, MxPair=       132
 NAB=    66 NAA=     0 NBB=     0.
 DE(Corr)= -0.70190921     E(CORR)=     -599.31897355     Delta= 5.16D-09
 NORM(A)=   0.11144309D+01
 Iteration Nr.  26
 **********************
 DD1Dir will call FoFMem   1 times, MxPair=       132
 NAB=    66 NAA=     0 NBB=     0.
 DE(Corr)= -0.70190921     E(CORR)=     -599.31897356     Delta=-5.01D-09
 NORM(A)=   0.11144309D+01
 Iteration Nr.  27
 **********************
 DD1Dir will call FoFMem   1 times, MxPair=       132
 NAB=    66 NAA=     0 NBB=     0.
 DE(Corr)= -0.70190921     E(CORR)=     -599.31897355     Delta= 4.37D-09
 NORM(A)=   0.11144309D+01
 Iteration Nr.  28
 **********************
 DD1Dir will call FoFMem   1 times, MxPair=       132
 NAB=    66 NAA=     0 NBB=     0.
 DE(Corr)= -0.70190921     E(CORR)=     -599.31897356     Delta=-4.23D-09
 NORM(A)=   0.11144309D+01
 Largest amplitude= 6.61D-02

 Z-AMPLITUDE ITERATIONS

 Iteration Nr.   1
 **********************
 DD1Dir will call FoFMem   1 times, MxPair=       132
 NAB=    66 NAA=     0 NBB=     0.
 DE(Z)  -0.68253631D+00          E(Z)=    -0.59929960065D+03
 NORM(A)=   0.11118794D+01
 Iteration Nr.   2
 **********************
 DD1Dir will call FoFMem   1 times, MxPair=       132
 NAB=    66 NAA=     0 NBB=     0.
 DE(Z)  -0.68225404D+00          E(Z)=    -0.59929931838D+03
 NORM(A)=   0.11151230D+01
 Iteration Nr.   3
 **********************
 DD1Dir will call FoFMem   1 times, MxPair=       132
 NAB=    66 NAA=     0 NBB=     0.
 DE(Z)  -0.68260204D+00          E(Z)=    -0.59929966638D+03
 NORM(A)=   0.11158421D+01
 Iteration Nr.   4
 **********************
 DD1Dir will call FoFMem   1 times, MxPair=       132
 NAB=    66 NAA=     0 NBB=     0.
 DE(Z)  -0.68267678D+00          E(Z)=    -0.59929974112D+03
 NORM(A)=   0.11110267D+01
 Iteration Nr.   5
 **********************
 DD1Dir will call FoFMem   1 times, MxPair=       132
 NAB=    66 NAA=     0 NBB=     0.
 DE(Z)  -0.68220023D+00          E(Z)=    -0.59929926457D+03
 NORM(A)=   0.11077859D+01
 Iteration Nr.   6
 **********************
 DD1Dir will call FoFMem   1 times, MxPair=       132
 NAB=    66 NAA=     0 NBB=     0.
 DE(Z)  -0.68186774D+00          E(Z)=    -0.59929893209D+03
 NORM(A)=   0.11077808D+01
 Iteration Nr.   7
 **********************
 DD1Dir will call FoFMem   1 times, MxPair=       132
 NAB=    66 NAA=     0 NBB=     0.
 DE(Z)  -0.68187040D+00          E(Z)=    -0.59929893474D+03
 NORM(A)=   0.11077748D+01
 Iteration Nr.   8
 **********************
 DD1Dir will call FoFMem   1 times, MxPair=       132
 NAB=    66 NAA=     0 NBB=     0.
 DE(Z)  -0.68186818D+00          E(Z)=    -0.59929893252D+03
 NORM(A)=   0.11077717D+01
 Iteration Nr.   9
 **********************
 DD1Dir will call FoFMem   1 times, MxPair=       132
 NAB=    66 NAA=     0 NBB=     0.
 DE(Z)  -0.68186775D+00          E(Z)=    -0.59929893209D+03
 NORM(A)=   0.11077709D+01
 Iteration Nr.  10
 **********************
 DD1Dir will call FoFMem   1 times, MxPair=       132
 NAB=    66 NAA=     0 NBB=     0.
 DE(Z)  -0.68186820D+00          E(Z)=    -0.59929893254D+03
 NORM(A)=   0.11077705D+01
 Iteration Nr.  11
 **********************
 DD1Dir will call FoFMem   1 times, MxPair=       132
 NAB=    66 NAA=     0 NBB=     0.
 DE(Z)  -0.68186801D+00          E(Z)=    -0.59929893235D+03
 NORM(A)=   0.11077704D+01
 Iteration Nr.  12
 **********************
 DD1Dir will call FoFMem   1 times, MxPair=       132
 NAB=    66 NAA=     0 NBB=     0.
 DE(Z)  -0.68186801D+00          E(Z)=    -0.59929893235D+03
 NORM(A)=   0.11077705D+01
 Iteration Nr.  13
 **********************
 DD1Dir will call FoFMem   1 times, MxPair=       132
 NAB=    66 NAA=     0 NBB=     0.
 DE(Z)  -0.68186808D+00          E(Z)=    -0.59929893242D+03
 NORM(A)=   0.11077705D+01
 Iteration Nr.  14
 **********************
 DD1Dir will call FoFMem   1 times, MxPair=       132
 NAB=    66 NAA=     0 NBB=     0.
 DE(Z)  -0.68186806D+00          E(Z)=    -0.59929893240D+03
 NORM(A)=   0.11077704D+01
 Iteration Nr.  15
 **********************
 DD1Dir will call FoFMem   1 times, MxPair=       132
 NAB=    66 NAA=     0 NBB=     0.
 DE(Z)  -0.68186807D+00          E(Z)=    -0.59929893242D+03
 NORM(A)=   0.11077704D+01
 Iteration Nr.  16
 **********************
 DD1Dir will call FoFMem   1 times, MxPair=       132
 NAB=    66 NAA=     0 NBB=     0.
 DE(Z)  -0.68186808D+00          E(Z)=    -0.59929893242D+03
 NORM(A)=   0.11077704D+01
 Iteration Nr.  17
 **********************
 DD1Dir will call FoFMem   1 times, MxPair=       132
 NAB=    66 NAA=     0 NBB=     0.
 DE(Z)  -0.68186808D+00          E(Z)=    -0.59929893242D+03
 NORM(A)=   0.11077704D+01
 Iteration Nr.  18
 **********************
 DD1Dir will call FoFMem   1 times, MxPair=       132
 NAB=    66 NAA=     0 NBB=     0.
 DE(Z)  -0.68186807D+00          E(Z)=    -0.59929893242D+03
 NORM(A)=   0.11077704D+01
 Iteration Nr.  19
 **********************
 DD1Dir will call FoFMem   1 times, MxPair=       132
 NAB=    66 NAA=     0 NBB=     0.
 DE(Z)  -0.68186807D+00          E(Z)=    -0.59929893242D+03
 NORM(A)=   0.11077704D+01
 Iteration Nr.  20
 **********************
 DD1Dir will call FoFMem   1 times, MxPair=       132
 NAB=    66 NAA=     0 NBB=     0.
 DE(Z)  -0.68186807D+00          E(Z)=    -0.59929893241D+03
 NORM(A)=   0.11077704D+01
 Discarding MO integrals.
          Differentiating once with respect to electric field.
                with respect to dipole field.
          Electric field/nuclear overlap derivatives assumed to be zero.
          Keep R1 ints in memory in canonical form, NReq=448662239.
          There are     1 degrees of freedom in the 1st order CPHF.  IDoFFX=0.
 LinEq1:  Iter=  0 NonCon=     1 RMS=3.11D-03 Max=1.20D-01
 AX will form     1 AO Fock derivatives at one time.
 LinEq1:  Iter=  1 NonCon=     1 RMS=6.92D-04 Max=9.33D-03
 LinEq1:  Iter=  2 NonCon=     1 RMS=2.29D-04 Max=5.70D-03
 LinEq1:  Iter=  3 NonCon=     1 RMS=9.49D-05 Max=1.24D-03
 LinEq1:  Iter=  4 NonCon=     1 RMS=3.83D-05 Max=4.07D-04
 LinEq1:  Iter=  5 NonCon=     1 RMS=1.06D-05 Max=2.26D-04
 LinEq1:  Iter=  6 NonCon=     1 RMS=2.41D-06 Max=4.23D-05
 LinEq1:  Iter=  7 NonCon=     1 RMS=6.03D-07 Max=9.12D-06
 LinEq1:  Iter=  8 NonCon=     1 RMS=1.49D-07 Max=1.80D-06
 LinEq1:  Iter=  9 NonCon=     1 RMS=3.02D-08 Max=7.43D-07
 LinEq1:  Iter= 10 NonCon=     1 RMS=6.51D-09 Max=8.14D-08
 LinEq1:  Iter= 11 NonCon=     1 RMS=1.05D-09 Max=1.16D-08
 LinEq1:  Iter= 12 NonCon=     1 RMS=1.68D-10 Max=2.85D-09
 LinEq1:  Iter= 13 NonCon=     0 RMS=2.39D-11 Max=3.19D-10
 Linear equations converged to 1.000D-10 1.000D-09 after    13 iterations.
 End of Minotr Frequency-dependent properties file   721 does not exist.
 End of Minotr Frequency-dependent properties file   722 does not exist.

 **********************************************************************

            Population analysis using the QCI/CC density.

 **********************************************************************

     Natural Orbital Coefficients:
                           1         2         3         4         5
     Eigenvalues --     2.00003   2.00003   2.00002   2.00001   2.00001
   1 1   C  1S         -0.00001   0.00004  -0.04325   0.08132   0.97611
   2        2S          0.00000   0.00000   0.00131   0.00048  -0.01333
   3        3S          0.00000   0.00000  -0.00132   0.00404   0.03987
   4        4S          0.00005  -0.00016  -0.01270  -0.02373   0.00302
   5        5S          0.00000  -0.00001  -0.00121  -0.00064  -0.00065
   6        6PX         0.00004   0.00004   0.00000   0.00000   0.00003
   7        6PY         0.00003  -0.00004   0.00000   0.00000  -0.00002
   8        6PZ         0.00000   0.00000   0.00053   0.00168   0.00087
   9        7PX         0.00061   0.00060   0.00002   0.00004  -0.00005
  10        7PY         0.00058  -0.00063  -0.00002  -0.00002   0.00005
  11        7PZ         0.00000  -0.00001   0.00142   0.00305  -0.00092
  12        8PX         0.00330   0.00319   0.00003   0.00007  -0.00005
  13        8PY         0.00315  -0.00334  -0.00004  -0.00007   0.00006
  14        8PZ         0.00000   0.00002  -0.00374  -0.00412  -0.00308
  15        9PX         0.00031   0.00029   0.00000   0.00000   0.00000
  16        9PY         0.00029  -0.00030   0.00000   0.00000   0.00000
  17        9PZ         0.00000   0.00000   0.00021   0.00017  -0.00049
  18       10D 0        0.00000   0.00000   0.00011   0.00033  -0.00058
  19       10D+1       -0.00011  -0.00010   0.00000   0.00000   0.00000
  20       10D-1       -0.00010   0.00011   0.00000   0.00000   0.00000
  21       10D+2        0.00003  -0.00003   0.00000   0.00000   0.00000
  22       10D-2        0.00003   0.00003   0.00000   0.00000  -0.00001
  23       11D 0       -0.00001   0.00001   0.00021  -0.00009  -0.00027
  24       11D+1        0.00019   0.00018  -0.00001  -0.00001   0.00002
  25       11D-1        0.00017  -0.00019   0.00000   0.00001  -0.00001
  26       11D+2        0.00071  -0.00074  -0.00001  -0.00001   0.00003
  27       11D-2        0.00073   0.00071   0.00001   0.00002  -0.00003
  28       12D 0        0.00002   0.00000  -0.00078   0.00122  -0.00238
  29       12D+1       -0.00094  -0.00090   0.00000   0.00001   0.00000
  30       12D-1       -0.00090   0.00095  -0.00001  -0.00001   0.00001
  31       12D+2        0.00113  -0.00118  -0.00001  -0.00001   0.00002
  32       12D-2        0.00117   0.00112   0.00000   0.00002  -0.00001
  33       13F 0        0.00000   0.00000   0.00001   0.00003   0.00019
  34       13F+1       -0.00014  -0.00013   0.00000   0.00000   0.00000
  35       13F-1       -0.00013   0.00014   0.00000   0.00000   0.00000
  36       13F+2        0.00001  -0.00001   0.00000   0.00000   0.00000
  37       13F-2        0.00001   0.00001   0.00000   0.00000   0.00000
  38       13F+3        0.00000   0.00000   0.00000   0.00000   0.00000
  39       13F-3        0.00000   0.00000  -0.00006   0.00007   0.00091
  40       14F 0        0.00000   0.00000  -0.00113  -0.00216  -0.00018
  41       14F+1        0.00041   0.00040   0.00000   0.00000   0.00000
  42       14F-1        0.00040  -0.00042   0.00000  -0.00001  -0.00001
  43       14F+2        0.00024  -0.00025   0.00000   0.00000  -0.00001
  44       14F-2        0.00025   0.00024   0.00000  -0.00001   0.00001
  45       14F+3       -0.00001  -0.00001   0.00000  -0.00001  -0.00001
  46       14F-3        0.00001  -0.00001  -0.00086  -0.00136  -0.00193
  47 2   H  1S         -0.00011   0.00011  -0.00002  -0.00036  -0.00134
  48        2S          0.00081  -0.00086   0.00243   0.00331  -0.00054
  49        3S          0.00603  -0.00634   0.00177   0.00521  -0.00421
  50        4S         -0.00019   0.00020   0.00011   0.00009  -0.00013
  51        5PX         0.00000   0.00000   0.00000   0.00000   0.00000
  52        5PY         0.00002  -0.00002   0.00004  -0.00003  -0.00048
  53        5PZ         0.00001  -0.00001   0.00001   0.00001  -0.00009
  54        6PX         0.00013   0.00013   0.00000   0.00000  -0.00001
  55        6PY         0.00046  -0.00049   0.00045   0.00069  -0.00076
  56        6PZ         0.00043  -0.00045  -0.00001  -0.00010   0.00025
  57        7PX         0.00066   0.00064   0.00000   0.00001  -0.00001
  58        7PY         0.00145  -0.00153   0.00052   0.00133  -0.00098
  59        7PZ         0.00019  -0.00020   0.00047   0.00091  -0.00005
  60        8D 0        0.00003  -0.00003   0.00001   0.00007   0.00014
  61        8D+1       -0.00001  -0.00001   0.00000   0.00000   0.00000
  62        8D-1        0.00007  -0.00007   0.00002   0.00005  -0.00004
  63        8D+2       -0.00003   0.00004  -0.00004  -0.00005   0.00028
  64        8D-2        0.00001   0.00001   0.00000   0.00000   0.00000
  65        9D 0        0.00027  -0.00028   0.00015   0.00025   0.00063
  66        9D+1        0.00018   0.00017   0.00000   0.00000   0.00000
  67        9D-1        0.00009  -0.00009  -0.00014  -0.00025   0.00001
  68        9D+2       -0.00009   0.00009   0.00001   0.00003  -0.00010
  69        9D-2        0.00008   0.00008   0.00000   0.00000   0.00000
  70 3   H  1S         -0.00004  -0.00015  -0.00002  -0.00036  -0.00139
  71        2S          0.00032   0.00121   0.00249   0.00341  -0.00076
  72        3S          0.00246   0.00854   0.00193   0.00553  -0.00451
  73        4S         -0.00007  -0.00026   0.00012   0.00010  -0.00013
  74        5PX         0.00001   0.00003   0.00004  -0.00002  -0.00042
  75        5PY         0.00000  -0.00002  -0.00002   0.00001   0.00025
  76        5PZ         0.00000   0.00001   0.00001   0.00002  -0.00009
  77        6PX         0.00025   0.00053   0.00039   0.00061  -0.00075
  78        6PY         0.00007  -0.00037  -0.00024  -0.00036   0.00043
  79        6PZ         0.00018   0.00061  -0.00001  -0.00011   0.00025
  80        7PX         0.00095   0.00163   0.00048   0.00121  -0.00092
  81        7PY         0.00048  -0.00126  -0.00029  -0.00070   0.00055
  82        7PZ         0.00008   0.00026   0.00048   0.00094  -0.00007
  83        8D 0        0.00001   0.00004   0.00001   0.00007   0.00013
  84        8D+1        0.00002   0.00008   0.00002   0.00004  -0.00003
  85        8D-1       -0.00003  -0.00004  -0.00001  -0.00002   0.00002
  86        8D+2        0.00001   0.00002   0.00002   0.00003  -0.00013
  87        8D-2       -0.00001  -0.00004  -0.00004  -0.00005   0.00024
  88        9D 0        0.00011   0.00038   0.00015   0.00025   0.00065
  89        9D+1        0.00015   0.00007  -0.00012  -0.00023   0.00000
  90        9D-1        0.00019  -0.00012   0.00007   0.00013  -0.00001
  91        9D+2        0.00012   0.00003   0.00000  -0.00001   0.00005
  92        9D-2        0.00003  -0.00012   0.00001   0.00002  -0.00007
  93 4   H  1S          0.00015   0.00004  -0.00002  -0.00035  -0.00134
  94        2S         -0.00119  -0.00027   0.00243   0.00331  -0.00057
  95        3S         -0.00848  -0.00207   0.00182   0.00524  -0.00427
  96        4S          0.00026   0.00006   0.00011   0.00009  -0.00013
  97        5PX         0.00003   0.00001  -0.00004   0.00002   0.00042
  98        5PY         0.00002   0.00000  -0.00002   0.00001   0.00024
  99        5PZ        -0.00001   0.00000   0.00001   0.00001  -0.00009
 100        6PX         0.00054   0.00023  -0.00039  -0.00059   0.00067
 101        6PY         0.00036  -0.00009  -0.00023  -0.00035   0.00039
 102        6PZ        -0.00061  -0.00015  -0.00001  -0.00010   0.00024
 103        7PX         0.00166   0.00088  -0.00046  -0.00115   0.00085
 104        7PY         0.00122  -0.00053  -0.00027  -0.00068   0.00052
 105        7PZ        -0.00026  -0.00007   0.00047   0.00092  -0.00007
 106        8D 0       -0.00004  -0.00001   0.00001   0.00007   0.00014
 107        8D+1        0.00008   0.00001  -0.00002  -0.00004   0.00003
 108        8D-1        0.00004   0.00002  -0.00001  -0.00002   0.00002
 109        8D+2       -0.00002  -0.00001   0.00002   0.00003  -0.00014
 110        8D-2       -0.00004  -0.00001   0.00004   0.00005  -0.00024
 111        9D 0       -0.00038  -0.00009   0.00015   0.00025   0.00063
 112        9D+1        0.00008   0.00015   0.00012   0.00022  -0.00001
 113        9D-1        0.00011  -0.00020   0.00007   0.00013  -0.00001
 114        9D+2       -0.00004  -0.00012  -0.00001  -0.00002   0.00006
 115        9D-2       -0.00012   0.00003  -0.00001  -0.00002   0.00008
 116 5   Cl 1S          0.00000  -0.00008  -0.25051   0.14811  -0.02297
 117        2S          0.00001   0.00029   0.84564  -0.50066   0.07874
 118        3S          0.00000  -0.00001  -0.02309   0.00934  -0.00240
 119        4S          0.00000   0.00002   0.06652  -0.04079   0.00647
 120        5S         -0.00001  -0.00001  -0.00210   0.00779   0.00351
 121        6S         -0.00001   0.00000  -0.00154  -0.00211   0.00302
 122        7PX         0.70849   0.67544   0.00006   0.00048  -0.00006
 123        7PY         0.67544  -0.70849   0.00028   0.00008   0.00005
 124        7PZ        -0.00047  -0.00015   0.50133   0.83557  -0.04799
 125        8PX        -0.01386  -0.01321   0.00000  -0.00001   0.00000
 126        8PY        -0.01321   0.01386   0.00000   0.00000   0.00000
 127        8PZ         0.00001   0.00000  -0.00879  -0.01404   0.00012
 128        9PX         0.03788   0.03611   0.00000   0.00003   0.00000
 129        9PY         0.03611  -0.03788   0.00002   0.00000   0.00000
 130        9PZ        -0.00003  -0.00001   0.02846   0.04952  -0.00273
 131       10PX        -0.00418  -0.00399   0.00000   0.00000   0.00000
 132       10PY        -0.00399   0.00418   0.00000   0.00000  -0.00001
 133       10PZ         0.00001   0.00000  -0.00435  -0.00276  -0.00347
 134       11PX        -0.00155  -0.00148   0.00000   0.00000   0.00000
 135       11PY        -0.00148   0.00155   0.00000   0.00000   0.00000
 136       11PZ         0.00000   0.00000  -0.00036  -0.00015  -0.00053
 137       12D 0        0.00000   0.00000   0.00001  -0.00051  -0.00017
 138       12D+1       -0.00023  -0.00022   0.00000   0.00000   0.00000
 139       12D-1       -0.00022   0.00023   0.00000   0.00000   0.00000
 140       12D+2        0.00001  -0.00001   0.00000   0.00000   0.00000
 141       12D-2        0.00001   0.00001   0.00000   0.00000   0.00000
 142       13D 0        0.00000   0.00000   0.00088   0.00244   0.00041
 143       13D+1        0.00059   0.00056   0.00000   0.00000   0.00000
 144       13D-1        0.00056  -0.00059   0.00000   0.00000   0.00000
 145       13D+2       -0.00001   0.00001   0.00000   0.00000   0.00000
 146       13D-2       -0.00001  -0.00001   0.00000   0.00000   0.00000
 147       14D 0        0.00000   0.00000   0.00058  -0.00017   0.00080
 148       14D+1       -0.00051  -0.00049   0.00000   0.00000   0.00000
 149       14D-1       -0.00049   0.00052   0.00000   0.00000   0.00000
 150       14D+2        0.00002  -0.00002   0.00000   0.00000   0.00000
 151       14D-2        0.00002   0.00002   0.00000   0.00000   0.00000
 152       15F 0        0.00000   0.00000   0.00001  -0.00007  -0.00003
 153       15F+1        0.00000   0.00000   0.00000   0.00000   0.00000
 154       15F-1        0.00000   0.00000   0.00000   0.00000   0.00000
 155       15F+2        0.00002  -0.00002   0.00000   0.00000   0.00000
 156       15F-2        0.00002   0.00002   0.00000   0.00000   0.00000
 157       15F+3        0.00000   0.00000   0.00000   0.00000   0.00000
 158       15F-3        0.00000   0.00000   0.00001   0.00003   0.00000
 159       16F 0        0.00000   0.00000  -0.00032  -0.00059  -0.00031
 160       16F+1       -0.00016  -0.00016   0.00000   0.00000   0.00000
 161       16F-1       -0.00015   0.00016   0.00000   0.00000   0.00000
 162       16F+2       -0.00002   0.00002   0.00000   0.00000   0.00000
 163       16F-2       -0.00002  -0.00002   0.00000   0.00000   0.00000
 164       16F+3        0.00000   0.00000   0.00000   0.00000   0.00000
 165       16F-3        0.00000   0.00000  -0.00002  -0.00005   0.00002
 166 6   F  1S          0.00000   0.00000  -0.00144  -0.01043  -0.04969
 167        2S          0.00000   0.00000   0.00020   0.00043   0.00080
 168        3S          0.00000   0.00000  -0.00007  -0.00045  -0.00202
 169        4S         -0.00001   0.00000  -0.00055  -0.00105   0.00057
 170        5S         -0.00001   0.00000   0.00010  -0.00168   0.00179
 171        6PX        -0.00003  -0.00003   0.00000   0.00000   0.00000
 172        6PY        -0.00003   0.00003   0.00000   0.00000   0.00000
 173        6PZ         0.00000   0.00000   0.00058   0.00111   0.00011
 174        7PX         0.00000   0.00000   0.00000   0.00000   0.00000
 175        7PY         0.00000   0.00000   0.00000   0.00000   0.00000
 176        7PZ         0.00000   0.00000   0.00069   0.00132   0.00002
 177        8PX        -0.00018  -0.00017   0.00000   0.00000   0.00000
 178        8PY        -0.00017   0.00018   0.00000   0.00000   0.00000
 179        8PZ         0.00000   0.00000   0.00008   0.00017   0.00048
 180        9PX        -0.00026  -0.00025   0.00000   0.00000   0.00000
 181        9PY        -0.00025   0.00026   0.00000   0.00000   0.00000
 182        9PZ         0.00000   0.00000   0.00017  -0.00009   0.00072
 183       10D 0        0.00000   0.00000   0.00001   0.00001  -0.00002
 184       10D+1        0.00000   0.00000   0.00000   0.00000   0.00000
 185       10D-1        0.00000   0.00000   0.00000   0.00000   0.00000
 186       10D+2        0.00000   0.00000   0.00000   0.00000   0.00000
 187       10D-2        0.00000   0.00000   0.00000   0.00000   0.00000
 188       11D 0        0.00000   0.00000  -0.00003  -0.00010   0.00001
 189       11D+1        0.00003   0.00003   0.00000   0.00000   0.00000
 190       11D-1        0.00003  -0.00003   0.00000   0.00000   0.00000
 191       11D+2       -0.00002   0.00002   0.00000   0.00000   0.00000
 192       11D-2       -0.00002  -0.00002   0.00000   0.00000   0.00000
 193       12D 0        0.00000   0.00000  -0.00019  -0.00012   0.00011
 194       12D+1       -0.00016  -0.00015   0.00000   0.00000   0.00000
 195       12D-1       -0.00015   0.00016   0.00000   0.00000   0.00000
 196       12D+2        0.00008  -0.00008   0.00000   0.00000   0.00000
 197       12D-2        0.00008   0.00008   0.00000   0.00000   0.00000
 198       13F 0        0.00000   0.00000   0.00001  -0.00001  -0.00004
 199       13F+1        0.00001   0.00001   0.00000   0.00000   0.00000
 200       13F-1        0.00001  -0.00001   0.00000   0.00000   0.00000
 201       13F+2       -0.00001   0.00001   0.00000   0.00000   0.00000
 202       13F-2       -0.00001  -0.00001   0.00000   0.00000   0.00000
 203       13F+3        0.00000   0.00000   0.00000   0.00000   0.00000
 204       13F-3        0.00000   0.00000   0.00000   0.00000   0.00000
 205       14F 0        0.00000   0.00000  -0.00004   0.00002   0.00013
 206       14F+1       -0.00004  -0.00004   0.00000   0.00000   0.00000
 207       14F-1       -0.00004   0.00004   0.00000   0.00000   0.00000
 208       14F+2        0.00003  -0.00003   0.00000   0.00000   0.00000
 209       14F-2        0.00003   0.00003   0.00000   0.00000   0.00000
 210       14F+3        0.00000   0.00000   0.00000   0.00000   0.00000
 211       14F-3        0.00000   0.00000   0.00000   0.00000  -0.00001
                           6         7         8         9        10
     Eigenvalues --     2.00000   2.00000   1.98361   1.97544   1.96957
   1 1   C  1S          0.05032  -0.00046   0.01553  -0.07426  -0.14339
   2        2S         -0.00012  -0.00001  -0.04230   0.20150   0.39629
   3        3S          0.00229  -0.00003  -0.01048   0.04680   0.09596
   4        4S         -0.00701   0.00016   0.00538   0.08012   0.19037
   5        5S         -0.00017   0.00010   0.00787  -0.00713  -0.02886
   6        6PX         0.00000   0.00000   0.00012  -0.00089  -0.00330
   7        6PY         0.00000   0.00000  -0.00008   0.00064   0.00239
   8        6PZ         0.00004   0.00000   0.00648   0.01015  -0.02737
   9        7PX         0.00001   0.00000   0.00017  -0.00110  -0.00415
  10        7PY         0.00000   0.00000  -0.00012   0.00082   0.00307
  11        7PZ        -0.00075   0.00000   0.00708   0.01765  -0.03265
  12        8PX        -0.00001   0.00000   0.00010  -0.00078  -0.00289
  13        8PY        -0.00001   0.00000   0.00000   0.00034   0.00177
  14        8PZ         0.00521   0.00009   0.01667   0.00583  -0.02269
  15        9PX         0.00000   0.00000   0.00001  -0.00003  -0.00015
  16        9PY         0.00000   0.00000   0.00001  -0.00001   0.00003
  17        9PZ         0.00011   0.00001  -0.00070   0.00031  -0.00406
  18       10D 0        0.00004   0.00000   0.00052  -0.00221  -0.00958
  19       10D+1        0.00000   0.00000   0.00000   0.00002   0.00005
  20       10D-1        0.00000   0.00000   0.00000  -0.00002  -0.00005
  21       10D+2        0.00000   0.00000   0.00000   0.00002   0.00011
  22       10D-2        0.00000   0.00000   0.00001  -0.00008  -0.00026
  23       11D 0       -0.00023  -0.00002  -0.00528   0.00452  -0.01881
  24       11D+1        0.00000   0.00000  -0.00003   0.00004   0.00008
  25       11D-1        0.00000   0.00000   0.00002  -0.00003  -0.00009
  26       11D+2        0.00000   0.00000  -0.00004   0.00006   0.00030
  27       11D-2        0.00000   0.00000   0.00005  -0.00022  -0.00071
  28       12D 0        0.00027   0.00008   0.00206  -0.00852  -0.01664
  29       12D+1        0.00000   0.00000  -0.00002  -0.00001   0.00000
  30       12D-1        0.00001   0.00000   0.00002   0.00003   0.00001
  31       12D+2        0.00000   0.00000  -0.00006   0.00010   0.00033
  32       12D-2       -0.00001   0.00000   0.00001  -0.00018  -0.00052
  33       13F 0       -0.00007   0.00000   0.00000   0.00243   0.00062
  34       13F+1        0.00000   0.00000   0.00000  -0.00001  -0.00001
  35       13F-1        0.00000   0.00000   0.00000   0.00000   0.00000
  36       13F+2        0.00000   0.00000   0.00000   0.00000   0.00000
  37       13F-2        0.00000   0.00000   0.00000   0.00000   0.00000
  38       13F+3        0.00000   0.00000   0.00000   0.00001   0.00002
  39       13F-3        0.00001   0.00000  -0.00014   0.00194   0.00390
  40       14F 0        0.00127  -0.00001   0.00471   0.00261  -0.00198
  41       14F+1        0.00000   0.00000   0.00000   0.00003   0.00007
  42       14F-1        0.00000   0.00000   0.00000  -0.00001  -0.00005
  43       14F+2        0.00000   0.00000   0.00001  -0.00001  -0.00002
  44       14F-2        0.00000   0.00000  -0.00001   0.00002   0.00005
  45       14F+3        0.00000   0.00000   0.00001   0.00000   0.00002
  46       14F-3       -0.00044   0.00003   0.00186  -0.00098   0.00406
  47 2   H  1S         -0.00008   0.00000  -0.00859   0.03730   0.07890
  48        2S          0.00098  -0.00006  -0.01536   0.04398   0.08210
  49        3S          0.00180   0.00004  -0.00097  -0.00476  -0.01106
  50        4S          0.00003   0.00000  -0.00046   0.00050   0.00040
  51        5PX         0.00000   0.00000   0.00000  -0.00001  -0.00005
  52        5PY         0.00001   0.00000  -0.00109   0.00401   0.00849
  53        5PZ        -0.00004   0.00000   0.00028   0.00095   0.00032
  54        6PX         0.00000   0.00000   0.00002  -0.00006  -0.00018
  55        6PY         0.00007   0.00000  -0.00076   0.00086   0.00133
  56        6PZ         0.00032  -0.00001   0.00009   0.00242  -0.00054
  57        7PX        -0.00001   0.00000   0.00000  -0.00010  -0.00022
  58        7PY         0.00043   0.00001   0.00135  -0.00496  -0.00997
  59        7PZ        -0.00054   0.00001  -0.00279  -0.00171  -0.00125
  60        8D 0        0.00006   0.00000   0.00014  -0.00036  -0.00090
  61        8D+1        0.00000   0.00000   0.00000   0.00000   0.00000
  62        8D-1       -0.00001   0.00000  -0.00014   0.00050   0.00023
  63        8D+2       -0.00002   0.00000   0.00004  -0.00055  -0.00136
  64        8D-2        0.00000   0.00000   0.00000  -0.00001  -0.00003
  65        9D 0        0.00009  -0.00001  -0.00006   0.00123   0.00100
  66        9D+1        0.00000   0.00000   0.00000   0.00000   0.00000
  67        9D-1        0.00014   0.00000  -0.00006   0.00004  -0.00038
  68        9D+2        0.00004   0.00000  -0.00098   0.00226   0.00411
  69        9D-2        0.00000   0.00000   0.00000  -0.00002  -0.00004
  70 3   H  1S         -0.00008   0.00000  -0.00880   0.03868   0.08365
  71        2S          0.00098  -0.00006  -0.01530   0.04461   0.08539
  72        3S          0.00182   0.00004  -0.00077  -0.00578  -0.01447
  73        4S          0.00003   0.00000  -0.00047   0.00051   0.00032
  74        5PX         0.00001   0.00000  -0.00096   0.00360   0.00775
  75        5PY        -0.00001   0.00000   0.00056  -0.00210  -0.00451
  76        5PZ        -0.00004   0.00000   0.00027   0.00099   0.00039
  77        6PX         0.00006   0.00000  -0.00052   0.00045   0.00059
  78        6PY        -0.00004   0.00000   0.00031  -0.00029  -0.00035
  79        6PZ         0.00033  -0.00001   0.00005   0.00245  -0.00052
  80        7PX         0.00038   0.00001   0.00119  -0.00454  -0.00955
  81        7PY        -0.00022   0.00000  -0.00075   0.00266   0.00561
  82        7PZ        -0.00057   0.00001  -0.00286  -0.00182  -0.00144
  83        8D 0        0.00006   0.00000   0.00014  -0.00037  -0.00094
  84        8D+1       -0.00001   0.00000  -0.00013   0.00044   0.00022
  85        8D-1        0.00000   0.00000   0.00008  -0.00025  -0.00012
  86        8D+2        0.00001   0.00000  -0.00001   0.00028   0.00069
  87        8D-2       -0.00002   0.00000   0.00003  -0.00049  -0.00123
  88        9D 0        0.00009  -0.00001  -0.00007   0.00127   0.00106
  89        9D+1        0.00012   0.00000  -0.00005   0.00002  -0.00035
  90        9D-1       -0.00007   0.00000   0.00003  -0.00001   0.00020
  91        9D+2       -0.00002   0.00000   0.00050  -0.00116  -0.00212
  92        9D-2        0.00003   0.00000  -0.00088   0.00203   0.00371
  93 4   H  1S         -0.00008   0.00000  -0.00859   0.03736   0.07926
  94        2S          0.00098  -0.00006  -0.01532   0.04407   0.08251
  95        3S          0.00183   0.00004  -0.00089  -0.00449  -0.01089
  96        4S          0.00003   0.00000  -0.00048   0.00054   0.00048
  97        5PX        -0.00001   0.00000   0.00095  -0.00349  -0.00742
  98        5PY        -0.00001   0.00000   0.00054  -0.00200  -0.00421
  99        5PZ        -0.00004   0.00000   0.00028   0.00096   0.00033
 100        6PX        -0.00006   0.00000   0.00064  -0.00074  -0.00120
 101        6PY        -0.00004   0.00000   0.00036  -0.00039  -0.00049
 102        6PZ         0.00032  -0.00001   0.00008   0.00242  -0.00053
 103        7PX        -0.00038  -0.00001  -0.00116   0.00420   0.00854
 104        7PY        -0.00021   0.00000  -0.00072   0.00254   0.00521
 105        7PZ        -0.00055   0.00001  -0.00280  -0.00174  -0.00128
 106        8D 0        0.00006   0.00000   0.00014  -0.00035  -0.00090
 107        8D+1        0.00001   0.00000   0.00013  -0.00043  -0.00020
 108        8D-1        0.00000   0.00000   0.00007  -0.00025  -0.00011
 109        8D+2        0.00001   0.00000  -0.00002   0.00028   0.00070
 110        8D-2        0.00001   0.00000  -0.00003   0.00047   0.00117
 111        9D 0        0.00009  -0.00001  -0.00006   0.00124   0.00103
 112        9D+1       -0.00012   0.00000   0.00005  -0.00003   0.00034
 113        9D-1       -0.00007   0.00000   0.00003  -0.00002   0.00019
 114        9D+2       -0.00002   0.00000   0.00049  -0.00114  -0.00206
 115        9D-2       -0.00003   0.00000   0.00086  -0.00198  -0.00359
 116 5   Cl 1S          0.00007   0.99708  -0.00065   0.06627  -0.03518
 117        2S         -0.00006   0.01040   0.00295  -0.25115   0.13225
 118        3S          0.00006   0.00017  -0.00397   0.52307  -0.28131
 119        4S          0.00008   0.00026  -0.00025   0.06406  -0.03785
 120        5S         -0.00182  -0.00020  -0.01235   0.34994  -0.17262
 121        6S         -0.00051  -0.00011  -0.00462   0.02458   0.01114
 122        7PX         0.00000   0.00000   0.00000   0.00003   0.00018
 123        7PY         0.00001   0.00000   0.00000  -0.00002  -0.00012
 124        7PZ         0.00730   0.00016   0.00151   0.00471   0.02861
 125        8PX         0.00000   0.00000   0.00001  -0.00009  -0.00044
 126        8PY         0.00000   0.00000  -0.00001   0.00006   0.00031
 127        8PZ         0.00051  -0.00003  -0.00224  -0.00634  -0.07170
 128        9PX         0.00000   0.00000   0.00000  -0.00003  -0.00019
 129        9PY         0.00000   0.00000   0.00000   0.00002   0.00013
 130        9PZ         0.00031   0.00003  -0.00263   0.00054  -0.03126
 131       10PX         0.00000   0.00000   0.00000  -0.00001  -0.00013
 132       10PY         0.00000   0.00000   0.00000   0.00001   0.00009
 133       10PZ         0.00096   0.00015   0.00273   0.00279  -0.05214
 134       11PX         0.00000   0.00000   0.00000   0.00001   0.00002
 135       11PY         0.00000   0.00000   0.00000   0.00000  -0.00001
 136       11PZ         0.00002   0.00002  -0.00040   0.00258  -0.00873
 137       12D 0       -0.00003   0.00001  -0.00036   0.00451   0.00450
 138       12D+1        0.00000   0.00000   0.00000   0.00002   0.00007
 139       12D-1        0.00000   0.00000   0.00000  -0.00001  -0.00004
 140       12D+2        0.00000   0.00000   0.00000   0.00000   0.00000
 141       12D-2        0.00000   0.00000   0.00000   0.00000  -0.00001
 142       13D 0       -0.00022   0.00000  -0.00163   0.00824   0.00961
 143       13D+1        0.00000   0.00000   0.00000   0.00003   0.00011
 144       13D-1        0.00000   0.00000   0.00000  -0.00002  -0.00007
 145       13D+2        0.00000   0.00000   0.00000   0.00000   0.00001
 146       13D-2        0.00000   0.00000   0.00000   0.00000  -0.00001
 147       14D 0       -0.00014  -0.00004  -0.00184  -0.00016   0.00536
 148       14D+1        0.00000   0.00000   0.00000  -0.00001  -0.00001
 149       14D-1        0.00000   0.00000   0.00000   0.00000   0.00001
 150       14D+2        0.00000   0.00000   0.00000  -0.00001  -0.00001
 151       14D-2        0.00000   0.00000   0.00000   0.00000   0.00001
 152       15F 0        0.00005   0.00000   0.00023  -0.00181  -0.00190
 153       15F+1        0.00000   0.00000   0.00000  -0.00001  -0.00003
 154       15F-1        0.00000   0.00000   0.00000   0.00000   0.00002
 155       15F+2        0.00000   0.00000   0.00000   0.00000   0.00000
 156       15F-2        0.00000   0.00000   0.00000   0.00000   0.00000
 157       15F+3        0.00000   0.00000   0.00000   0.00000   0.00000
 158       15F-3       -0.00001   0.00000  -0.00001   0.00002   0.00009
 159       16F 0       -0.00005   0.00001   0.00005  -0.00093  -0.00169
 160       16F+1        0.00000   0.00000   0.00000   0.00000  -0.00001
 161       16F-1        0.00000   0.00000   0.00000   0.00000   0.00001
 162       16F+2        0.00000   0.00000   0.00000   0.00000   0.00000
 163       16F-2        0.00000   0.00000   0.00000   0.00000  -0.00001
 164       16F+3        0.00000   0.00000   0.00000   0.00000   0.00000
 165       16F-3        0.00003   0.00000   0.00002  -0.00001  -0.00021
 166 6   F  1S          0.97743  -0.00002   0.21187   0.01336   0.02166
 167        2S         -0.01503   0.00000  -0.53157  -0.03459  -0.05740
 168        3S          0.04206   0.00000  -0.16469  -0.01098  -0.01856
 169        4S          0.00193  -0.00001  -0.36872  -0.02402  -0.04395
 170        5S         -0.00083  -0.00006  -0.04529   0.00424   0.00775
 171        6PX         0.00000   0.00000  -0.00001  -0.00013  -0.00107
 172        6PY         0.00000   0.00000   0.00003   0.00010   0.00087
 173        6PZ         0.00048   0.00000   0.01350   0.01306   0.08699
 174        7PX         0.00000   0.00000  -0.00001  -0.00016  -0.00129
 175        7PY         0.00000   0.00000   0.00003   0.00013   0.00104
 176        7PZ        -0.00012   0.00000   0.01472   0.01595   0.10467
 177        8PX         0.00000   0.00000  -0.00001  -0.00011  -0.00098
 178        8PY         0.00000   0.00000   0.00003   0.00009   0.00080
 179        8PZ         0.00241  -0.00001   0.01246   0.01259   0.08322
 180        9PX         0.00000   0.00000  -0.00001  -0.00002  -0.00026
 181        9PY         0.00000   0.00000   0.00001   0.00002   0.00022
 182        9PZ        -0.00008  -0.00002   0.00219   0.00325   0.02409
 183       10D 0       -0.00002   0.00000  -0.00013   0.00018   0.00060
 184       10D+1        0.00000   0.00000   0.00000   0.00000  -0.00001
 185       10D-1        0.00000   0.00000   0.00000   0.00000   0.00000
 186       10D+2        0.00000   0.00000   0.00000   0.00000   0.00000
 187       10D-2        0.00000   0.00000   0.00000   0.00000   0.00000
 188       11D 0       -0.00003   0.00000  -0.00104   0.00092   0.00274
 189       11D+1        0.00000   0.00000   0.00000  -0.00001  -0.00003
 190       11D-1        0.00000   0.00000   0.00000   0.00001   0.00002
 191       11D+2        0.00000   0.00000   0.00000   0.00000   0.00000
 192       11D-2        0.00000   0.00000   0.00000   0.00000   0.00000
 193       12D 0        0.00080   0.00000  -0.00055   0.00036   0.00383
 194       12D+1        0.00000   0.00000   0.00000   0.00001  -0.00001
 195       12D-1        0.00000   0.00000   0.00000   0.00000   0.00001
 196       12D+2        0.00000   0.00000   0.00000   0.00000  -0.00001
 197       12D-2        0.00000   0.00000   0.00000   0.00001   0.00001
 198       13F 0       -0.00006   0.00000  -0.00002   0.00013   0.00027
 199       13F+1        0.00000   0.00000   0.00000   0.00000   0.00000
 200       13F-1        0.00000   0.00000   0.00000   0.00000   0.00000
 201       13F+2        0.00000   0.00000   0.00000   0.00000   0.00000
 202       13F-2        0.00000   0.00000   0.00000   0.00000   0.00000
 203       13F+3        0.00000   0.00000   0.00000   0.00000   0.00000
 204       13F-3        0.00001   0.00000   0.00001   0.00002   0.00003
 205       14F 0        0.00020   0.00000  -0.00039  -0.00006   0.00062
 206       14F+1        0.00000   0.00000   0.00000   0.00000   0.00000
 207       14F-1        0.00000   0.00000   0.00000   0.00000   0.00000
 208       14F+2        0.00000   0.00000   0.00000   0.00000   0.00000
 209       14F-2        0.00000   0.00000   0.00000   0.00000   0.00000
 210       14F+3        0.00000   0.00000   0.00000   0.00000   0.00000
 211       14F-3       -0.00001   0.00000  -0.00007  -0.00006  -0.00009
                          11        12        13        14        15
     Eigenvalues --     1.96441   1.96437   1.95945   1.95924   1.94913
   1 1   C  1S         -0.00144   0.00009  -0.00145   0.00008   0.00199
   2        2S          0.00397  -0.00026   0.00392  -0.00025  -0.00571
   3        3S          0.00087  -0.00006   0.00075  -0.00007  -0.00143
   4        4S          0.00086  -0.00036  -0.00118  -0.00057  -0.01175
   5        5S         -0.00061  -0.00007  -0.00099  -0.00024  -0.00233
   6        6PX         0.08502   0.05455   0.18837   0.13302   0.05545
   7        6PY        -0.05732   0.08138  -0.13246   0.18880  -0.03666
   8        6PZ        -0.00017  -0.00002  -0.00011  -0.00009  -0.00175
   9        7PX         0.11373   0.07304   0.24963   0.17626   0.07709
  10        7PY        -0.07667   0.10897  -0.17552   0.25014  -0.05099
  11        7PZ        -0.00013  -0.00003  -0.00016  -0.00012  -0.00247
  12        8PX         0.08365   0.05372   0.19308   0.13639   0.05933
  13        8PY        -0.05622   0.07986  -0.13558   0.19329  -0.03918
  14        8PZ        -0.00022  -0.00004  -0.00022  -0.00006  -0.00259
  15        9PX        -0.00145  -0.00113   0.01565   0.01102   0.01011
  16        9PY         0.00104  -0.00178  -0.01094   0.01553  -0.00667
  17        9PZ        -0.00006  -0.00001  -0.00004  -0.00001  -0.00004
  18       10D 0       -0.00007   0.00000  -0.00003   0.00000   0.00038
  19       10D+1       -0.00229  -0.00151  -0.00104  -0.00073  -0.00311
  20       10D-1        0.00154  -0.00224   0.00073  -0.00103   0.00206
  21       10D+2       -0.00361   0.00518  -0.00841   0.01211  -0.00269
  22       10D-2        0.00546   0.00346   0.01219   0.00850   0.00414
  23       11D 0       -0.00009   0.00002   0.00012   0.00000   0.00199
  24       11D+1       -0.01053  -0.00708   0.00635   0.00440  -0.01296
  25       11D-1        0.00709  -0.01055  -0.00449   0.00628   0.00858
  26       11D+2       -0.01189   0.01720  -0.02567   0.03714  -0.00911
  27       11D-2        0.01793   0.01146   0.03717   0.02606   0.01403
  28       12D 0       -0.00026   0.00007  -0.00018   0.00001   0.00111
  29       12D+1       -0.00496  -0.00340   0.00467   0.00327   0.00096
  30       12D-1        0.00332  -0.00505  -0.00331   0.00468  -0.00065
  31       12D+2       -0.01147   0.01672  -0.02028   0.02949  -0.00536
  32       12D-2        0.01744   0.01124   0.02950   0.02079   0.00835
  33       13F 0        0.00001   0.00000   0.00002   0.00000  -0.00008
  34       13F+1        0.00019   0.00014  -0.00164  -0.00115  -0.00184
  35       13F-1       -0.00013   0.00021   0.00116  -0.00164   0.00122
  36       13F+2        0.00035  -0.00053   0.00005  -0.00010   0.00018
  37       13F-2       -0.00054  -0.00035  -0.00007  -0.00007  -0.00028
  38       13F+3        0.00000  -0.00001  -0.00002  -0.00003  -0.00001
  39       13F-3        0.00007  -0.00001   0.00009  -0.00001  -0.00010
  40       14F 0       -0.00002  -0.00001  -0.00007   0.00000  -0.00024
  41       14F+1        0.00023   0.00021  -0.00481  -0.00335  -0.00601
  42       14F-1       -0.00015   0.00031   0.00340  -0.00478   0.00399
  43       14F+2        0.00214  -0.00323   0.00003  -0.00012   0.00177
  44       14F-2       -0.00322  -0.00214  -0.00004  -0.00007  -0.00273
  45       14F+3       -0.00004   0.00000  -0.00012  -0.00003  -0.00001
  46       14F-3       -0.00001   0.00001  -0.00004   0.00000  -0.00057
  47 2   H  1S          0.04003  -0.05605   0.08739  -0.12395   0.02388
  48        2S          0.03660  -0.05060   0.08938  -0.12628   0.02467
  49        3S         -0.03370   0.04832  -0.06844   0.09781  -0.00172
  50        4S          0.00310  -0.00475  -0.01007   0.01427  -0.00056
  51        5PX         0.00180   0.00116   0.00355   0.00251   0.00085
  52        5PY         0.00317  -0.00440   0.00718  -0.01013   0.00186
  53        5PZ         0.00002   0.00002   0.00161  -0.00229  -0.00022
  54        6PX         0.00685   0.00447   0.01095   0.00783   0.00302
  55        6PY        -0.00407   0.00597  -0.00632   0.00915  -0.00281
  56        6PZ         0.00157  -0.00232  -0.00028   0.00031   0.00059
  57        7PX         0.00799   0.00517   0.01087   0.00771   0.00230
  58        7PY        -0.00846   0.01172  -0.02627   0.03729  -0.00473
  59        7PZ        -0.00046   0.00055  -0.00441   0.00623  -0.00130
  60        8D 0       -0.00026   0.00034  -0.00079   0.00112  -0.00021
  61        8D+1        0.00002   0.00001   0.00026   0.00018  -0.00003
  62        8D-1        0.00042  -0.00062   0.00013  -0.00020   0.00015
  63        8D+2       -0.00037   0.00050  -0.00111   0.00158  -0.00026
  64        8D-2        0.00091   0.00058   0.00182   0.00129   0.00049
  65        9D 0        0.00031  -0.00045  -0.00082   0.00121   0.00012
  66        9D+1       -0.00126  -0.00086   0.00085   0.00058  -0.00099
  67        9D-1        0.00183  -0.00277  -0.00201   0.00280   0.00035
  68        9D+2        0.00097  -0.00133   0.00159  -0.00215   0.00064
  69        9D-2        0.00141   0.00092   0.00232   0.00166   0.00092
  70 3   H  1S         -0.06958  -0.00436  -0.14996  -0.01329  -0.04702
  71        2S         -0.06152  -0.00380  -0.14935  -0.01320  -0.04408
  72        3S          0.06148   0.00418   0.12253   0.01119   0.00647
  73        4S         -0.00546  -0.00033   0.01775   0.00162   0.00110
  74        5PX        -0.00479   0.00079  -0.01082   0.00132  -0.00316
  75        5PY         0.00264   0.00202   0.00588   0.00439   0.00178
  76        5PZ        -0.00005   0.00000  -0.00283  -0.00025   0.00008
  77        6PX         0.00627   0.00448   0.00949   0.00784   0.00489
  78        6PY        -0.00432   0.00673  -0.00688   0.01132  -0.00313
  79        6PZ        -0.00282  -0.00019   0.00067   0.00006  -0.00125
  80        7PX         0.01238   0.00543   0.03865   0.01019   0.00832
  81        7PY        -0.00802   0.00755  -0.02391   0.00952  -0.00503
  82        7PZ         0.00088   0.00006   0.00777   0.00068   0.00330
  83        8D 0        0.00042   0.00003   0.00132   0.00012   0.00039
  84        8D+1       -0.00065  -0.00003  -0.00020   0.00015  -0.00026
  85        8D-1        0.00038   0.00004   0.00008   0.00029   0.00015
  86        8D+2       -0.00037   0.00091  -0.00108   0.00190  -0.00029
  87        8D-2        0.00049   0.00055   0.00151   0.00125   0.00044
  88        9D 0       -0.00047  -0.00002   0.00148   0.00015  -0.00013
  89        9D+1       -0.00276  -0.00096   0.00299   0.00076  -0.00029
  90        9D-1        0.00174  -0.00123  -0.00184   0.00071   0.00026
  91        9D+2        0.00067   0.00144   0.00103   0.00257   0.00041
  92        9D-2       -0.00145   0.00071  -0.00235   0.00120  -0.00088
  93 4   H  1S          0.03172   0.06044   0.06446   0.13745   0.01922
  94        2S          0.02902   0.05459   0.06601   0.14016   0.02008
  95        3S         -0.02698  -0.05218  -0.05073  -0.10848  -0.00136
  96        4S          0.00239   0.00510  -0.00748  -0.01585  -0.00046
  97        5PX        -0.00120  -0.00457  -0.00261  -0.01065  -0.00083
  98        5PY        -0.00295  -0.00157  -0.00605  -0.00403  -0.00154
  99        5PZ         0.00001  -0.00002   0.00118   0.00255  -0.00019
 100        6PX         0.00648   0.00379   0.01012   0.00590   0.00356
 101        6PY        -0.00481   0.00630  -0.00823   0.01004  -0.00164
 102        6PZ         0.00123   0.00249  -0.00023  -0.00038   0.00049
 103        7PX         0.01004   0.00891   0.02274   0.03306   0.00448
 104        7PY        -0.00403   0.00986  -0.00064   0.02555  -0.00019
 105        7PZ        -0.00038  -0.00060  -0.00327  -0.00695  -0.00099
 106        8D 0       -0.00020  -0.00037  -0.00058  -0.00124  -0.00017
 107        8D+1       -0.00028  -0.00059   0.00006  -0.00026  -0.00012
 108        8D-1       -0.00019  -0.00033  -0.00030   0.00000  -0.00004
 109        8D+2       -0.00070   0.00067  -0.00133   0.00169  -0.00035
 110        8D-2        0.00074   0.00024   0.00171   0.00104   0.00043
 111        9D 0        0.00024   0.00047  -0.00062  -0.00135   0.00009
 112        9D+1       -0.00193  -0.00225   0.00175   0.00248  -0.00078
 113        9D-1        0.00045  -0.00209  -0.00007   0.00191   0.00077
 114        9D+2       -0.00169  -0.00008  -0.00280  -0.00015  -0.00110
 115        9D-2        0.00008  -0.00162   0.00024  -0.00270   0.00002
 116 5   Cl 1S         -0.00021   0.00001  -0.00017   0.00001   0.00039
 117        2S          0.00077  -0.00004   0.00063  -0.00002  -0.00148
 118        3S         -0.00169   0.00009  -0.00143   0.00004   0.00301
 119        4S         -0.00024   0.00001  -0.00022   0.00001   0.00046
 120        5S         -0.00089   0.00004  -0.00073   0.00005   0.00266
 121        6S          0.00029   0.00000   0.00036   0.00007   0.00087
 122        7PX        -0.00762  -0.00490  -0.03437  -0.02508   0.18647
 123        7PY         0.00514  -0.00732   0.02418  -0.03561  -0.12355
 124        7PZ         0.00043  -0.00001   0.00071   0.00000   0.00128
 125        8PX         0.01807   0.01162   0.08129   0.05926  -0.42661
 126        8PY        -0.01219   0.01735  -0.05720   0.08416   0.28266
 127        8PZ        -0.00105   0.00003  -0.00167  -0.00001  -0.00298
 128        9PX         0.00837   0.00539   0.03755   0.02741  -0.20606
 129        9PY        -0.00565   0.00805  -0.02642   0.03892   0.13653
 130        9PZ        -0.00045   0.00002  -0.00073   0.00000  -0.00146
 131       10PX         0.00893   0.00578   0.04361   0.03204  -0.30651
 132       10PY        -0.00603   0.00865  -0.03071   0.04554   0.20309
 133       10PZ        -0.00079   0.00002  -0.00127  -0.00004  -0.00326
 134       11PX         0.00172   0.00117   0.00246   0.00192  -0.05174
 135       11PY        -0.00117   0.00176  -0.00175   0.00276   0.03428
 136       11PZ        -0.00013   0.00000  -0.00022  -0.00002  -0.00100
 137       12D 0        0.00006   0.00000   0.00007   0.00000  -0.00017
 138       12D+1       -0.00165  -0.00105  -0.00501  -0.00356   0.00023
 139       12D-1        0.00111  -0.00157   0.00352  -0.00505  -0.00016
 140       12D+2       -0.00007   0.00009  -0.00031   0.00045  -0.00013
 141       12D-2        0.00010   0.00006   0.00044   0.00031   0.00020
 142       13D 0        0.00014   0.00000   0.00018   0.00001  -0.00025
 143       13D+1       -0.00256  -0.00162  -0.00887  -0.00631   0.00065
 144       13D-1        0.00173  -0.00242   0.00624  -0.00896  -0.00044
 145       13D+2       -0.00018   0.00027  -0.00036   0.00053  -0.00030
 146       13D-2        0.00028   0.00018   0.00052   0.00037   0.00046
 147       14D 0        0.00008   0.00000   0.00013   0.00001   0.00011
 148       14D+1        0.00006   0.00004   0.00007   0.00004   0.00280
 149       14D-1       -0.00004   0.00005  -0.00004   0.00004  -0.00187
 150       14D+2        0.00036  -0.00055   0.00004  -0.00006  -0.00004
 151       14D-2       -0.00055  -0.00037  -0.00006  -0.00004   0.00005
 152       15F 0       -0.00002   0.00000  -0.00003   0.00000   0.00003
 153       15F+1        0.00077   0.00049   0.00213   0.00151  -0.00119
 154       15F-1       -0.00052   0.00074  -0.00149   0.00215   0.00079
 155       15F+2        0.00006  -0.00009   0.00019  -0.00028   0.00005
 156       15F-2       -0.00010  -0.00006  -0.00027  -0.00019  -0.00008
 157       15F+3        0.00000   0.00000   0.00000   0.00000   0.00000
 158       15F-3        0.00000   0.00000   0.00000   0.00000   0.00000
 159       16F 0       -0.00003   0.00000  -0.00004   0.00000   0.00004
 160       16F+1        0.00051   0.00033   0.00160   0.00115  -0.00151
 161       16F-1       -0.00035   0.00049  -0.00113   0.00164   0.00100
 162       16F+2       -0.00001   0.00001  -0.00011   0.00015   0.00011
 163       16F-2        0.00001   0.00001   0.00016   0.00011  -0.00017
 164       16F+3        0.00000   0.00000   0.00000   0.00000   0.00000
 165       16F-3        0.00000   0.00000   0.00000   0.00000   0.00000
 166 6   F  1S          0.00019  -0.00001   0.00015  -0.00001  -0.00046
 167        2S         -0.00053   0.00004  -0.00045   0.00001   0.00099
 168        3S         -0.00017   0.00001  -0.00015   0.00000   0.00030
 169        4S         -0.00039   0.00002  -0.00036   0.00003   0.00063
 170        5S          0.00020  -0.00001   0.00018   0.00004   0.00020
 171        6PX         0.27318   0.18539  -0.13751  -0.09326  -0.01845
 172        6PY        -0.18351   0.27554   0.09693  -0.13268   0.01223
 173        6PZ         0.00143  -0.00027   0.00242   0.00002   0.01441
 174        7PX         0.32589   0.22115  -0.16309  -0.11058  -0.02183
 175        7PY        -0.21892   0.32868   0.11496  -0.15732   0.01447
 176        7PZ         0.00171  -0.00033   0.00289   0.00003   0.01718
 177        8PX         0.26338   0.17879  -0.13698  -0.09302  -0.01870
 178        8PY        -0.17693   0.26573   0.09655  -0.13233   0.01239
 179        8PZ         0.00141  -0.00026   0.00239   0.00004   0.01416
 180        9PX         0.08269   0.05619  -0.04811  -0.03281  -0.00912
 181        9PY        -0.05556   0.08352   0.03390  -0.04666   0.00604
 182        9PZ         0.00043  -0.00008   0.00070   0.00002   0.00442
 183       10D 0        0.00001   0.00000   0.00001   0.00000   0.00003
 184       10D+1        0.00050   0.00034   0.00007   0.00005   0.00010
 185       10D-1       -0.00034   0.00050  -0.00005   0.00007  -0.00006
 186       10D+2       -0.00001   0.00002  -0.00002   0.00003  -0.00001
 187       10D-2        0.00002   0.00001   0.00003   0.00002   0.00001
 188       11D 0        0.00004  -0.00001   0.00004   0.00000   0.00009
 189       11D+1        0.00203   0.00135   0.00095   0.00070   0.00048
 190       11D-1       -0.00136   0.00201  -0.00067   0.00100  -0.00032
 191       11D+2       -0.00003   0.00004  -0.00014   0.00021  -0.00009
 192       11D-2        0.00005   0.00003   0.00020   0.00015   0.00014
 193       12D 0        0.00007  -0.00001   0.00011   0.00000   0.00040
 194       12D+1        0.00487   0.00331  -0.00299  -0.00205   0.00027
 195       12D-1       -0.00327   0.00492   0.00211  -0.00291  -0.00018
 196       12D+2       -0.00001   0.00002   0.00016  -0.00023   0.00020
 197       12D-2        0.00003   0.00002  -0.00023  -0.00016  -0.00031
 198       13F 0        0.00000   0.00000   0.00000   0.00000   0.00001
 199       13F+1        0.00019   0.00012   0.00020   0.00014   0.00005
 200       13F-1       -0.00013   0.00018  -0.00014   0.00021  -0.00003
 201       13F+2       -0.00003   0.00005  -0.00006   0.00009  -0.00003
 202       13F-2        0.00005   0.00003   0.00009   0.00006   0.00005
 203       13F+3        0.00000   0.00000   0.00000   0.00000   0.00000
 204       13F-3        0.00000   0.00000   0.00000   0.00000   0.00000
 205       14F 0        0.00001   0.00000   0.00002   0.00000   0.00008
 206       14F+1        0.00120   0.00081  -0.00073  -0.00050   0.00001
 207       14F-1       -0.00080   0.00121   0.00052  -0.00071  -0.00001
 208       14F+2        0.00007  -0.00011   0.00013  -0.00020   0.00009
 209       14F-2       -0.00011  -0.00007  -0.00019  -0.00014  -0.00013
 210       14F+3        0.00000   0.00000   0.00000   0.00000   0.00000
 211       14F-3        0.00000   0.00000   0.00000   0.00000   0.00000
                          16        17        18        19        20
     Eigenvalues --     1.94911   1.94882   1.93538   0.06016   0.02493
   1 1   C  1S         -0.00015   0.05316  -0.01576  -0.02407   0.00017
   2        2S          0.00043  -0.15134   0.05084   0.06693  -0.00061
   3        3S          0.00010  -0.03575   0.01675   0.02429  -0.00030
   4        4S          0.00069  -0.29184   0.08714  -0.22305   0.00082
   5        5S          0.00006  -0.05763   0.03920  -0.02946   0.00020
   6        6PX         0.03759  -0.00283   0.00017   0.00004   0.06603
   7        6PY         0.05660   0.00219  -0.00020   0.00014   0.13949
   8        6PZ         0.00012  -0.04565  -0.12868   0.27924  -0.00009
   9        7PX         0.05221  -0.00401   0.00038  -0.00016   0.12260
  10        7PY         0.07864   0.00310  -0.00038   0.00039   0.25871
  11        7PZ         0.00018  -0.06473  -0.18049   0.44314  -0.00012
  12        8PX         0.04030  -0.00319   0.00049   0.00003   0.05607
  13        8PY         0.06058   0.00228  -0.00038  -0.00005   0.11897
  14        8PZ         0.00019  -0.06427  -0.07672   0.20212  -0.00020
  15        9PX         0.00680  -0.00049   0.00007   0.00005   0.01235
  16        9PY         0.01022   0.00032  -0.00002  -0.00001   0.02675
  17        9PZ        -0.00001  -0.00123  -0.00168  -0.00004  -0.00001
  18       10D 0       -0.00003   0.00934  -0.01105  -0.00886  -0.00003
  19       10D+1       -0.00206   0.00013   0.00000  -0.00008   0.01079
  20       10D-1       -0.00311  -0.00009  -0.00002   0.00004   0.02314
  21       10D+2        0.00418   0.00018  -0.00003   0.00002   0.00348
  22       10D-2        0.00277  -0.00018   0.00000  -0.00003   0.00155
  23       11D 0       -0.00013   0.04972  -0.04570   0.06675  -0.00021
  24       11D+1       -0.00854   0.00057  -0.00004   0.00005   0.02524
  25       11D-1       -0.01288  -0.00042  -0.00002   0.00007   0.05433
  26       11D+2        0.01425   0.00076  -0.00018   0.00027   0.06341
  27       11D-2        0.00941  -0.00073   0.00007  -0.00003   0.02986
  28       12D 0       -0.00013   0.02814  -0.00375  -0.01713  -0.00012
  29       12D+1        0.00065  -0.00002   0.00003  -0.00003   0.00814
  30       12D-1        0.00100   0.00010  -0.00013   0.00011   0.01712
  31       12D+2        0.00844   0.00062  -0.00017   0.00030   0.01293
  32       12D-2        0.00563  -0.00047   0.00006   0.00010   0.00644
  33       13F 0        0.00001  -0.00207  -0.00329  -0.00584  -0.00001
  34       13F+1       -0.00123   0.00008  -0.00001   0.00000  -0.00408
  35       13F-1       -0.00186  -0.00006   0.00000  -0.00001  -0.00866
  36       13F+2       -0.00027  -0.00001   0.00001  -0.00005   0.00285
  37       13F-2       -0.00018   0.00003  -0.00001   0.00000   0.00132
  38       13F+3       -0.00001  -0.00002   0.00001   0.00000   0.00000
  39       13F-3        0.00001  -0.00304   0.00113  -0.00050  -0.00001
  40       14F 0        0.00003  -0.00549  -0.00087   0.01159  -0.00006
  41       14F+1       -0.00401   0.00024  -0.00002   0.00008  -0.00110
  42       14F-1       -0.00606  -0.00016   0.00001  -0.00004  -0.00228
  43       14F+2       -0.00272  -0.00014   0.00002   0.00007  -0.00198
  44       14F-2       -0.00180   0.00013  -0.00002   0.00005  -0.00099
  45       14F+3        0.00001  -0.00008   0.00005  -0.00019  -0.00003
  46       14F-3        0.00003  -0.01499   0.00919  -0.03782   0.00010
  47 2   H  1S         -0.03887  -0.03527   0.02897  -0.00686   0.03672
  48        2S         -0.03831  -0.00457   0.02280   0.08050   0.23309
  49        3S          0.00449   0.02240   0.02001   0.06898   0.14806
  50        4S          0.00093   0.00011   0.00194   0.00725   0.06531
  51        5PX         0.00059  -0.00005   0.00001   0.00000   0.00121
  52        5PY        -0.00299  -0.00226   0.00249  -0.00201  -0.00792
  53        5PZ         0.00016  -0.00267  -0.00321   0.01429  -0.01105
  54        6PX         0.00208  -0.00023   0.00006  -0.00012   0.00326
  55        6PY         0.00466   0.00575  -0.00162   0.00995   0.05326
  56        6PZ        -0.00097  -0.00110  -0.01028   0.02828  -0.00524
  57        7PX         0.00159  -0.00016   0.00005   0.00006  -0.00055
  58        7PY         0.00808   0.01140  -0.00175   0.01265   0.04567
  59        7PZ         0.00243   0.00817   0.00311  -0.01398   0.00479
  60        8D 0        0.00034   0.00016  -0.00084   0.00060   0.00232
  61        8D+1       -0.00002   0.00000   0.00000   0.00000   0.00077
  62        8D-1       -0.00024  -0.00022  -0.00171   0.00673  -0.00362
  63        8D+2        0.00043   0.00054  -0.00060   0.00186   0.00234
  64        8D-2        0.00033  -0.00003   0.00001  -0.00001   0.00091
  65        9D 0       -0.00012   0.00082  -0.00283   0.00601  -0.00300
  66        9D+1       -0.00065   0.00003   0.00000  -0.00001   0.00185
  67        9D-1       -0.00039   0.00199  -0.00055  -0.00586   0.01400
  68        9D+2       -0.00089   0.00104   0.00037  -0.00116  -0.00852
  69        9D-2        0.00063  -0.00006   0.00002  -0.00001   0.00052
  70 3   H  1S         -0.00272  -0.03128   0.02869  -0.00683  -0.00285
  71        2S         -0.00266  -0.00038   0.02231   0.08024  -0.02062
  72        3S          0.00042   0.02206   0.02031   0.06985  -0.01361
  73        4S          0.00008   0.00013   0.00190   0.00722  -0.00655
  74        5PX         0.00037  -0.00172   0.00217  -0.00182   0.00214
  75        5PY         0.00104   0.00101  -0.00127   0.00108   0.00208
  76        5PZ         0.00002  -0.00271  -0.00328   0.01459   0.00113
  77        6PX         0.00220   0.00428  -0.00116   0.00772  -0.00016
  78        6PY         0.00309  -0.00249   0.00070  -0.00469   0.00900
  79        6PZ        -0.00008  -0.00085  -0.01039   0.02806   0.00055
  80        7PX         0.00191   0.00916  -0.00130   0.01122  -0.00464
  81        7PY         0.00217  -0.00515   0.00066  -0.00634   0.00065
  82        7PZ         0.00014   0.00803   0.00334  -0.01456  -0.00031
  83        8D 0        0.00002   0.00013  -0.00085   0.00065  -0.00023
  84        8D+1       -0.00003  -0.00016  -0.00149   0.00584   0.00123
  85        8D-1       -0.00002   0.00009   0.00087  -0.00343   0.00140
  86        8D+2        0.00052  -0.00026   0.00030  -0.00097   0.00200
  87        8D-2        0.00032   0.00046  -0.00053   0.00171   0.00083
  88        9D 0        0.00001   0.00080  -0.00286   0.00612   0.00024
  89        9D+1       -0.00063   0.00175  -0.00044  -0.00532   0.00101
  90        9D-1       -0.00101  -0.00106   0.00026   0.00315   0.00448
  91        9D+2        0.00100  -0.00056  -0.00017   0.00054   0.00066
  92        9D-2        0.00049   0.00104   0.00027  -0.00095   0.00119
  93 4   H  1S          0.04197  -0.03458   0.02885  -0.00683  -0.03321
  94        2S          0.04128  -0.00399   0.02272   0.08024  -0.21202
  95        3S         -0.00498   0.02208   0.02009   0.06856  -0.13507
  96        4S         -0.00099   0.00020   0.00188   0.00718  -0.05885
  97        5PX        -0.00303   0.00188  -0.00215   0.00174  -0.00700
  98        5PY        -0.00121   0.00115  -0.00125   0.00102  -0.00224
  99        5PZ        -0.00015  -0.00268  -0.00321   0.01429   0.01000
 100        6PX         0.00350  -0.00498   0.00137  -0.00852   0.03987
 101        6PY         0.00396  -0.00260   0.00075  -0.00495   0.02789
 102        6PZ         0.00105  -0.00103  -0.01028   0.02816   0.00462
 103        7PX         0.00695  -0.00990   0.00155  -0.01110   0.03655
 104        7PY         0.00546  -0.00533   0.00074  -0.00627   0.01964
 105        7PZ        -0.00267   0.00809   0.00321  -0.01407  -0.00448
 106        8D 0       -0.00036   0.00015  -0.00085   0.00060  -0.00211
 107        8D+1       -0.00022   0.00018   0.00148  -0.00582  -0.00334
 108        8D-1       -0.00014   0.00010   0.00085  -0.00337  -0.00075
 109        8D+2        0.00047  -0.00024   0.00030  -0.00092   0.00208
 110        8D-2        0.00027  -0.00048   0.00053  -0.00162   0.00125
 111        9D 0        0.00014   0.00081  -0.00282   0.00598   0.00270
 112        9D+1       -0.00008  -0.00171   0.00047   0.00507   0.00969
 113        9D-1       -0.00066  -0.00106   0.00028   0.00298   0.00855
 114        9D+2       -0.00004  -0.00047  -0.00020   0.00057  -0.00331
 115        9D-2       -0.00108  -0.00097  -0.00029   0.00097  -0.00705
 116 5   Cl 1S         -0.00003   0.01019   0.00051  -0.01679   0.00000
 117        2S          0.00012  -0.03889  -0.00172   0.05629  -0.00001
 118        3S         -0.00026   0.08036   0.01135  -0.15673   0.00003
 119        4S         -0.00004   0.01240   0.00454  -0.03986   0.00000
 120        5S         -0.00018   0.06890   0.01229  -0.04586   0.00011
 121        6S         -0.00003   0.02041  -0.01255   0.01605   0.00003
 122        7PX         0.12351  -0.00710   0.00005  -0.00004   0.00892
 123        7PY         0.18639   0.00558  -0.00013  -0.00005   0.01906
 124        7PZ        -0.00018   0.02659  -0.21014  -0.16342   0.00006
 125        8PX        -0.28256   0.01625  -0.00012   0.00009  -0.01389
 126        8PY        -0.42640  -0.01276   0.00030   0.00012  -0.02970
 127        8PZ         0.00041  -0.06211   0.46468   0.36066  -0.00017
 128        9PX        -0.13650   0.00785  -0.00007   0.00005  -0.01482
 129        9PY        -0.20598  -0.00617   0.00015   0.00006  -0.03168
 130        9PZ         0.00020  -0.03097   0.21831   0.20651  -0.00009
 131       10PX        -0.20310   0.01175  -0.00012  -0.00001   0.00707
 132       10PY        -0.30649  -0.00925   0.00026  -0.00001   0.01519
 133       10PZ         0.00036  -0.07210   0.31777   0.02913   0.00003
 134       11PX        -0.03433   0.00201  -0.00005   0.00000   0.00251
 135       11PY        -0.05179  -0.00159   0.00005   0.00001   0.00534
 136       11PZ         0.00009  -0.02396   0.04617   0.00721   0.00004
 137       12D 0        0.00001  -0.00472  -0.01241   0.06752  -0.00012
 138       12D+1        0.00012   0.00002  -0.00002   0.00003  -0.02453
 139       12D-1        0.00019  -0.00002   0.00001   0.00004  -0.05250
 140       12D+2        0.00021   0.00001   0.00000   0.00000   0.00093
 141       12D-2        0.00014  -0.00001   0.00000   0.00000   0.00035
 142       13D 0        0.00002  -0.00751  -0.01944   0.09797  -0.00016
 143       13D+1        0.00038   0.00002  -0.00004   0.00007  -0.03662
 144       13D-1        0.00057  -0.00002   0.00001   0.00004  -0.07838
 145       13D+2        0.00047   0.00002   0.00000  -0.00001   0.00145
 146       13D-2        0.00031  -0.00002   0.00000   0.00000   0.00054
 147       14D 0       -0.00001   0.00154  -0.01323   0.03016  -0.00002
 148       14D+1        0.00185  -0.00011  -0.00002   0.00003  -0.00395
 149       14D-1        0.00280   0.00009  -0.00001   0.00003  -0.00854
 150       14D+2        0.00006   0.00000   0.00000  -0.00002   0.00031
 151       14D-2        0.00004   0.00000   0.00001   0.00000   0.00012
 152       15F 0        0.00000   0.00098   0.00459  -0.00358   0.00000
 153       15F+1       -0.00078   0.00004   0.00001   0.00000   0.00211
 154       15F-1       -0.00117  -0.00003   0.00000   0.00000   0.00450
 155       15F+2       -0.00009   0.00000   0.00000   0.00000  -0.00020
 156       15F-2       -0.00006   0.00000   0.00000   0.00000  -0.00008
 157       15F+3        0.00000   0.00000   0.00000   0.00000   0.00000
 158       15F-3        0.00000  -0.00007   0.00004   0.00004   0.00000
 159       16F 0        0.00000   0.00136   0.00401   0.00163   0.00001
 160       16F+1       -0.00099   0.00005   0.00001  -0.00002   0.00010
[...]
  79        6PZ        -0.32907   0.00516  -0.04603  -0.16416  -0.08035
  80        7PX         0.95520  -5.95823  -7.96322  -1.73218  -1.48593
  81        7PY        -0.93366  -8.73673   5.58038   0.95585   4.48858
  82        7PZ        -1.39066  -0.22504  -3.39995   0.05289  -0.38882
  83        8D 0       -0.03854   0.00092   0.01560   0.02590   0.00969
  84        8D+1        0.00768  -0.02307  -0.02222   0.00735   0.00302
  85        8D-1       -0.00547  -0.03543   0.01667  -0.00468  -0.00759
  86        8D+2        0.06495   0.10264  -0.01664   0.02229  -0.03195
  87        8D-2       -0.11059   0.06122   0.01068  -0.04005   0.00580
  88        9D 0       -0.48953   0.03748   0.48180  -0.15416   0.12235
  89        9D+1       -0.20209   0.19082  -0.19281  -0.02834  -0.06717
  90        9D-1        0.12804   0.34710   0.07488   0.01862   0.13518
  91        9D+2       -0.16154  -1.63180  -0.56115  -0.36002   0.37487
  92        9D-2        0.17811  -0.80587   1.26726   0.61200   0.36631
  93 4   H  1S         -0.03450  -0.00813  -0.00661  -0.00881  -0.02694
  94        2S          0.20394   3.11304   1.62274  -0.53176   2.21907
  95        3S          7.47057  25.45460  12.42822  -3.29375  25.98004
  96        4S          1.51625  -1.77804  -0.79901  -1.97664  11.18298
  97        5PX        -0.02864   0.06585   0.09003  -0.08180   0.10220
  98        5PY        -0.01120   0.08804  -0.06050  -0.04670   0.05618
  99        5PZ         0.05974   0.00782   0.00622   0.03053  -0.01035
 100        6PX        -0.54374  -1.59056  -1.62234   0.61460  -1.15629
 101        6PY        -0.37479  -1.63256   0.61864   0.34823  -0.63790
 102        6PZ        -0.33293   0.03781   0.00653  -0.16145   0.16584
 103        7PX        -0.89945  -5.44031  -8.40110   1.77682  -6.53399
 104        7PY        -1.00770  -8.28252   6.21430   0.99053  -3.56279
 105        7PZ        -1.48366   3.02900   1.39964   0.03126   0.83016
 106        8D 0       -0.03612  -0.00946  -0.00563   0.02555  -0.01871
 107        8D+1       -0.00978  -0.01050  -0.02924  -0.00822   0.01338
 108        8D-1       -0.00646  -0.02739   0.02734  -0.00512   0.00731
 109        8D+2        0.06428   0.04687  -0.09104   0.02403   0.01901
 110        8D-2        0.10666  -0.02166   0.06121   0.04143   0.03643
 111        9D 0       -0.50055  -0.44932  -0.21475  -0.14813  -0.26764
 112        9D+1        0.21470  -0.24661   0.10601   0.03474  -0.23900
 113        9D-1        0.13500   0.05251  -0.34156   0.02465  -0.13287
 114        9D+2       -0.16442  -0.04900   1.74314  -0.36535   0.16210
 115        9D-2       -0.16112   1.46745  -0.32689  -0.61515   0.22140
 116 5   Cl 1S          0.02026  -0.00039   0.00037   0.01183   0.00009
 117        2S          0.28014  -0.00527   0.00494   0.16461   0.00144
 118        3S          0.78152  -0.01508   0.01414   0.46244   0.00375
 119        4S         -0.04152   0.00026  -0.00009  -0.01492  -0.00051
 120        5S         -4.34725   0.08949  -0.07835  -3.02966  -0.02157
 121        6S         -9.84290   0.21501  -0.23877 -13.29365  -0.05516
 122        7PX        -0.00008   0.00046   0.00077  -0.00010   0.00254
 123        7PY         0.00000   0.00066  -0.00054  -0.00004   0.00155
 124        7PZ        -0.00466   0.00024  -0.00041  -0.02282  -0.00011
 125        8PX        -0.00107   0.01050   0.01602  -0.00168   0.05036
 126        8PY        -0.00001   0.01564  -0.01146  -0.00066   0.03116
 127        8PZ        -0.06611   0.00327  -0.00514  -0.31935  -0.00140
 128        9PX         0.00036  -0.00224  -0.00379   0.00036  -0.00857
 129        9PY        -0.00006  -0.00321   0.00262   0.00014  -0.00518
 130        9PZ         0.00214  -0.00057   0.00122   0.07985   0.00039
 131       10PX        -0.00576  -0.04265  -0.05134   0.00993  -0.35701
 132       10PY         0.01523  -0.06826   0.04040   0.00556  -0.22342
 133       10PZ         5.92471  -0.12979   0.13395   5.10281   0.02652
 134       11PX         0.00462  -0.65391  -0.94210   0.00669   0.20757
 135       11PY        -0.02642  -0.95715   0.65927  -0.00352   0.13697
 136       11PZ         0.80201  -0.01669   0.02412   3.37397   0.01481
 137       12D 0        0.06815  -0.00147   0.00131   0.00176  -0.00001
 138       12D+1       -0.00058   0.01739   0.02548  -0.00028   0.00321
 139       12D-1        0.00116   0.02539  -0.01779   0.00015   0.00174
 140       12D+2       -0.00115  -0.00545   0.00408  -0.00011  -0.00663
 141       12D-2        0.00060  -0.00381  -0.00611  -0.00003  -0.01035
 142       13D 0       -0.38841   0.00800  -0.00741  -0.07065  -0.00028
 143       13D+1        0.00267  -0.06368  -0.09429   0.00117  -0.02218
 144       13D-1       -0.00467  -0.09286   0.06575  -0.00032  -0.01278
 145       13D+2        0.00328   0.01186  -0.00912   0.00037   0.02389
 146       13D-2       -0.00180   0.00834   0.01369  -0.00001   0.03723
 147       14D 0       -1.39988   0.03191  -0.03498  -1.25115  -0.00634
 148       14D+1       -0.00149   0.17485   0.24623  -0.00880   0.27480
 149       14D-1        0.00163   0.25996  -0.17543  -0.00174   0.17133
 150       14D+2       -0.00201  -0.05586   0.03498  -0.00210  -0.10852
 151       14D-2        0.00024  -0.03671  -0.04895   0.00293  -0.16893
 152       15F 0       -0.04315   0.00104  -0.00141   0.00116  -0.00001
 153       15F+1       -0.00002   0.00228   0.00328  -0.00034   0.01561
 154       15F-1       -0.00006   0.00342  -0.00237  -0.00025   0.00996
 155       15F+2        0.00000  -0.00876   0.00546  -0.00040  -0.00542
 156       15F-2       -0.00023  -0.00587  -0.00780   0.00055  -0.00851
 157       15F+3       -0.00004   0.00000  -0.00012   0.00012  -0.00003
 158       15F-3       -0.00933   0.00044   0.00012   0.02300   0.00012
 159       16F 0        0.23392  -0.00553   0.00605   0.09000   0.00032
 160       16F+1       -0.00022  -0.00810  -0.00987   0.00151  -0.05295
 161       16F-1        0.00076  -0.01274   0.00757   0.00069  -0.03386
 162       16F+2        0.00037   0.04027  -0.02563   0.00117   0.02247
 163       16F-2        0.00066   0.02697   0.03664  -0.00170   0.03510
 164       16F+3        0.00007  -0.00001   0.00021  -0.00022   0.00007
 165       16F-3        0.01928  -0.00098  -0.00019  -0.04302  -0.00024
 166 6   F  1S          0.04003  -0.00069   0.00033  -0.02247   0.00019
 167        2S          0.14071  -0.00228   0.00083  -0.08530   0.00082
 168        3S         -0.07187   0.00139  -0.00081   0.03644  -0.00015
 169        4S         -0.38018   0.00564  -0.00234  -0.02262  -0.00469
 170        5S         -0.03450  -0.01609  -0.00866  -5.93024  -0.02491
 171        6PX         0.00004  -0.00404  -0.00594   0.00002  -0.00148
 172        6PY        -0.00022  -0.00593   0.00416   0.00000  -0.00090
 173        6PZ         0.00546  -0.00021   0.00025   0.00223   0.00003
 174        7PX        -0.00003   0.02094   0.03041  -0.00005   0.00537
 175        7PY         0.00091   0.03084  -0.02140  -0.00001   0.00326
 176        7PZ        -0.06429   0.00185  -0.00188   0.00254  -0.00009
 177        8PX        -0.00154  -0.14763  -0.21113  -0.00008  -0.00171
 178        8PY        -0.00451  -0.21775   0.14881  -0.00066  -0.00079
 179        8PZ         0.63319  -0.01770   0.01410  -0.24616  -0.00244
 180        9PX        -0.00670  -0.48031  -0.68780   0.00150   0.19268
 181        9PY        -0.00874  -0.70445   0.48210  -0.00257   0.12450
 182        9PZ        -0.85090   0.01815  -0.02355  -2.48998  -0.01045
 183       10D 0        0.01146  -0.00012   0.00018  -0.00796   0.00001
 184       10D+1       -0.00005  -0.00836  -0.01204   0.00009  -0.00191
 185       10D-1       -0.00009  -0.01230   0.00847   0.00009  -0.00116
 186       10D+2        0.00028   0.00388  -0.00280   0.00002  -0.00147
 187       10D-2       -0.00017   0.00265   0.00409   0.00000  -0.00240
 188       11D 0       -0.04234   0.00051  -0.00082   0.01567  -0.00008
 189       11D+1        0.00023   0.02686   0.03867  -0.00026   0.00339
 190       11D-1        0.00024   0.03955  -0.02722  -0.00027   0.00199
 191       11D+2       -0.00116  -0.01294   0.00943  -0.00011   0.00523
 192       11D-2        0.00065  -0.00891  -0.01388  -0.00006   0.00846
 193       12D 0        0.41898  -0.00862   0.00869  -0.01074   0.00001
 194       12D+1       -0.00225  -0.07726  -0.10869   0.00023   0.02648
 195       12D-1        0.00043  -0.11526   0.07752   0.00039   0.01657
 196       12D+2        0.00459   0.04813  -0.03533   0.00035  -0.00983
 197       12D-2       -0.00258   0.03357   0.05265   0.00010  -0.01576
 198       13F 0       -0.02743   0.00061  -0.00072  -0.00762  -0.00004
 199       13F+1       -0.00005  -0.01086  -0.01558   0.00015  -0.00682
 200       13F-1       -0.00030  -0.01577   0.01081  -0.00011  -0.00427
 201       13F+2       -0.00029  -0.00722   0.00510   0.00012  -0.00147
 202       13F-2        0.00015  -0.00501  -0.00757   0.00003  -0.00228
 203       13F+3        0.00006  -0.00004   0.00024  -0.00001  -0.00001
 204       13F-3        0.01248  -0.00007   0.00006  -0.00147  -0.00013
 205       14F 0        0.06860  -0.00146   0.00174   0.01192   0.00007
 206       14F+1       -0.00018   0.02342   0.03413  -0.00030   0.01516
 207       14F-1        0.00101   0.03375  -0.02351   0.00020   0.00939
 208       14F+2        0.00079   0.02032  -0.01424  -0.00015   0.00349
 209       14F-2       -0.00039   0.01412   0.02116  -0.00009   0.00551
 210       14F+3       -0.00008   0.00006  -0.00040   0.00002   0.00004
 211       14F-3       -0.01673   0.00007  -0.00002   0.00278   0.00024
                         211
     Eigenvalues --     0.00000
   1 1   C  1S         -0.00375
   2        2S         -0.02250
   3        3S         -0.00262
   4        4S         -0.17024
   5        5S         -0.02107
   6        6PX        -0.00439
   7        6PY         0.00672
   8        6PZ         0.00005
   9        7PX         0.87598
  10        7PY        -1.33328
  11        7PZ         0.00471
  12        8PX         9.41419
  13        8PY       -14.74672
  14        8PZ         0.02958
  15        9PX         4.21810
  16        9PY        -6.69314
  17        9PZ         0.00731
  18       10D 0        0.00082
  19       10D+1       -0.00115
  20       10D-1        0.00170
  21       10D+2       -0.01889
  22       10D-2        0.01275
  23       11D 0        0.00527
  24       11D+1       -0.11894
  25       11D-1        0.17914
  26       11D+2       -0.36632
  27       11D-2        0.26418
  28       12D 0        0.01783
  29       12D+1       -0.68617
  30       12D-1        1.08790
  31       12D+2        0.48257
  32       12D-2       -0.25124
  33       13F 0       -0.00028
  34       13F+1        0.01958
  35       13F-1       -0.03188
  36       13F+2       -0.00789
  37       13F-2        0.00497
  38       13F+3        0.00024
  39       13F-3       -0.00131
  40       14F 0       -0.00252
  41       14F+1       -0.21785
  42       14F-1        0.34413
  43       14F+2        0.06750
  44       14F-2       -0.04698
  45       14F+3       -0.00157
  46       14F-3        0.00645
  47 2   H  1S          0.02254
  48        2S         -1.90960
  49        3S        -22.00248
  50        4S         -9.47454
  51        5PX         0.02707
  52        5PY         0.09953
  53        5PZ         0.00925
  54        6PX        -0.26647
  55        6PY        -1.13115
  56        6PZ        -0.14512
  57        7PX        -1.82827
  58        7PY        -6.32104
  59        7PZ        -0.69070
  60        8D 0        0.01587
  61        8D+1        0.00310
  62        8D-1        0.01252
  63        8D+2        0.03456
  64        8D-2        0.01510
  65        9D 0        0.22493
  66        9D+1       -0.04960
  67        9D-1       -0.23179
  68        9D+2        0.23907
  69        9D-2       -0.29535
  70 3   H  1S         -0.02669
  71        2S          2.11966
  72        3S         23.52353
  73        4S          9.98032
  74        5PX        -0.10007
  75        5PY         0.03039
  76        5PZ        -0.00956
  77        6PX         1.17452
  78        6PY        -0.40472
  79        6PZ         0.15362
  80        7PX         6.60393
  81        7PY        -1.93388
  82        7PZ         0.73419
  83        8D 0       -0.01843
  84        8D+1       -0.01178
  85        8D-1        0.00371
  86        8D+2        0.00863
  87        8D-2       -0.04211
  88        9D 0       -0.24035
  89        9D+1        0.23085
  90        9D-1       -0.08370
  91        9D+2        0.34885
  92        9D-2       -0.07991
  93 4   H  1S          0.00086
  94        2S         -0.12442
  95        3S         -1.35404
  96        4S         -0.50030
  97        5PX         0.02018
  98        5PY        -0.04680
  99        5PZ         0.00062
 100        6PX        -0.18863
 101        6PY         0.47470
 102        6PZ        -0.00989
 103        7PX        -1.37497
 104        7PY         3.18920
 105        7PZ        -0.05198
 106        8D 0        0.00074
 107        8D+1        0.00239
 108        8D-1       -0.00516
 109        8D+2       -0.02529
 110        8D-2        0.01251
 111        9D 0        0.01218
 112        9D+1       -0.03427
 113        9D-1        0.08678
 114        9D+2        0.47239
 115        9D-2       -0.29826
 116 5   Cl 1S          0.00005
 117        2S          0.00087
 118        3S          0.00211
 119        4S         -0.00062
 120        5S         -0.01652
 121        6S         -0.00630
 122        7PX        -0.00163
 123        7PY         0.00249
 124        7PZ         0.00006
 125        8PX        -0.03191
 126        8PY         0.04947
 127        8PZ         0.00090
 128        9PX         0.00552
 129        9PY        -0.00838
 130        9PZ        -0.00022
 131       10PX         0.22551
 132       10PY        -0.35355
 133       10PZ         0.00537
 134       11PX        -0.12987
 135       11PY         0.21457
 136       11PZ        -0.00196
 137       12D 0       -0.00002
 138       12D+1       -0.00215
 139       12D-1        0.00295
 140       12D+2       -0.01021
 141       12D-2        0.00651
 142       13D 0        0.00020
 143       13D+1        0.01453
 144       13D-1       -0.02105
 145       13D+2        0.03686
 146       13D-2       -0.02348
 147       14D 0        0.00062
 148       14D+1       -0.17291
 149       14D-1        0.27000
 150       14D+2       -0.16861
 151       14D-2        0.10723
 152       15F 0        0.00009
 153       15F+1       -0.00962
 154       15F-1        0.01538
 155       15F+2       -0.00860
 156       15F-2        0.00551
 157       15F+3        0.00014
 158       15F-3       -0.00010
 159       16F 0       -0.00054
 160       16F+1        0.03250
 161       16F-1       -0.05205
 162       16F+2        0.03518
 163       16F-2       -0.02244
 164       16F+3       -0.00029
 165       16F-3        0.00027
 166 6   F  1S          0.00003
 167        2S          0.00011
 168        3S         -0.00004
 169        4S         -0.00143
 170        5S         -0.01396
 171        6PX         0.00095
 172        6PY        -0.00145
 173        6PZ        -0.00005
 174        7PX        -0.00344
 175        7PY         0.00522
 176        7PZ         0.00019
 177        8PX         0.00082
 178        8PY        -0.00085
 179        8PZ        -0.00030
 180        9PX        -0.12132
 181        9PY         0.19617
 182        9PZ        -0.00441
 183       10D 0       -0.00004
 184       10D+1        0.00118
 185       10D-1       -0.00179
 186       10D+2       -0.00235
 187       10D-2        0.00156
 188       11D 0        0.00007
 189       11D+1       -0.00207
 190       11D-1        0.00304
 191       11D+2        0.00834
 192       11D-2       -0.00550
 193       12D 0        0.00053
 194       12D+1       -0.01758
 195       12D-1        0.02755
 196       12D+2       -0.01572
 197       12D-2        0.01028
 198       13F 0       -0.00003
 199       13F+1        0.00434
 200       13F-1       -0.00681
 201       13F+2       -0.00216
 202       13F-2        0.00137
 203       13F+3        0.00003
 204       13F-3        0.00002
 205       14F 0        0.00007
 206       14F+1       -0.00977
 207       14F-1        0.01517
 208       14F+2        0.00527
 209       14F-2       -0.00340
 210       14F+3       -0.00003
 211       14F-3       -0.00005
          Condensed to atoms (all electrons):
              1          2          3          4          5          6
     1  C    7.023561  -0.009613  -0.015824  -0.009578  -0.050806  -0.099880
     2  H   -0.009613   0.547431   0.020250   0.019123  -0.018576   0.004420
     3  H   -0.015824   0.020250   0.547649   0.021129  -0.018658   0.004669
     4  H   -0.009578   0.019123   0.021129   0.547537  -0.018485   0.004299
     5  Cl  -0.050806  -0.018576  -0.018658  -0.018485  17.708763   0.026371
     6  F   -0.099880   0.004420   0.004669   0.004299   0.026371   9.907377
 Mulliken atomic charges:
              1
     1  C   -0.837860
     2  H    0.436965
     3  H    0.440785
     4  H    0.435976
     5  Cl  -0.628609
     6  F   -0.847257
 Sum of Mulliken atomic charges =  -1.00000
 Mulliken charges with hydrogens summed into heavy atoms:
              1
     1  C    0.475866
     5  Cl  -0.628609
     6  F   -0.847257
 Sum of Mulliken charges with hydrogens summed into heavy atoms =  -1.00000
 Electronic spatial extent (au):  <R**2>=            490.2357
 Charge=             -1.0000 electrons
 Dipole moment (field-independent basis, Debye):
    X=              0.0012    Y=              0.0016    Z=              4.0680  Tot=              4.0680
 Quadrupole moment (field-independent basis, Debye-Ang):
   XX=            -28.1894   YY=            -28.1682   ZZ=            -62.8083
   XY=              0.0009   XZ=             -0.0056   YZ=             -0.0160
 Traceless Quadrupole moment (field-independent basis, Debye-Ang):
   XX=             11.5325   YY=             11.5538   ZZ=            -23.0863
   XY=              0.0009   XZ=             -0.0056   YZ=             -0.0160
 Octapole moment (field-independent basis, Debye-Ang**2):
  XXX=             -0.0424  YYY=             -0.9632  ZZZ=             49.6824  XYY=             -0.0205
  XXY=              0.9325  XXZ=             -4.2283  XZZ=             -0.0124  YZZ=              0.0098
  YYZ=             -4.2417  XYZ=             -0.0015
 Hexadecapole moment (field-independent basis, Debye-Ang**3):
 XXXX=            -41.1938 YYYY=            -41.2322 ZZZZ=           -761.5532 XXXY=             -0.0054
 XXXZ=             -0.0374 YYYX=             -0.0237 YYYZ=              0.5045 ZZZX=             -0.0400
 ZZZY=             -0.1959 XXYY=            -13.7376 XXZZ=           -103.3625 YYZZ=           -103.3696
 XXYZ=             -0.6729 YYXZ=             -0.0082 ZZXY=             -0.0059
 N-N= 8.502037811990D+01 E-N=-1.604259858874D+03  KE= 5.992084224715D+02
 1\1\GINC-TRAPISTA\SP\RQCISD-FC\Aug-CC-pVTZ\C1H3Cl1F1(1-)\BRUNS\12-Aug-
 2021\0\\# QCISD aug-cc-pvtz nosymm density=current output=wfn\\title l
 ine\\-1,1\C,0,0.000175,0.000029,-0.497709\H,0,0.000019,-1.05257,-0.620
 726\H,0,-0.901312,0.526365,-0.621245\H,0,0.91175,0.526132,-0.62157\Cl,
 0,0.000555,0.000962,1.644718\F,0,-0.000186,-0.000921,-2.59346\\Version
 =EM64L-G09RevB.01\HF=-598.6170643\MP2=-599.2910785\MP3=-599.3097902\MP
 4D=-599.3246636\MP4DQ=-599.3102367\MP4SDQ=-599.3195928\QCISD=-599.3189
 736\RMSD=9.457e-09\Dipole=0.0014933,0.0010617,1.5880019\Quadrupole=8.5
 741651,8.589944,-17.1641091,0.0006549,-0.0041416,-0.0119072\PG=C01 [X(
 C1H3Cl1F1)]\\@

 Writing a WFN file to GAUSSIAN+XH_3.wfn.


 TERRY FORSTER, PORTLY ATLANTA BRAVES RELIEVER,
 ANNOUNCING THAT HE WAS GOING TO A FAT FARM:
 "A WAIST IS A TERRIBLE THING TO MIND."
 Job cpu time:  0 days 20 hours 41 minutes  3.6 seconds.
 File lengths (MBytes):  RWF=  29002 Int=      0 D2E=      0 Chk=      4 Scr=      1
 Normal termination of Gaussian 09 at Thu Aug 12 17:52:46 2021.
