 Entering Gaussian System, Link 0=/home/bruns/programas/chemistry/gaussian/g09/g09
 Input=GAUSSIAN+XH_2.com
 Output=GAUSSIAN+XH_2.log
 Initial command:
 /home/bruns/programas/chemistry/gaussian/g09/l1.exe /home/bruns/programas/chemistry/gaussian/work/Gau-40930.inp -scrdir=/home/bruns/programas/chemistry/gaussian/work/
 Entering Link 1 = /home/bruns/programas/chemistry/gaussian/g09/l1.exe PID=     40932.
  
 Copyright (c) 1988,1990,1992,1993,1995,1998,2003,2009,2010,
            Gaussian, Inc.  All Rights Reserved.
  
 This is part of the Gaussian(R) 09 program.  It is based on
 the Gaussian(R) 03 system (copyright 2003, Gaussian, Inc.),
 the Gaussian(R) 98 system (copyright 1998, Gaussian, Inc.),
 the Gaussian(R) 94 system (copyright 1995, Gaussian, Inc.),
 the Gaussian 92(TM) system (copyright 1992, Gaussian, Inc.),
 the Gaussian 90(TM) system (copyright 1990, Gaussian, Inc.),
 the Gaussian 88(TM) system (copyright 1988, Gaussian, Inc.),
 the Gaussian 86(TM) system (copyright 1986, Carnegie Mellon
 University), and the Gaussian 82(TM) system (copyright 1983,
 Carnegie Mellon University). Gaussian is a federally registered
 trademark of Gaussian, Inc.
  
 This software contains proprietary and confidential information,
 including trade secrets, belonging to Gaussian, Inc.
  
 This software is provided under written license and may be
 used, copied, transmitted, or stored only in accord with that
 written license.
  
 The following legend is applicable only to US Government
 contracts under FAR:
  
                    RESTRICTED RIGHTS LEGEND
  
 Use, reproduction and disclosure by the US Government is
 subject to restrictions as set forth in subparagraphs (a)
 and (c) of the Commercial Computer Software - Restricted
 Rights clause in FAR 52.227-19.
  
 Gaussian, Inc.
 340 Quinnipiac St., Bldg. 40, Wallingford CT 06492
  
  
 ---------------------------------------------------------------
 Warning -- This program may not be used in any manner that
 competes with the business of Gaussian, Inc. or will provide
 assistance to any competitor of Gaussian, Inc.  The licensee
 of this program is prohibited from giving any competitor of
 Gaussian, Inc. access to this program.  By using this program,
 the user acknowledges that Gaussian, Inc. is engaged in the
 business of creating and licensing software in the field of
 computational chemistry and represents and warrants to the
 licensee that it is not a competitor of Gaussian, Inc. and that
 it will not use this program in any manner prohibited above.
 ---------------------------------------------------------------
  

 Cite this work as:
 Gaussian 09, Revision B.01,
 M. J. Frisch, G. W. Trucks, H. B. Schlegel, G. E. Scuseria, 
 M. A. Robb, J. R. Cheeseman, G. Scalmani, V. Barone, B. Mennucci, 
 G. A. Petersson, H. Nakatsuji, M. Caricato, X. Li, H. P. Hratchian, 
 A. F. Izmaylov, J. Bloino, G. Zheng, J. L. Sonnenberg, M. Hada, 
 M. Ehara, K. Toyota, R. Fukuda, J. Hasegawa, M. Ishida, T. Nakajima, 
 Y. Honda, O. Kitao, H. Nakai, T. Vreven, J. A. Montgomery, Jr., 
 J. E. Peralta, F. Ogliaro, M. Bearpark, J. J. Heyd, E. Brothers, 
 K. N. Kudin, V. N. Staroverov, T. Keith, R. Kobayashi, J. Normand, 
 K. Raghavachari, A. Rendell, J. C. Burant, S. S. Iyengar, J. Tomasi, 
 M. Cossi, N. Rega, J. M. Millam, M. Klene, J. E. Knox, J. B. Cross, 
 V. Bakken, C. Adamo, J. Jaramillo, R. Gomperts, R. E. Stratmann, 
 O. Yazyev, A. J. Austin, R. Cammi, C. Pomelli, J. W. Ochterski, 
 R. L. Martin, K. Morokuma, V. G. Zakrzewski, G. A. Voth, 
 P. Salvador, J. J. Dannenberg, S. Dapprich, A. D. Daniels, 
 O. Farkas, J. B. Foresman, J. V. Ortiz, J. Cioslowski, 
 and D. J. Fox, Gaussian, Inc., Wallingford CT, 2010.
 
 ******************************************
 Gaussian 09:  EM64L-G09RevB.01 12-Aug-2010
                12-Aug-2021 
 ******************************************
 %nproc=8
 Will use up to    8 processors via shared memory.
 %mem=8GB
 -----------------------------------------------------
 # QCISD aug-cc-pvtz nosymm density=current output=wfn
 -----------------------------------------------------
 1/30=1,38=1/1;
 2/12=2,15=1,17=6,18=5,40=1/2;
 3/5=16,6=1,7=10,11=9,16=1,25=1,30=1,71=1/1,2,3;
 4//1;
 5/5=2,38=5/2;
 8/6=4,9=120000,10=1/1,4;
 9/5=8,15=1/13;
 11/28=-7,31=1,32=3,42=3/11;
 10/5=6,13=10,31=1/2;
 6/7=2,8=2,9=2,10=2,22=-1,31=1/1;
 99/5=1,6=1100,9=1/99;
 ----------
 title line
 ----------
 Symbolic Z-matrix:
 Charge = -1 Multiplicity = 1
 C                     0.00018   0.00003  -0.49771 
 H                     0.01002  -1.05257  -0.62073 
 H                    -0.91131   0.52637  -0.62125 
 H                     0.91175   0.52613  -0.62157 
 Cl                    0.00056   0.00096   1.64472 
 F                    -0.00019  -0.00092  -2.59346 
 
                          Input orientation:                          
 ---------------------------------------------------------------------
 Center     Atomic      Atomic             Coordinates (Angstroms)
 Number     Number       Type             X           Y           Z
 ---------------------------------------------------------------------
      1          6           0        0.000175    0.000029   -0.497709
      2          1           0        0.010019   -1.052570   -0.620726
      3          1           0       -0.911312    0.526365   -0.621245
      4          1           0        0.911750    0.526132   -0.621570
      5         17           0        0.000555    0.000962    1.644718
      6          9           0       -0.000186   -0.000921   -2.593460
 ---------------------------------------------------------------------
                    Distance matrix (angstroms):
                    1          2          3          4          5
     1  C    0.000000
     2  H    1.059809   0.000000
     3  H    1.059764   1.828083   0.000000
     4  H    1.059762   1.818081   1.823062   0.000000
     5  Cl   2.142427   2.498451   2.498427   2.498428   0.000000
     6  F    2.095751   2.235565   2.235579   2.235568   4.238178
                    6
     6  F    0.000000
 Symmetry turned off by external request.
 Stoichiometry    CH3ClF(1-)
 Framework group  C1[X(CH3ClF)]
 Deg. of freedom    12
 Full point group                 C1      NOp   1
 Rotational constants (GHZ):    150.8747256      2.2148324      2.2146265
 Standard basis: Aug-CC-pVTZ (5D, 7F)
 Integral buffers will be    131072 words long.
 Raffenetti 1 integral format.
 Two-electron integral symmetry is turned off.
   211 basis functions,   339 primitive gaussians,   244 cartesian basis functions
    18 alpha electrons       18 beta electrons
       nuclear repulsion energy        84.9842093739 Hartrees.
 NAtoms=    6 NActive=    6 NUniq=    6 SFac= 1.00D+00 NAtFMM=   50 NAOKFM=F Big=F
 One-electron integrals computed using PRISM.
 NBasis=   211 RedAO= T  NBF=   211
 NBsUse=   211 1.00D-06 NBFU=   211
 Harris functional with IExCor=  205 diagonalized for initial guess.
 ExpMin= 2.53D-02 ExpMax= 4.56D+05 ExpMxC= 1.44D+03 IAcc=3 IRadAn=         0 AccDes= 0.00D+00
 HarFok:  IExCor=  205 AccDes= 0.00D+00 IRadAn=         0 IDoV= 1
 ScaDFX=  1.000000  1.000000  1.000000  1.000000
 FoFCou: FMM=F IPFlag=           0 FMFlag=      100000 FMFlg1=           0
         NFxFlg=           0 DoJE=T BraDBF=F KetDBF=T FulRan=T
         Omega=  0.000000  0.000000  1.000000  0.000000  0.000000 ICntrl=     500 IOpCl=  0
         NMat0=    1 NMatS0=    1 NMatT0=    0 NMatD0=    1 NMtDS0=    0 NMtDT0=    0
         I1Cent=           4 NGrid=           0.
 Symmetry not used in FoFCou.
 Requested convergence on RMS density matrix=1.00D-08 within 128 cycles.
 Requested convergence on MAX density matrix=1.00D-06.
 Requested convergence on             energy=1.00D-06.
 No special actions if energy rises.
 Keep R1 ints in memory in canonical form, NReq=454274131.
 SCF Done:  E(RHF) =  -598.617114820     A.U. after   12 cycles
             Convg  =    0.9410D-08             -V/T =  2.0001
 ExpMin= 2.53D-02 ExpMax= 4.56D+05 ExpMxC= 1.44D+03 IAcc=3 IRadAn=         5 AccDes= 0.00D+00
 HarFok:  IExCor=  205 AccDes= 0.00D+00 IRadAn=         5 IDoV=-2
 ScaDFX=  1.000000  1.000000  1.000000  1.000000
 Range of M.O.s used for correlation:     8   211
 NBasis=   211 NAE=    18 NBE=    18 NFC=     7 NFV=     0
 NROrb=    204 NOA=    11 NOB=    11 NVA=   193 NVB=   193

 **** Warning!!: The largest alpha MO coefficient is  0.35222086D+02

 Semi-Direct transformation.
 ModeAB=           2 MOrb=            11 LenV=    1072528222
 LASXX=     44979418 LTotXX=    44979418 LenRXX=    44979418
 LTotAB=    45631872 MaxLAS=    67073160 LenRXY=    67073160
 NonZer=    89958836 LenScr=   135708672 LnRSAI=           0
 LnScr1=           0 LExtra=           0 Total=    247761250
 MaxDsk=          -1 SrtSym=           F ITran=            4
 JobTyp=0 Pass  1:  I=   1 to  11.
 (rs|ai) integrals will be sorted in core.
 Spin components of T(2) and E(2):
     alpha-alpha T2 =       0.2567373379D-01 E2=     -0.8208243644D-01
     alpha-beta  T2 =       0.1452569080D+00 E2=     -0.5099796299D+00
     beta-beta   T2 =       0.2567373379D-01 E2=     -0.8208243644D-01
 ANorm=    0.1093894134D+01
 E2 =    -0.6741445028D+00 EUMP2 =    -0.59929125932234D+03
 R2 and R3 integrals will be kept in memory, NReq=   900794930.
 Iterations=  50 Convergence= 0.100D-07
 Iteration Nr.   1
 **********************
 DD1Dir will call FoFMem   1 times, MxPair=       132
 NAB=    66 NAA=     0 NBB=     0.
 MP4(R+Q)=  0.14439009D-01
 E3=       -0.18700910D-01        EUMP3=      -0.59930996023D+03
 E4(DQ)=   -0.45151254D-03        UMP4(DQ)=   -0.59931041174D+03
 E4(SDQ)=  -0.98177647D-02        UMP4(SDQ)=  -0.59931977800D+03
 DE(Corr)= -0.67840640     E(Corr)=     -599.29552122    
 NORM(A)=   0.10996855D+01
 Iteration Nr.   2
 **********************
 DD1Dir will call FoFMem   1 times, MxPair=       132
 NAB=    66 NAA=     0 NBB=     0.
 DE(Corr)= -0.70060635     E(CORR)=     -599.31772117     Delta=-2.22D-02
 NORM(A)=   0.11070399D+01
 Iteration Nr.   3
 **********************
 DD1Dir will call FoFMem   1 times, MxPair=       132
 NAB=    66 NAA=     0 NBB=     0.
 DE(Corr)= -0.69820943     E(CORR)=     -599.31532425     Delta= 2.40D-03
 NORM(A)=   0.11110250D+01
 Iteration Nr.   4
 **********************
 DD1Dir will call FoFMem   1 times, MxPair=       132
 NAB=    66 NAA=     0 NBB=     0.
 DE(Corr)= -0.70126853     E(CORR)=     -599.31838335     Delta=-3.06D-03
 NORM(A)=   0.11131288D+01
 Iteration Nr.   5
 **********************
 DD1Dir will call FoFMem   1 times, MxPair=       132
 NAB=    66 NAA=     0 NBB=     0.
 DE(Corr)= -0.70186350     E(CORR)=     -599.31897832     Delta=-5.95D-04
 NORM(A)=   0.11141598D+01
 Iteration Nr.   6
 **********************
 DD1Dir will call FoFMem   1 times, MxPair=       132
 NAB=    66 NAA=     0 NBB=     0.
 DE(Corr)= -0.70201028     E(CORR)=     -599.31912510     Delta=-1.47D-04
 NORM(A)=   0.11144857D+01
 Iteration Nr.   7
 **********************
 DD1Dir will call FoFMem   1 times, MxPair=       132
 NAB=    66 NAA=     0 NBB=     0.
 DE(Corr)= -0.70204000     E(CORR)=     -599.31915482     Delta=-2.97D-05
 NORM(A)=   0.11145167D+01
 Iteration Nr.   8
 **********************
 DD1Dir will call FoFMem   1 times, MxPair=       132
 NAB=    66 NAA=     0 NBB=     0.
 DE(Corr)= -0.70205388     E(CORR)=     -599.31916870     Delta=-1.39D-05
 NORM(A)=   0.11145345D+01
 Iteration Nr.   9
 **********************
 DD1Dir will call FoFMem   1 times, MxPair=       132
 NAB=    66 NAA=     0 NBB=     0.
 DE(Corr)= -0.70203066     E(CORR)=     -599.31914548     Delta= 2.32D-05
 NORM(A)=   0.11145377D+01
 Iteration Nr.  10
 **********************
 DD1Dir will call FoFMem   1 times, MxPair=       132
 NAB=    66 NAA=     0 NBB=     0.
 DE(Corr)= -0.70204996     E(CORR)=     -599.31916478     Delta=-1.93D-05
 NORM(A)=   0.11145379D+01
 Iteration Nr.  11
 **********************
 DD1Dir will call FoFMem   1 times, MxPair=       132
 NAB=    66 NAA=     0 NBB=     0.
 DE(Corr)= -0.70204077     E(CORR)=     -599.31915559     Delta= 9.19D-06
 NORM(A)=   0.11145408D+01
 Iteration Nr.  12
 **********************
 DD1Dir will call FoFMem   1 times, MxPair=       132
 NAB=    66 NAA=     0 NBB=     0.
 DE(Corr)= -0.70204452     E(CORR)=     -599.31915934     Delta=-3.75D-06
 NORM(A)=   0.11145413D+01
 Iteration Nr.  13
 **********************
 DD1Dir will call FoFMem   1 times, MxPair=       132
 NAB=    66 NAA=     0 NBB=     0.
 DE(Corr)= -0.70204509     E(CORR)=     -599.31915991     Delta=-5.66D-07
 NORM(A)=   0.11145419D+01
 Iteration Nr.  14
 **********************
 DD1Dir will call FoFMem   1 times, MxPair=       132
 NAB=    66 NAA=     0 NBB=     0.
 DE(Corr)= -0.70204531     E(CORR)=     -599.31916013     Delta=-2.24D-07
 NORM(A)=   0.11145421D+01
 Iteration Nr.  15
 **********************
 DD1Dir will call FoFMem   1 times, MxPair=       132
 NAB=    66 NAA=     0 NBB=     0.
 DE(Corr)= -0.70204522     E(CORR)=     -599.31916004     Delta= 9.05D-08
 NORM(A)=   0.11145420D+01
 Iteration Nr.  16
 **********************
 DD1Dir will call FoFMem   1 times, MxPair=       132
 NAB=    66 NAA=     0 NBB=     0.
 DE(Corr)= -0.70204542     E(CORR)=     -599.31916024     Delta=-2.03D-07
 NORM(A)=   0.11145418D+01
 Iteration Nr.  17
 **********************
 DD1Dir will call FoFMem   1 times, MxPair=       132
 NAB=    66 NAA=     0 NBB=     0.
 DE(Corr)= -0.70204529     E(CORR)=     -599.31916011     Delta= 1.31D-07
 NORM(A)=   0.11145417D+01
 Iteration Nr.  18
 **********************
 DD1Dir will call FoFMem   1 times, MxPair=       132
 NAB=    66 NAA=     0 NBB=     0.
 DE(Corr)= -0.70204533     E(CORR)=     -599.31916015     Delta=-3.66D-08
 NORM(A)=   0.11145416D+01
 Iteration Nr.  19
 **********************
 DD1Dir will call FoFMem   1 times, MxPair=       132
 NAB=    66 NAA=     0 NBB=     0.
 DE(Corr)= -0.70204528     E(CORR)=     -599.31916010     Delta= 5.25D-08
 NORM(A)=   0.11145415D+01
 Iteration Nr.  20
 **********************
 DD1Dir will call FoFMem   1 times, MxPair=       132
 NAB=    66 NAA=     0 NBB=     0.
 DE(Corr)= -0.70204528     E(CORR)=     -599.31916010     Delta=-2.30D-09
 NORM(A)=   0.11145414D+01
 Iteration Nr.  21
 **********************
 DD1Dir will call FoFMem   1 times, MxPair=       132
 NAB=    66 NAA=     0 NBB=     0.
 DE(Corr)= -0.70204526     E(CORR)=     -599.31916008     Delta= 1.86D-08
 NORM(A)=   0.11145414D+01
 Iteration Nr.  22
 **********************
 DD1Dir will call FoFMem   1 times, MxPair=       132
 NAB=    66 NAA=     0 NBB=     0.
 DE(Corr)= -0.70204526     E(CORR)=     -599.31916008     Delta= 4.03D-09
 NORM(A)=   0.11145414D+01
 Iteration Nr.  23
 **********************
 DD1Dir will call FoFMem   1 times, MxPair=       132
 NAB=    66 NAA=     0 NBB=     0.
 DE(Corr)= -0.70204525     E(CORR)=     -599.31916007     Delta= 4.68D-09
 NORM(A)=   0.11145414D+01
 Iteration Nr.  24
 **********************
 DD1Dir will call FoFMem   1 times, MxPair=       132
 NAB=    66 NAA=     0 NBB=     0.
 DE(Corr)= -0.70204525     E(CORR)=     -599.31916007     Delta=-1.77D-09
 NORM(A)=   0.11145414D+01
 Iteration Nr.  25
 **********************
 DD1Dir will call FoFMem   1 times, MxPair=       132
 NAB=    66 NAA=     0 NBB=     0.
 DE(Corr)= -0.70204525     E(CORR)=     -599.31916007     Delta= 4.93D-09
 NORM(A)=   0.11145414D+01
 Iteration Nr.  26
 **********************
 DD1Dir will call FoFMem   1 times, MxPair=       132
 NAB=    66 NAA=     0 NBB=     0.
 DE(Corr)= -0.70204525     E(CORR)=     -599.31916007     Delta=-4.78D-09
 NORM(A)=   0.11145414D+01
 Iteration Nr.  27
 **********************
 DD1Dir will call FoFMem   1 times, MxPair=       132
 NAB=    66 NAA=     0 NBB=     0.
 DE(Corr)= -0.70204525     E(CORR)=     -599.31916007     Delta= 7.33D-09
 NORM(A)=   0.11145414D+01
 Iteration Nr.  28
 **********************
 DD1Dir will call FoFMem   1 times, MxPair=       132
 NAB=    66 NAA=     0 NBB=     0.
 DE(Corr)= -0.70204525     E(CORR)=     -599.31916007     Delta=-7.80D-09
 NORM(A)=   0.11145414D+01
 Iteration Nr.  29
 **********************
 DD1Dir will call FoFMem   1 times, MxPair=       132
 NAB=    66 NAA=     0 NBB=     0.
 DE(Corr)= -0.70204526     E(CORR)=     -599.31916008     Delta=-3.57D-09
 NORM(A)=   0.11145414D+01
 Iteration Nr.  30
 **********************
 DD1Dir will call FoFMem   1 times, MxPair=       132
 NAB=    66 NAA=     0 NBB=     0.
 DE(Corr)= -0.70204526     E(CORR)=     -599.31916008     Delta= 2.21D-09
 NORM(A)=   0.11145414D+01
 Iteration Nr.  31
 **********************
 DD1Dir will call FoFMem   1 times, MxPair=       132
 NAB=    66 NAA=     0 NBB=     0.
 DE(Corr)= -0.70204525     E(CORR)=     -599.31916007     Delta= 9.95D-09
 NORM(A)=   0.11145414D+01
 Iteration Nr.  32
 **********************
 DD1Dir will call FoFMem   1 times, MxPair=       132
 NAB=    66 NAA=     0 NBB=     0.
 DE(Corr)= -0.70204526     E(CORR)=     -599.31916007     Delta=-9.32D-09
 NORM(A)=   0.11145414D+01
 Iteration Nr.  33
 **********************
 DD1Dir will call FoFMem   1 times, MxPair=       132
 NAB=    66 NAA=     0 NBB=     0.
 DE(Corr)= -0.70204528     E(CORR)=     -599.31916010     Delta=-2.83D-08
 NORM(A)=   0.11145414D+01
 Iteration Nr.  34
 **********************
 DD1Dir will call FoFMem   1 times, MxPair=       132
 NAB=    66 NAA=     0 NBB=     0.
 DE(Corr)= -0.70204529     E(CORR)=     -599.31916011     Delta=-2.50D-09
 NORM(A)=   0.11145414D+01
 Iteration Nr.  35
 **********************
 DD1Dir will call FoFMem   1 times, MxPair=       132
 NAB=    66 NAA=     0 NBB=     0.
 DE(Corr)= -0.70204535     E(CORR)=     -599.31916017     Delta=-6.22D-08
 NORM(A)=   0.11145414D+01
 Iteration Nr.  36
 **********************
 DD1Dir will call FoFMem   1 times, MxPair=       132
 NAB=    66 NAA=     0 NBB=     0.
 DE(Corr)= -0.70204525     E(CORR)=     -599.31916007     Delta= 9.52D-08
 NORM(A)=   0.11145414D+01
 Iteration Nr.  37
 **********************
 DD1Dir will call FoFMem   1 times, MxPair=       132
 NAB=    66 NAA=     0 NBB=     0.
 DE(Corr)= -0.70204525     E(CORR)=     -599.31916007     Delta= 2.17D-09
 NORM(A)=   0.11145414D+01
 Largest amplitude= 6.61D-02

 Z-AMPLITUDE ITERATIONS

 Iteration Nr.   1
 **********************
 DD1Dir will call FoFMem   1 times, MxPair=       132
 NAB=    66 NAA=     0 NBB=     0.
 DE(Z)  -0.68265302D+00          E(Z)=    -0.59929976784D+03
 NORM(A)=   0.11144521D+01
 Iteration Nr.   2
 **********************
 DD1Dir will call FoFMem   1 times, MxPair=       132
 NAB=    66 NAA=     0 NBB=     0.
 DE(Z)  -0.68264322D+00          E(Z)=    -0.59929975804D+03
 NORM(A)=   0.11148604D+01
 Iteration Nr.   3
 **********************
 DD1Dir will call FoFMem   1 times, MxPair=       132
 NAB=    66 NAA=     0 NBB=     0.
 DE(Z)  -0.68268333D+00          E(Z)=    -0.59929979815D+03
 NORM(A)=   0.11143417D+01
 Iteration Nr.   4
 **********************
 DD1Dir will call FoFMem   1 times, MxPair=       132
 NAB=    66 NAA=     0 NBB=     0.
 DE(Z)  -0.68263307D+00          E(Z)=    -0.59929974789D+03
 NORM(A)=   0.11150168D+01
 Iteration Nr.   5
 **********************
 DD1Dir will call FoFMem   1 times, MxPair=       132
 NAB=    66 NAA=     0 NBB=     0.
 DE(Z)  -0.68269935D+00          E(Z)=    -0.59929981417D+03
 NORM(A)=   0.11078858D+01
 Iteration Nr.   6
 **********************
 DD1Dir will call FoFMem   1 times, MxPair=       132
 NAB=    66 NAA=     0 NBB=     0.
 DE(Z)  -0.68198392D+00          E(Z)=    -0.59929909874D+03
 NORM(A)=   0.11078798D+01
 Iteration Nr.   7
 **********************
 DD1Dir will call FoFMem   1 times, MxPair=       132
 NAB=    66 NAA=     0 NBB=     0.
 DE(Z)  -0.68198724D+00          E(Z)=    -0.59929910206D+03
 NORM(A)=   0.11078752D+01
 Iteration Nr.   8
 **********************
 DD1Dir will call FoFMem   1 times, MxPair=       132
 NAB=    66 NAA=     0 NBB=     0.
 DE(Z)  -0.68198397D+00          E(Z)=    -0.59929909879D+03
 NORM(A)=   0.11078721D+01
 Iteration Nr.   9
 **********************
 DD1Dir will call FoFMem   1 times, MxPair=       132
 NAB=    66 NAA=     0 NBB=     0.
 DE(Z)  -0.68198447D+00          E(Z)=    -0.59929909928D+03
 NORM(A)=   0.11078707D+01
 Iteration Nr.  10
 **********************
 DD1Dir will call FoFMem   1 times, MxPair=       132
 NAB=    66 NAA=     0 NBB=     0.
 DE(Z)  -0.68198415D+00          E(Z)=    -0.59929909897D+03
 NORM(A)=   0.11078703D+01
 Iteration Nr.  11
 **********************
 DD1Dir will call FoFMem   1 times, MxPair=       132
 NAB=    66 NAA=     0 NBB=     0.
 DE(Z)  -0.68198420D+00          E(Z)=    -0.59929909902D+03
 NORM(A)=   0.11078702D+01
 Iteration Nr.  12
 **********************
 DD1Dir will call FoFMem   1 times, MxPair=       132
 NAB=    66 NAA=     0 NBB=     0.
 DE(Z)  -0.68198423D+00          E(Z)=    -0.59929909905D+03
 NORM(A)=   0.11078703D+01
 Iteration Nr.  13
 **********************
 DD1Dir will call FoFMem   1 times, MxPair=       132
 NAB=    66 NAA=     0 NBB=     0.
 DE(Z)  -0.68198426D+00          E(Z)=    -0.59929909908D+03
 NORM(A)=   0.11078703D+01
 Iteration Nr.  14
 **********************
 DD1Dir will call FoFMem   1 times, MxPair=       132
 NAB=    66 NAA=     0 NBB=     0.
 DE(Z)  -0.68198424D+00          E(Z)=    -0.59929909906D+03
 NORM(A)=   0.11078703D+01
 Iteration Nr.  15
 **********************
 DD1Dir will call FoFMem   1 times, MxPair=       132
 NAB=    66 NAA=     0 NBB=     0.
 DE(Z)  -0.68198427D+00          E(Z)=    -0.59929909909D+03
 NORM(A)=   0.11078703D+01
 Iteration Nr.  16
 **********************
 DD1Dir will call FoFMem   1 times, MxPair=       132
 NAB=    66 NAA=     0 NBB=     0.
 DE(Z)  -0.68198426D+00          E(Z)=    -0.59929909908D+03
 NORM(A)=   0.11078703D+01
 Iteration Nr.  17
 **********************
 DD1Dir will call FoFMem   1 times, MxPair=       132
 NAB=    66 NAA=     0 NBB=     0.
 DE(Z)  -0.68198428D+00          E(Z)=    -0.59929909910D+03
 NORM(A)=   0.11078703D+01
 Iteration Nr.  18
 **********************
 DD1Dir will call FoFMem   1 times, MxPair=       132
 NAB=    66 NAA=     0 NBB=     0.
 DE(Z)  -0.68198427D+00          E(Z)=    -0.59929909909D+03
 NORM(A)=   0.11078703D+01
 Iteration Nr.  19
 **********************
 DD1Dir will call FoFMem   1 times, MxPair=       132
 NAB=    66 NAA=     0 NBB=     0.
 DE(Z)  -0.68198427D+00          E(Z)=    -0.59929909909D+03
 NORM(A)=   0.11078703D+01
 Iteration Nr.  20
 **********************
 DD1Dir will call FoFMem   1 times, MxPair=       132
 NAB=    66 NAA=     0 NBB=     0.
 DE(Z)  -0.68198427D+00          E(Z)=    -0.59929909909D+03
 NORM(A)=   0.11078703D+01
 Iteration Nr.  21
 **********************
 DD1Dir will call FoFMem   1 times, MxPair=       132
 NAB=    66 NAA=     0 NBB=     0.
 DE(Z)  -0.68198427D+00          E(Z)=    -0.59929909909D+03
 NORM(A)=   0.11078703D+01
 Discarding MO integrals.
          Differentiating once with respect to electric field.
                with respect to dipole field.
          Electric field/nuclear overlap derivatives assumed to be zero.
          Keep R1 ints in memory in canonical form, NReq=448662239.
          There are     1 degrees of freedom in the 1st order CPHF.  IDoFFX=0.
 LinEq1:  Iter=  0 NonCon=     1 RMS=3.11D-03 Max=1.20D-01
 AX will form     1 AO Fock derivatives at one time.
 LinEq1:  Iter=  1 NonCon=     1 RMS=6.94D-04 Max=9.48D-03
 LinEq1:  Iter=  2 NonCon=     1 RMS=2.30D-04 Max=5.72D-03
 LinEq1:  Iter=  3 NonCon=     1 RMS=9.49D-05 Max=1.45D-03
 LinEq1:  Iter=  4 NonCon=     1 RMS=3.84D-05 Max=4.10D-04
 LinEq1:  Iter=  5 NonCon=     1 RMS=1.06D-05 Max=2.26D-04
 LinEq1:  Iter=  6 NonCon=     1 RMS=2.42D-06 Max=4.25D-05
 LinEq1:  Iter=  7 NonCon=     1 RMS=6.06D-07 Max=9.14D-06
 LinEq1:  Iter=  8 NonCon=     1 RMS=1.49D-07 Max=1.80D-06
 LinEq1:  Iter=  9 NonCon=     1 RMS=3.03D-08 Max=7.47D-07
 LinEq1:  Iter= 10 NonCon=     1 RMS=6.54D-09 Max=8.91D-08
 LinEq1:  Iter= 11 NonCon=     1 RMS=1.05D-09 Max=1.16D-08
 LinEq1:  Iter= 12 NonCon=     1 RMS=1.68D-10 Max=2.85D-09
 LinEq1:  Iter= 13 NonCon=     0 RMS=2.40D-11 Max=3.21D-10
 Linear equations converged to 1.000D-10 1.000D-09 after    13 iterations.
 End of Minotr Frequency-dependent properties file   721 does not exist.
 End of Minotr Frequency-dependent properties file   722 does not exist.

 **********************************************************************

            Population analysis using the QCI/CC density.

 **********************************************************************

     Natural Orbital Coefficients:
                           1         2         3         4         5
     Eigenvalues --     2.00003   2.00003   2.00002   2.00001   2.00001
   1 1   C  1S         -0.00004   0.00004  -0.04328   0.08032   0.97619
   2        2S          0.00000   0.00000   0.00131   0.00050  -0.01332
   3        3S          0.00000   0.00000  -0.00132   0.00400   0.03985
   4        4S          0.00013  -0.00013  -0.01265  -0.02360   0.00312
   5        5S          0.00001  -0.00001  -0.00120  -0.00062  -0.00061
   6        6PX         0.00004  -0.00004   0.00000   0.00000   0.00000
   7        6PY         0.00004   0.00004   0.00000   0.00000   0.00000
   8        6PZ         0.00000   0.00000   0.00053   0.00168   0.00087
   9        7PX         0.00059  -0.00061   0.00000   0.00000   0.00003
  10        7PY         0.00060   0.00060   0.00000   0.00000   0.00000
  11        7PZ         0.00000   0.00000   0.00142   0.00304  -0.00091
  12        8PX         0.00318  -0.00327  -0.00004  -0.00005   0.00005
  13        8PY         0.00323   0.00322   0.00000   0.00000   0.00000
  14        8PZ        -0.00001   0.00001  -0.00373  -0.00410  -0.00309
  15        9PX         0.00030  -0.00030   0.00000   0.00000   0.00000
  16        9PY         0.00031   0.00029   0.00000   0.00000   0.00000
  17        9PZ         0.00000   0.00000   0.00021   0.00017  -0.00049
  18       10D 0        0.00000   0.00000   0.00011   0.00033  -0.00057
  19       10D+1       -0.00011   0.00011   0.00000   0.00000   0.00000
  20       10D-1       -0.00011  -0.00011   0.00000   0.00000   0.00000
  21       10D+2        0.00003   0.00003   0.00000   0.00000   0.00000
  22       10D-2        0.00003  -0.00003   0.00000   0.00000   0.00000
  23       11D 0       -0.00001   0.00001   0.00022  -0.00009  -0.00029
  24       11D+1        0.00018  -0.00018   0.00000   0.00000   0.00000
  25       11D-1        0.00018   0.00018   0.00000   0.00000   0.00000
  26       11D+2        0.00071   0.00072   0.00000   0.00000   0.00000
  27       11D-2        0.00071  -0.00072   0.00000   0.00001   0.00003
  28       12D 0        0.00002  -0.00002  -0.00078   0.00122  -0.00236
  29       12D+1       -0.00091   0.00094  -0.00001  -0.00001   0.00002
  30       12D-1       -0.00092  -0.00092   0.00000   0.00000   0.00000
  31       12D+2        0.00114   0.00116   0.00000   0.00000   0.00000
  32       12D-2        0.00114  -0.00115  -0.00001   0.00001   0.00002
  33       13F 0        0.00000   0.00000   0.00001   0.00003   0.00019
  34       13F+1       -0.00013   0.00014   0.00000   0.00000   0.00000
  35       13F-1       -0.00013  -0.00013   0.00000   0.00000   0.00000
  36       13F+2        0.00001   0.00001   0.00000   0.00000   0.00000
  37       13F-2        0.00001  -0.00001   0.00000   0.00000   0.00000
  38       13F+3        0.00000   0.00000   0.00000   0.00000  -0.00001
  39       13F-3        0.00000   0.00000  -0.00006   0.00007   0.00090
  40       14F 0        0.00000   0.00000  -0.00113  -0.00215  -0.00019
  41       14F+1        0.00040  -0.00041   0.00000   0.00000  -0.00001
  42       14F-1        0.00041   0.00041   0.00000   0.00000   0.00000
  43       14F+2        0.00024   0.00024   0.00000   0.00000   0.00000
  44       14F-2        0.00024  -0.00024   0.00000   0.00000   0.00000
  45       14F+3        0.00001   0.00001   0.00001   0.00001   0.00002
  46       14F-3        0.00002  -0.00002  -0.00086  -0.00136  -0.00191
  47 2   H  1S         -0.00011  -0.00011  -0.00002  -0.00035  -0.00135
  48        2S          0.00081   0.00088   0.00245   0.00333  -0.00067
  49        3S          0.00614   0.00617   0.00182   0.00529  -0.00434
  50        4S         -0.00019  -0.00019   0.00011   0.00009  -0.00013
  51        5PX         0.00000   0.00000   0.00000   0.00000   0.00001
  52        5PY         0.00002   0.00002   0.00004  -0.00003  -0.00048
  53        5PZ         0.00001   0.00001   0.00001   0.00002  -0.00009
  54        6PX         0.00013  -0.00014  -0.00001  -0.00002   0.00000
  55        6PY         0.00046   0.00047   0.00046   0.00070  -0.00080
  56        6PZ         0.00044   0.00044  -0.00001  -0.00010   0.00024
  57        7PX         0.00062  -0.00068  -0.00002  -0.00001   0.00003
  58        7PY         0.00148   0.00149   0.00054   0.00135  -0.00102
  59        7PZ         0.00020   0.00019   0.00047   0.00092  -0.00006
  60        8D 0        0.00003   0.00003   0.00001   0.00007   0.00014
  61        8D+1       -0.00001   0.00001   0.00000   0.00000   0.00000
  62        8D-1        0.00007   0.00007   0.00002   0.00005  -0.00004
  63        8D+2       -0.00003  -0.00003  -0.00004  -0.00005   0.00028
  64        8D-2        0.00001  -0.00001   0.00000   0.00000   0.00001
  65        9D 0        0.00027   0.00028   0.00015   0.00025   0.00063
  66        9D+1        0.00017  -0.00018   0.00000   0.00000  -0.00001
  67        9D-1        0.00009   0.00009  -0.00014  -0.00025   0.00001
  68        9D+2       -0.00009  -0.00009   0.00001   0.00003  -0.00010
  69        9D-2        0.00008  -0.00009   0.00000   0.00000   0.00001
  70 3   H  1S         -0.00004   0.00015  -0.00002  -0.00035  -0.00135
  71        2S          0.00027  -0.00114   0.00244   0.00333  -0.00063
  72        3S          0.00219  -0.00844   0.00177   0.00526  -0.00429
  73        4S         -0.00007   0.00027   0.00011   0.00010  -0.00014
  74        5PX         0.00001  -0.00003   0.00004  -0.00002  -0.00042
  75        5PY         0.00000   0.00002  -0.00002   0.00001   0.00024
  76        5PZ         0.00000  -0.00001   0.00001   0.00002  -0.00009
  77        6PX         0.00023  -0.00053   0.00039   0.00060  -0.00068
  78        6PY         0.00007   0.00036  -0.00023  -0.00035   0.00039
  79        6PZ         0.00016  -0.00060  -0.00001  -0.00010   0.00024
  80        7PX         0.00089  -0.00164   0.00045   0.00116  -0.00086
  81        7PY         0.00050   0.00122  -0.00027  -0.00067   0.00051
  82        7PZ         0.00007  -0.00026   0.00046   0.00092  -0.00005
  83        8D 0        0.00001  -0.00004   0.00001   0.00007   0.00014
  84        8D+1        0.00001  -0.00008   0.00002   0.00004  -0.00003
  85        8D-1       -0.00002   0.00004  -0.00001  -0.00002   0.00002
  86        8D+2        0.00001  -0.00002   0.00002   0.00003  -0.00014
  87        8D-2       -0.00001   0.00004  -0.00004  -0.00005   0.00024
  88        9D 0        0.00009  -0.00037   0.00015   0.00025   0.00063
  89        9D+1        0.00015  -0.00007  -0.00012  -0.00022   0.00001
  90        9D-1        0.00019   0.00012   0.00007   0.00013  -0.00001
  91        9D+2        0.00011  -0.00004  -0.00001  -0.00001   0.00005
  92        9D-2        0.00003   0.00012   0.00001   0.00002  -0.00009
  93 4   H  1S          0.00015  -0.00004  -0.00002  -0.00035  -0.00134
  94        2S         -0.00117   0.00035   0.00246   0.00333  -0.00070
  95        3S         -0.00837   0.00232   0.00188   0.00532  -0.00440
  96        4S          0.00025  -0.00007   0.00011   0.00009  -0.00013
  97        5PX         0.00003  -0.00001  -0.00004   0.00002   0.00042
  98        5PY         0.00002   0.00000  -0.00002   0.00001   0.00024
  99        5PZ        -0.00001   0.00000   0.00001   0.00002  -0.00009
 100        6PX         0.00052  -0.00025  -0.00040  -0.00061   0.00070
 101        6PY         0.00036   0.00008  -0.00022  -0.00034   0.00041
 102        6PZ        -0.00060   0.00016  -0.00001  -0.00010   0.00024
 103        7PX         0.00163  -0.00094  -0.00048  -0.00118   0.00090
 104        7PY         0.00122   0.00050  -0.00027  -0.00068   0.00050
 105        7PZ        -0.00026   0.00007   0.00048   0.00093  -0.00007
 106        8D 0       -0.00004   0.00001   0.00001   0.00007   0.00014
 107        8D+1        0.00008  -0.00001  -0.00002  -0.00004   0.00003
 108        8D-1        0.00004  -0.00002  -0.00001  -0.00002   0.00002
 109        8D+2       -0.00002   0.00002   0.00002   0.00003  -0.00014
 110        8D-2       -0.00004   0.00001   0.00004   0.00005  -0.00024
 111        9D 0       -0.00038   0.00011   0.00015   0.00025   0.00063
 112        9D+1        0.00007  -0.00015   0.00012   0.00022  -0.00001
 113        9D-1        0.00012   0.00019   0.00007   0.00013   0.00000
 114        9D+2       -0.00003   0.00012   0.00000  -0.00001   0.00004
 115        9D-2       -0.00012  -0.00003  -0.00001  -0.00002   0.00008
 116 5   Cl 1S          0.00003  -0.00003  -0.25059   0.14801  -0.02282
 117        2S         -0.00010   0.00010   0.84589  -0.50032   0.07824
 118        3S          0.00001  -0.00001  -0.02309   0.00933  -0.00239
 119        4S         -0.00001   0.00001   0.06655  -0.04076   0.00643
 120        5S         -0.00002   0.00002  -0.00211   0.00778   0.00350
 121        6S         -0.00001   0.00001  -0.00154  -0.00213   0.00300
 122        7PX         0.68656  -0.69772   0.00016   0.00000   0.00006
 123        7PY         0.69772   0.68656   0.00022   0.00036  -0.00002
 124        7PZ        -0.00036  -0.00024   0.50091   0.83587  -0.04716
 125        8PX        -0.01343   0.01365   0.00000   0.00000   0.00000
 126        8PY        -0.01365  -0.01343   0.00000  -0.00001   0.00000
 127        8PZ         0.00001   0.00000  -0.00878  -0.01404   0.00011
 128        9PX         0.03670  -0.03730   0.00001   0.00000   0.00000
 129        9PY         0.03730   0.03671   0.00001   0.00002   0.00000
 130        9PZ        -0.00002  -0.00001   0.02844   0.04954  -0.00267
 131       10PX        -0.00406   0.00411   0.00000   0.00000  -0.00001
 132       10PY        -0.00412  -0.00405   0.00000   0.00000   0.00000
 133       10PZ         0.00001  -0.00001  -0.00435  -0.00275  -0.00347
 134       11PX        -0.00151   0.00153   0.00000   0.00000   0.00000
 135       11PY        -0.00153  -0.00150   0.00000   0.00000   0.00000
 136       11PZ         0.00000   0.00000  -0.00036  -0.00015  -0.00053
 137       12D 0        0.00000   0.00000   0.00001  -0.00051  -0.00017
 138       12D+1       -0.00022   0.00023   0.00000   0.00000   0.00000
 139       12D-1       -0.00023  -0.00022   0.00000   0.00000   0.00000
 140       12D+2        0.00001   0.00001   0.00000   0.00000   0.00000
 141       12D-2        0.00001  -0.00001   0.00000   0.00000   0.00000
 142       13D 0        0.00000   0.00000   0.00088   0.00244   0.00042
 143       13D+1        0.00057  -0.00058   0.00000   0.00000   0.00000
 144       13D-1        0.00058   0.00057   0.00000   0.00000   0.00000
 145       13D+2       -0.00001  -0.00001   0.00000   0.00000   0.00000
 146       13D-2       -0.00001   0.00001   0.00000   0.00000   0.00000
 147       14D 0        0.00000   0.00000   0.00058  -0.00018   0.00080
 148       14D+1       -0.00050   0.00051   0.00000   0.00000   0.00001
 149       14D-1       -0.00051  -0.00050   0.00000   0.00000   0.00000
 150       14D+2        0.00002   0.00002   0.00000   0.00000   0.00000
 151       14D-2        0.00002  -0.00002   0.00000   0.00000   0.00000
 152       15F 0        0.00000   0.00000   0.00001  -0.00007  -0.00003
 153       15F+1        0.00000   0.00000   0.00000   0.00000   0.00000
 154       15F-1        0.00000   0.00000   0.00000   0.00000   0.00000
 155       15F+2        0.00002   0.00002   0.00000   0.00000   0.00000
 156       15F-2        0.00002  -0.00002   0.00000   0.00000   0.00000
 157       15F+3        0.00000   0.00000   0.00000   0.00000   0.00000
 158       15F-3        0.00000   0.00000   0.00001   0.00003   0.00000
 159       16F 0        0.00000   0.00000  -0.00032  -0.00058  -0.00031
 160       16F+1       -0.00016   0.00016   0.00000   0.00000   0.00000
 161       16F-1       -0.00016  -0.00016   0.00000   0.00000   0.00000
 162       16F+2       -0.00002  -0.00002   0.00000   0.00000   0.00000
 163       16F-2       -0.00002   0.00002   0.00000   0.00000   0.00000
 164       16F+3        0.00000   0.00000   0.00000   0.00000   0.00000
 165       16F-3        0.00000   0.00000  -0.00002  -0.00005   0.00002
 166 6   F  1S          0.00000   0.00000  -0.00144  -0.01041  -0.04977
 167        2S          0.00000   0.00000   0.00020   0.00043   0.00080
 168        3S          0.00000   0.00000  -0.00007  -0.00045  -0.00202
 169        4S         -0.00001   0.00001  -0.00055  -0.00105   0.00056
 170        5S         -0.00001   0.00001   0.00010  -0.00168   0.00178
 171        6PX        -0.00003   0.00003   0.00000   0.00000   0.00000
 172        6PY        -0.00003  -0.00003   0.00000   0.00000   0.00000
 173        6PZ         0.00000   0.00000   0.00058   0.00111   0.00011
 174        7PX         0.00000   0.00000   0.00000   0.00000   0.00000
 175        7PY         0.00000   0.00000   0.00000   0.00000   0.00000
 176        7PZ         0.00000   0.00000   0.00069   0.00132   0.00002
 177        8PX        -0.00017   0.00017   0.00000   0.00000   0.00000
 178        8PY        -0.00017  -0.00017   0.00000   0.00000   0.00000
 179        8PZ         0.00000   0.00000   0.00008   0.00017   0.00048
 180        9PX        -0.00025   0.00025   0.00000   0.00000   0.00000
 181        9PY        -0.00026  -0.00025   0.00000   0.00000   0.00000
 182        9PZ         0.00000   0.00000   0.00017  -0.00009   0.00071
 183       10D 0        0.00000   0.00000   0.00001   0.00001  -0.00002
 184       10D+1        0.00000   0.00000   0.00000   0.00000   0.00000
 185       10D-1        0.00000   0.00000   0.00000   0.00000   0.00000
 186       10D+2        0.00000   0.00000   0.00000   0.00000   0.00000
 187       10D-2        0.00000   0.00000   0.00000   0.00000   0.00000
 188       11D 0        0.00000   0.00000  -0.00003  -0.00010   0.00001
 189       11D+1        0.00003  -0.00003   0.00000   0.00000   0.00000
 190       11D-1        0.00003   0.00003   0.00000   0.00000   0.00000
 191       11D+2       -0.00002  -0.00002   0.00000   0.00000   0.00000
 192       11D-2       -0.00002   0.00002   0.00000   0.00000   0.00000
 193       12D 0        0.00000   0.00000  -0.00019  -0.00012   0.00011
 194       12D+1       -0.00016   0.00016   0.00000   0.00000   0.00000
 195       12D-1       -0.00016  -0.00016   0.00000   0.00000   0.00000
 196       12D+2        0.00008   0.00008   0.00000   0.00000   0.00000
 197       12D-2        0.00008  -0.00008   0.00000   0.00000   0.00000
 198       13F 0        0.00000   0.00000   0.00001  -0.00001  -0.00004
 199       13F+1        0.00001  -0.00001   0.00000   0.00000   0.00000
 200       13F-1        0.00001   0.00001   0.00000   0.00000   0.00000
 201       13F+2       -0.00001  -0.00001   0.00000   0.00000   0.00000
 202       13F-2       -0.00001   0.00001   0.00000   0.00000   0.00000
 203       13F+3        0.00000   0.00000   0.00000   0.00000   0.00000
 204       13F-3        0.00000   0.00000   0.00000   0.00000   0.00000
 205       14F 0        0.00000   0.00000  -0.00004   0.00002   0.00013
 206       14F+1       -0.00004   0.00004   0.00000   0.00000   0.00000
 207       14F-1       -0.00004  -0.00004   0.00000   0.00000   0.00000
 208       14F+2        0.00003   0.00003   0.00000   0.00000   0.00000
 209       14F-2        0.00003  -0.00003   0.00000   0.00000   0.00000
 210       14F+3        0.00000   0.00000   0.00000   0.00000   0.00000
 211       14F-3        0.00000   0.00000   0.00000   0.00000  -0.00001
                           6         7         8         9        10
     Eigenvalues --     2.00000   2.00000   1.98361   1.97543   1.96949
   1 1   C  1S          0.05039  -0.00046   0.01542  -0.07337  -0.14372
   2        2S         -0.00012  -0.00001  -0.04201   0.19909   0.39728
   3        3S          0.00230  -0.00003  -0.01040   0.04619   0.09614
   4        4S         -0.00699   0.00016   0.00557   0.07906   0.19078
   5        5S         -0.00016   0.00010   0.00785  -0.00690  -0.02890
   6        6PX         0.00000   0.00000  -0.00002   0.00020   0.00082
   7        6PY         0.00000   0.00000   0.00000   0.00001   0.00001
   8        6PZ         0.00004   0.00000   0.00646   0.01034  -0.02723
   9        7PX         0.00000   0.00000  -0.00005   0.00030   0.00116
  10        7PY         0.00000   0.00000   0.00000   0.00002   0.00002
  11        7PZ        -0.00075   0.00000   0.00706   0.01790  -0.03246
  12        8PX        -0.00002   0.00000   0.00008  -0.00020   0.00017
  13        8PY         0.00000   0.00000   0.00001   0.00001   0.00001
  14        8PZ         0.00519   0.00009   0.01660   0.00589  -0.02271
  15        9PX         0.00000   0.00000   0.00003  -0.00005  -0.00009
  16        9PY         0.00000   0.00000   0.00000   0.00000   0.00000
  17        9PZ         0.00011   0.00001  -0.00071   0.00033  -0.00407
  18       10D 0        0.00004   0.00000   0.00051  -0.00214  -0.00956
  19       10D+1        0.00000   0.00000   0.00000  -0.00001  -0.00002
  20       10D-1        0.00000   0.00000   0.00000   0.00000  -0.00001
  21       10D+2        0.00000   0.00000   0.00000   0.00000   0.00000
  22       10D-2        0.00000   0.00000   0.00001  -0.00004  -0.00006
  23       11D 0       -0.00023  -0.00002  -0.00529   0.00462  -0.01876
  24       11D+1        0.00000   0.00000   0.00002  -0.00002  -0.00005
  25       11D-1        0.00000   0.00000   0.00000   0.00000  -0.00001
  26       11D+2        0.00000   0.00000   0.00000   0.00000   0.00001
  27       11D-2        0.00000   0.00000  -0.00002  -0.00011  -0.00018
  28       12D 0        0.00027   0.00008   0.00206  -0.00841  -0.01668
  29       12D+1        0.00002   0.00000   0.00002   0.00005   0.00003
  30       12D-1        0.00000   0.00000   0.00000  -0.00001  -0.00001
  31       12D+2        0.00000   0.00000   0.00000   0.00000   0.00000
  32       12D-2       -0.00001   0.00000  -0.00010  -0.00001   0.00005
  33       13F 0       -0.00007   0.00000   0.00000   0.00242   0.00064
  34       13F+1        0.00000   0.00000   0.00000  -0.00001  -0.00002
  35       13F-1        0.00000   0.00000   0.00000   0.00000   0.00000
  36       13F+2        0.00000   0.00000   0.00000   0.00000   0.00000
  37       13F-2        0.00000   0.00000   0.00000   0.00001   0.00001
  38       13F+3        0.00000   0.00000   0.00000  -0.00002  -0.00004
  39       13F-3        0.00001   0.00000  -0.00014   0.00194   0.00397
  40       14F 0        0.00127  -0.00001   0.00471   0.00261  -0.00198
  41       14F+1        0.00000   0.00000  -0.00001   0.00001  -0.00001
  42       14F-1        0.00000   0.00000   0.00001   0.00000   0.00000
  43       14F+2        0.00000   0.00000   0.00000   0.00000   0.00000
  44       14F-2        0.00000   0.00000   0.00002   0.00001   0.00001
  45       14F+3        0.00000   0.00000  -0.00002   0.00001  -0.00004
  46       14F-3       -0.00044   0.00003   0.00188  -0.00100   0.00404
  47 2   H  1S         -0.00008   0.00000  -0.00857   0.03716   0.08051
  48        2S          0.00098  -0.00006  -0.01531   0.04377   0.08371
  49        3S          0.00181   0.00004  -0.00090  -0.00490  -0.01203
  50        4S          0.00003   0.00000  -0.00047   0.00051   0.00039
  51        5PX         0.00000   0.00000   0.00001  -0.00003  -0.00006
  52        5PY         0.00001   0.00000  -0.00109   0.00399   0.00863
  53        5PZ        -0.00004   0.00000   0.00028   0.00095   0.00034
  54        6PX        -0.00001   0.00000   0.00002  -0.00006  -0.00002
  55        6PY         0.00008   0.00000  -0.00073   0.00080   0.00121
  56        6PZ         0.00032  -0.00001   0.00008   0.00243  -0.00051
  57        7PX        -0.00001   0.00000  -0.00010   0.00006   0.00015
  58        7PY         0.00043   0.00001   0.00135  -0.00496  -0.01032
  59        7PZ        -0.00055   0.00001  -0.00280  -0.00173  -0.00131
  60        8D 0        0.00006   0.00000   0.00014  -0.00035  -0.00091
  61        8D+1        0.00000   0.00000   0.00000   0.00000   0.00000
  62        8D-1       -0.00001   0.00000  -0.00015   0.00049   0.00023
  63        8D+2       -0.00002   0.00000   0.00003  -0.00054  -0.00137
  64        8D-2        0.00000   0.00000   0.00000  -0.00001  -0.00003
  65        9D 0        0.00009  -0.00001  -0.00006   0.00122   0.00101
  66        9D+1        0.00000   0.00000   0.00001   0.00000   0.00000
  67        9D-1        0.00014   0.00000  -0.00006   0.00004  -0.00038
  68        9D+2        0.00004   0.00000  -0.00098   0.00225   0.00415
  69        9D-2        0.00000   0.00000  -0.00002   0.00001   0.00003
  70 3   H  1S         -0.00008   0.00000  -0.00858   0.03712   0.08019
  71        2S          0.00097  -0.00006  -0.01535   0.04368   0.08333
  72        3S          0.00178   0.00004  -0.00098  -0.00517  -0.01221
  73        4S          0.00003   0.00000  -0.00045   0.00047   0.00031
  74        5PX         0.00001   0.00000  -0.00094   0.00345   0.00745
  75        5PY        -0.00001   0.00000   0.00054  -0.00199  -0.00429
  76        5PZ        -0.00004   0.00000   0.00027   0.00096   0.00035
  77        6PX         0.00006   0.00000  -0.00065   0.00070   0.00109
  78        6PY        -0.00004   0.00000   0.00038  -0.00043  -0.00064
  79        6PZ         0.00032  -0.00001   0.00009   0.00242  -0.00052
  80        7PX         0.00037   0.00001   0.00114  -0.00433  -0.00891
  81        7PY        -0.00022   0.00000  -0.00071   0.00251   0.00518
  82        7PZ        -0.00054   0.00001  -0.00279  -0.00172  -0.00130
  83        8D 0        0.00006   0.00000   0.00014  -0.00035  -0.00091
  84        8D+1       -0.00001   0.00000  -0.00013   0.00043   0.00020
  85        8D-1        0.00000   0.00000   0.00007  -0.00025  -0.00012
  86        8D+2        0.00001   0.00000  -0.00002   0.00027   0.00068
  87        8D-2       -0.00001   0.00000   0.00003  -0.00047  -0.00118
  88        9D 0        0.00009  -0.00001  -0.00006   0.00121   0.00099
  89        9D+1        0.00012   0.00000  -0.00005   0.00003  -0.00033
  90        9D-1       -0.00007   0.00000   0.00003  -0.00002   0.00019
  91        9D+2       -0.00002   0.00000   0.00049  -0.00113  -0.00208
  92        9D-2        0.00003   0.00000  -0.00084   0.00193   0.00356
  93 4   H  1S         -0.00008   0.00000  -0.00857   0.03723   0.08087
  94        2S          0.00098  -0.00006  -0.01527   0.04386   0.08412
  95        3S          0.00184   0.00004  -0.00083  -0.00464  -0.01188
  96        4S          0.00003   0.00000  -0.00049   0.00055   0.00047
  97        5PX        -0.00001   0.00000   0.00094  -0.00346  -0.00750
  98        5PY        -0.00001   0.00000   0.00054  -0.00200  -0.00434
  99        5PZ        -0.00004   0.00000   0.00028   0.00096   0.00035
 100        6PX        -0.00007   0.00000   0.00062  -0.00069  -0.00101
 101        6PY        -0.00004   0.00000   0.00035  -0.00037  -0.00057
 102        6PZ         0.00032  -0.00001   0.00006   0.00243  -0.00050
 103        7PX        -0.00038  -0.00001  -0.00120   0.00426   0.00898
 104        7PY        -0.00022   0.00000  -0.00064   0.00245   0.00515
 105        7PZ        -0.00056   0.00001  -0.00281  -0.00175  -0.00133
 106        8D 0        0.00006   0.00000   0.00014  -0.00035  -0.00091
 107        8D+1        0.00001   0.00000   0.00013  -0.00043  -0.00020
 108        8D-1        0.00000   0.00000   0.00007  -0.00025  -0.00012
 109        8D+2        0.00001   0.00000  -0.00002   0.00027   0.00069
 110        8D-2        0.00001   0.00000  -0.00003   0.00047   0.00119
 111        9D 0        0.00009  -0.00001  -0.00006   0.00123   0.00103
 112        9D+1       -0.00012   0.00000   0.00005  -0.00003   0.00033
 113        9D-1       -0.00007   0.00000   0.00003  -0.00002   0.00019
 114        9D+2       -0.00002   0.00000   0.00050  -0.00112  -0.00207
 115        9D-2       -0.00003   0.00000   0.00086  -0.00197  -0.00364
 116 5   Cl 1S          0.00007   0.99708  -0.00064   0.06648  -0.03479
 117        2S         -0.00007   0.01040   0.00292  -0.25194   0.13075
 118        3S          0.00005   0.00017  -0.00391   0.52472  -0.27820
 119        4S          0.00008   0.00026  -0.00025   0.06428  -0.03748
 120        5S         -0.00181  -0.00020  -0.01230   0.35097  -0.17053
 121        6S         -0.00050  -0.00011  -0.00461   0.02452   0.01131
 122        7PX         0.00000   0.00000   0.00000  -0.00001  -0.00006
 123        7PY         0.00000   0.00000   0.00000   0.00000   0.00001
 124        7PZ         0.00733   0.00016   0.00152   0.00459   0.02880
 125        8PX         0.00000   0.00000   0.00000   0.00001   0.00014
 126        8PY         0.00000   0.00000   0.00000   0.00000  -0.00003
 127        8PZ         0.00051  -0.00003  -0.00227  -0.00602  -0.07208
 128        9PX         0.00000   0.00000   0.00000   0.00000   0.00006
 129        9PY         0.00000   0.00000   0.00000   0.00000  -0.00001
 130        9PZ         0.00032   0.00003  -0.00264   0.00068  -0.03141
 131       10PX        -0.00001   0.00000  -0.00001   0.00000   0.00006
 132       10PY         0.00000   0.00000   0.00000   0.00000  -0.00002
 133       10PZ         0.00096   0.00015   0.00271   0.00302  -0.05237
 134       11PX         0.00000   0.00000   0.00000   0.00000   0.00001
 135       11PY         0.00000   0.00000   0.00000   0.00000   0.00000
 136       11PZ         0.00002   0.00002  -0.00040   0.00263  -0.00875
 137       12D 0       -0.00003   0.00001  -0.00035   0.00448   0.00453
 138       12D+1        0.00000   0.00000   0.00000   0.00000  -0.00001
 139       12D-1        0.00000   0.00000   0.00000   0.00000   0.00000
 140       12D+2        0.00000   0.00000   0.00000   0.00000   0.00000
 141       12D-2        0.00000   0.00000   0.00000   0.00000   0.00000
 142       13D 0       -0.00022   0.00000  -0.00163   0.00820   0.00969
 143       13D+1        0.00000   0.00000   0.00000  -0.00001  -0.00003
 144       13D-1        0.00000   0.00000   0.00000   0.00001   0.00001
 145       13D+2        0.00000   0.00000   0.00000   0.00000   0.00000
 146       13D-2        0.00000   0.00000   0.00000  -0.00001   0.00000
 147       14D 0       -0.00014  -0.00004  -0.00184  -0.00018   0.00539
 148       14D+1        0.00000   0.00000   0.00000   0.00000   0.00000
 149       14D-1        0.00000   0.00000   0.00000   0.00000   0.00000
 150       14D+2        0.00000   0.00000   0.00000   0.00000   0.00000
 151       14D-2        0.00000   0.00000   0.00000  -0.00001  -0.00001
 152       15F 0        0.00005   0.00000   0.00023  -0.00180  -0.00192
 153       15F+1        0.00000   0.00000   0.00000   0.00000   0.00001
 154       15F-1        0.00000   0.00000   0.00000   0.00000   0.00000
 155       15F+2        0.00000   0.00000   0.00000   0.00000   0.00000
 156       15F-2        0.00000   0.00000   0.00000   0.00000   0.00000
 157       15F+3        0.00000   0.00000   0.00000   0.00000   0.00000
 158       15F-3       -0.00001   0.00000  -0.00001   0.00002   0.00009
 159       16F 0       -0.00005   0.00001   0.00005  -0.00093  -0.00171
 160       16F+1        0.00000   0.00000   0.00000   0.00000   0.00001
 161       16F-1        0.00000   0.00000   0.00000   0.00000   0.00000
 162       16F+2        0.00000   0.00000   0.00000   0.00000   0.00000
 163       16F-2        0.00000   0.00000   0.00000   0.00000   0.00000
 164       16F+3        0.00000   0.00000   0.00000   0.00000   0.00000
 165       16F-3        0.00003   0.00000   0.00002  -0.00001  -0.00021
 166 6   F  1S          0.97743  -0.00002   0.21189   0.01315   0.02162
 167        2S         -0.01503   0.00000  -0.53161  -0.03404  -0.05732
 168        3S          0.04206   0.00000  -0.16471  -0.01081  -0.01853
 169        4S          0.00193  -0.00001  -0.36876  -0.02363  -0.04391
 170        5S         -0.00083  -0.00006  -0.04529   0.00420   0.00781
 171        6PX         0.00000   0.00000   0.00003   0.00004   0.00036
 172        6PY         0.00000   0.00000   0.00001   0.00001   0.00005
 173        6PZ         0.00048   0.00000   0.01352   0.01270   0.08750
 174        7PX         0.00000   0.00000   0.00003   0.00005   0.00043
 175        7PY         0.00000   0.00000   0.00001   0.00001   0.00006
 176        7PZ        -0.00012   0.00000   0.01475   0.01551   0.10528
 177        8PX         0.00000   0.00000   0.00002   0.00004   0.00034
 178        8PY         0.00000   0.00000   0.00001   0.00001   0.00004
 179        8PZ         0.00240  -0.00001   0.01247   0.01225   0.08373
 180        9PX         0.00000   0.00000   0.00000   0.00001   0.00010
 181        9PY         0.00000   0.00000   0.00000   0.00000   0.00001
 182        9PZ        -0.00008  -0.00002   0.00220   0.00315   0.02424
 183       10D 0       -0.00002   0.00000  -0.00013   0.00017   0.00060
 184       10D+1        0.00000   0.00000   0.00000   0.00000   0.00000
 185       10D-1        0.00000   0.00000   0.00000   0.00000   0.00000
 186       10D+2        0.00000   0.00000   0.00000   0.00000   0.00000
 187       10D-2        0.00000   0.00000   0.00000   0.00000   0.00000
 188       11D 0       -0.00003   0.00000  -0.00104   0.00091   0.00275
 189       11D+1        0.00000   0.00000   0.00000   0.00000   0.00001
 190       11D-1        0.00000   0.00000   0.00000   0.00000   0.00000
 191       11D+2        0.00000   0.00000   0.00000   0.00000   0.00000
 192       11D-2        0.00000   0.00000   0.00000   0.00000   0.00000
 193       12D 0        0.00080   0.00000  -0.00055   0.00035   0.00386
 194       12D+1        0.00000   0.00000   0.00000   0.00000   0.00001
 195       12D-1        0.00000   0.00000   0.00000   0.00000   0.00000
 196       12D+2        0.00000   0.00000   0.00000   0.00000   0.00000
 197       12D-2        0.00000   0.00000   0.00001   0.00000   0.00000
 198       13F 0       -0.00006   0.00000  -0.00002   0.00013   0.00027
 199       13F+1        0.00000   0.00000   0.00000   0.00000   0.00000
 200       13F-1        0.00000   0.00000   0.00000   0.00000   0.00000
 201       13F+2        0.00000   0.00000   0.00000   0.00000   0.00000
 202       13F-2        0.00000   0.00000   0.00000   0.00000   0.00000
 203       13F+3        0.00000   0.00000   0.00000   0.00000   0.00000
 204       13F-3        0.00001   0.00000   0.00001   0.00002   0.00003
 205       14F 0        0.00020   0.00000  -0.00040  -0.00006   0.00063
 206       14F+1        0.00000   0.00000   0.00000   0.00000   0.00000
 207       14F-1        0.00000   0.00000   0.00000   0.00000   0.00000
 208       14F+2        0.00000   0.00000   0.00000   0.00000   0.00000
 209       14F-2        0.00000   0.00000   0.00000   0.00000   0.00000
 210       14F+3        0.00000   0.00000   0.00000   0.00000   0.00000
 211       14F-3       -0.00001   0.00000  -0.00007  -0.00006  -0.00009
                          11        12        13        14        15
     Eigenvalues --     1.96437   1.96436   1.95927   1.95920   1.94911
   1 1   C  1S         -0.00025   0.00025  -0.00028   0.00029   0.00034
   2        2S          0.00071  -0.00072   0.00081  -0.00083  -0.00098
   3        3S          0.00017  -0.00017   0.00019  -0.00019  -0.00024
   4        4S          0.00058  -0.00057   0.00066  -0.00062  -0.00174
   5        5S          0.00005  -0.00004   0.00021  -0.00020  -0.00024
   6        6PX        -0.07048   0.06788  -0.16512   0.16160  -0.04885
   7        6PY         0.06905   0.06928   0.16118   0.16554   0.04690
   8        6PZ        -0.00006   0.00000  -0.00008  -0.00006  -0.00034
   9        7PX        -0.09442   0.09094  -0.21885   0.21421  -0.06792
  10        7PY         0.09251   0.09282   0.21363   0.21943   0.06520
  11        7PZ        -0.00008   0.00000  -0.00011  -0.00008  -0.00048
  12        8PX        -0.06892   0.06678  -0.16872   0.16558  -0.05215
  13        8PY         0.06752   0.06815   0.16469   0.16961   0.05005
  14        8PZ        -0.00004  -0.00002  -0.00013  -0.00001  -0.00049
  15        9PX         0.00162  -0.00148  -0.01347   0.01332  -0.00880
  16        9PY        -0.00159  -0.00152   0.01315   0.01365   0.00844
  17        9PZ         0.00000   0.00000  -0.00001   0.00000   0.00000
  18       10D 0        0.00000   0.00001   0.00001   0.00000   0.00007
  19       10D+1        0.00194  -0.00189   0.00092  -0.00089   0.00269
  20       10D-1       -0.00190  -0.00192  -0.00088  -0.00090  -0.00258
  21       10D+2        0.00441   0.00440   0.01037   0.01059   0.00348
  22       10D-2       -0.00442   0.00439  -0.01043   0.01054  -0.00356
  23       11D 0       -0.00001   0.00003   0.00000  -0.00001   0.00034
  24       11D+1        0.00912  -0.00889  -0.00547   0.00532   0.01118
  25       11D-1       -0.00892  -0.00906   0.00536   0.00548  -0.01072
  26       11D+2        0.01462   0.01457   0.03171   0.03239   0.01182
  27       11D-2       -0.01465   0.01453  -0.03191   0.03221  -0.01208
  28       12D 0       -0.00011   0.00012  -0.00004   0.00004   0.00025
  29       12D+1        0.00435  -0.00428  -0.00407   0.00395  -0.00086
  30       12D-1       -0.00425  -0.00435   0.00400   0.00407   0.00083
  31       12D+2        0.01410   0.01428   0.02505   0.02584   0.00693
  32       12D-2       -0.01413   0.01425  -0.02521   0.02570  -0.00710
  33       13F 0        0.00000   0.00000   0.00000   0.00000  -0.00001
  34       13F+1       -0.00017   0.00018   0.00144  -0.00140   0.00161
  35       13F-1        0.00017   0.00019  -0.00141  -0.00143  -0.00155
  36       13F+2       -0.00045  -0.00045  -0.00008  -0.00009  -0.00023
  37       13F-2        0.00045  -0.00045   0.00008  -0.00009   0.00023
  38       13F+3        0.00001   0.00001   0.00003   0.00003   0.00001
  39       13F-3        0.00001  -0.00001   0.00003  -0.00003  -0.00001
  40       14F 0        0.00001  -0.00001   0.00000   0.00001  -0.00004
  41       14F+1       -0.00026   0.00028   0.00420  -0.00405   0.00524
  42       14F-1        0.00026   0.00028  -0.00410  -0.00414  -0.00503
  43       14F+2       -0.00273  -0.00273  -0.00009  -0.00009  -0.00225
  44       14F-2        0.00274  -0.00272   0.00010  -0.00009   0.00231
  45       14F+3        0.00005   0.00005   0.00017   0.00017   0.00001
  46       14F-3       -0.00001   0.00001   0.00000   0.00001  -0.00008
  47 2   H  1S         -0.04763  -0.04754  -0.10614  -0.10820  -0.03264
  48        2S         -0.04305  -0.04281  -0.10820  -0.11023  -0.03200
  49        3S          0.04049   0.04135   0.08309   0.08563   0.00367
  50        4S         -0.00411  -0.00407   0.01210   0.01247   0.00073
  51        5PX        -0.00145   0.00150  -0.00301   0.00317  -0.00073
  52        5PY        -0.00376  -0.00371  -0.00873  -0.00879  -0.00253
  53        5PZ         0.00002   0.00003  -0.00197  -0.00199   0.00011
  54        6PX        -0.00581   0.00555  -0.00971   0.00955  -0.00274
  55        6PY         0.00504   0.00514   0.00774   0.00814   0.00388
  56        6PZ        -0.00196  -0.00197   0.00026   0.00029  -0.00081
  57        7PX        -0.00677   0.00632  -0.00980   0.00908  -0.00207
  58        7PY         0.00994   0.00994   0.03187   0.03262   0.00678
  59        7PZ         0.00045   0.00047   0.00532   0.00541   0.00212
  60        8D 0        0.00029   0.00029   0.00095   0.00097   0.00028
  61        8D+1       -0.00001   0.00002  -0.00022   0.00022   0.00003
  62        8D-1       -0.00053  -0.00053  -0.00017  -0.00017  -0.00020
  63        8D+2        0.00044   0.00041   0.00139   0.00133   0.00038
  64        8D-2       -0.00075   0.00074  -0.00157   0.00160  -0.00042
  65        9D 0       -0.00039  -0.00038   0.00099   0.00108  -0.00013
  66        9D+1        0.00113  -0.00105  -0.00072   0.00068   0.00087
  67        9D-1       -0.00234  -0.00238   0.00241   0.00243  -0.00030
  68        9D+2       -0.00113  -0.00115  -0.00184  -0.00193  -0.00073
  69        9D-2       -0.00123   0.00111  -0.00210   0.00197  -0.00083
  70 3   H  1S          0.06577  -0.01685   0.14660  -0.03792   0.04496
  71        2S          0.05940  -0.01516   0.14933  -0.03860   0.04440
  72        3S         -0.05614   0.01472  -0.11508   0.03010  -0.00485
  73        4S          0.00565  -0.00143  -0.01676   0.00438  -0.00104
  74        5PX         0.00474  -0.00014   0.01093  -0.00055   0.00313
  75        5PY        -0.00213   0.00240  -0.00507   0.00522  -0.00152
  76        5PZ        -0.00002   0.00001   0.00271  -0.00070  -0.00020
  77        6PX        -0.00506   0.00542  -0.00772   0.00905  -0.00421
  78        6PY         0.00528   0.00579   0.00833   0.01001   0.00350
  79        6PZ         0.00271  -0.00070  -0.00037   0.00010   0.00111
  80        7PX        -0.01072   0.00753  -0.03648   0.01639  -0.00770
  81        7PY         0.00897   0.00606   0.02494   0.00564   0.00524
  82        7PZ        -0.00065   0.00017  -0.00735   0.00190  -0.00281
  83        8D 0       -0.00040   0.00010  -0.00132   0.00034  -0.00039
  84        8D+1        0.00063  -0.00015   0.00024   0.00010   0.00024
  85        8D-1       -0.00036   0.00011  -0.00005   0.00030  -0.00015
  86        8D+2        0.00053   0.00080   0.00142   0.00165   0.00038
  87        8D-2       -0.00038   0.00064  -0.00134   0.00150  -0.00036
  88        9D 0        0.00055  -0.00014  -0.00139   0.00038   0.00015
  89        9D+1        0.00259  -0.00147  -0.00276   0.00121   0.00025
  90        9D-1       -0.00195  -0.00087   0.00187   0.00042  -0.00049
  91        9D+2       -0.00041   0.00158  -0.00065   0.00276  -0.00028
  92        9D-2        0.00158   0.00045   0.00259   0.00083   0.00105
  93 4   H  1S         -0.01800   0.06423  -0.04054   0.14619  -0.01311
  94        2S         -0.01628   0.05787  -0.04135   0.14900  -0.01277
  95        3S          0.01526  -0.05569   0.03167  -0.11544   0.00153
  96        4S         -0.00156   0.00552   0.00462  -0.01682   0.00029
  97        5PX         0.00021  -0.00464   0.00078  -0.01093   0.00037
  98        5PY         0.00246  -0.00203   0.00530  -0.00494   0.00138
  99        5PZ         0.00000  -0.00003  -0.00076   0.00270   0.00003
 100        6PX        -0.00557   0.00491  -0.00915   0.00756  -0.00313
 101        6PY         0.00578   0.00528   0.00988   0.00864   0.00230
 102        6PZ        -0.00074   0.00265   0.00010  -0.00040  -0.00033
 103        7PX        -0.00772   0.01041  -0.01695   0.03636  -0.00370
 104        7PY         0.00579   0.00876   0.00491   0.02508   0.00091
 105        7PZ         0.00016  -0.00062   0.00204  -0.00737   0.00088
 106        8D 0        0.00011  -0.00039   0.00036  -0.00131   0.00011
 107        8D+1        0.00016  -0.00062  -0.00009  -0.00025   0.00009
 108        8D-1        0.00012  -0.00035   0.00030  -0.00004   0.00002
 109        8D+2        0.00080   0.00052   0.00160   0.00145   0.00042
 110        8D-2       -0.00065   0.00036  -0.00153   0.00130  -0.00042
 111        9D 0       -0.00014   0.00050   0.00038  -0.00144  -0.00005
 112        9D+1        0.00151  -0.00258  -0.00128   0.00271   0.00067
 113        9D-1       -0.00084  -0.00195   0.00037   0.00188  -0.00092
 114        9D+2        0.00160  -0.00041   0.00274  -0.00064   0.00107
 115        9D-2       -0.00042  -0.00154  -0.00075  -0.00261  -0.00028
 116 5   Cl 1S         -0.00003   0.00003  -0.00003   0.00003   0.00007
 117        2S          0.00012  -0.00013   0.00010  -0.00011  -0.00027
 118        3S         -0.00027   0.00028  -0.00022   0.00023   0.00056
 119        4S         -0.00004   0.00004  -0.00003   0.00003   0.00008
 120        5S         -0.00014   0.00014  -0.00015   0.00015   0.00043
 121        6S          0.00002  -0.00002  -0.00005   0.00005   0.00010
 122        7PX         0.00634  -0.00610   0.03100  -0.03066  -0.16132
 123        7PY        -0.00621  -0.00623  -0.03026  -0.03141   0.15487
 124        7PZ         0.00007  -0.00006   0.00012  -0.00009   0.00016
 125        8PX        -0.01502   0.01445  -0.07327   0.07245   0.36905
 126        8PY         0.01472   0.01474   0.07153   0.07421  -0.35429
 127        8PZ        -0.00016   0.00015  -0.00027   0.00022  -0.00036
 128        9PX        -0.00697   0.00670  -0.03388   0.03352   0.17827
 129        9PY         0.00683   0.00684   0.03307   0.03433  -0.17115
 130        9PZ        -0.00007   0.00006  -0.00012   0.00010  -0.00018
 131       10PX        -0.00749   0.00720  -0.03964   0.03925   0.26527
 132       10PY         0.00734   0.00735   0.03870   0.04021  -0.25466
 133       10PZ        -0.00010   0.00010  -0.00014   0.00012  -0.00042
 134       11PX        -0.00152   0.00148  -0.00240   0.00239   0.04483
 135       11PY         0.00149   0.00151   0.00235   0.00245  -0.04303
 136       11PZ        -0.00001   0.00001   0.00000   0.00000  -0.00014
 137       12D 0        0.00001  -0.00001   0.00002  -0.00001  -0.00003
 138       12D+1        0.00136  -0.00131   0.00441  -0.00433  -0.00017
 139       12D-1       -0.00133  -0.00134  -0.00431  -0.00444   0.00016
 140       12D+2        0.00008   0.00008   0.00038   0.00039   0.00017
 141       12D-2       -0.00008   0.00008  -0.00038   0.00038  -0.00017
 142       13D 0        0.00002  -0.00002   0.00003  -0.00002  -0.00005
 143       13D+1        0.00210  -0.00201   0.00783  -0.00767  -0.00051
 144       13D-1       -0.00205  -0.00205  -0.00764  -0.00786   0.00049
 145       13D+2        0.00023   0.00023   0.00045   0.00047   0.00039
 146       13D-2       -0.00023   0.00023  -0.00045   0.00046  -0.00040
 147       14D 0        0.00000   0.00000   0.00001  -0.00001   0.00001
 148       14D+1       -0.00004   0.00005  -0.00003   0.00004  -0.00243
 149       14D-1        0.00004   0.00005   0.00002   0.00004   0.00234
 150       14D+2       -0.00046  -0.00047  -0.00005  -0.00005   0.00005
 151       14D-2        0.00046  -0.00047   0.00005  -0.00005  -0.00005
 152       15F 0       -0.00001   0.00000  -0.00001   0.00000   0.00001
 153       15F+1       -0.00064   0.00061  -0.00187   0.00184   0.00102
 154       15F-1        0.00062   0.00063   0.00183   0.00188  -0.00098
 155       15F+2       -0.00008  -0.00008  -0.00024  -0.00024  -0.00007
 156       15F-2        0.00008  -0.00008   0.00024  -0.00024   0.00007
 157       15F+3        0.00000   0.00000   0.00000   0.00000   0.00000
 158       15F-3        0.00000   0.00000   0.00000   0.00000   0.00000
 159       16F 0        0.00000   0.00000   0.00000   0.00000   0.00001
 160       16F+1       -0.00043   0.00041  -0.00144   0.00140   0.00130
 161       16F-1        0.00042   0.00042   0.00140   0.00144  -0.00125
 162       16F+2        0.00001   0.00001   0.00013   0.00013  -0.00014
 163       16F-2       -0.00001   0.00001  -0.00013   0.00013   0.00014
 164       16F+3        0.00000   0.00000   0.00000   0.00000  -0.00001
 165       16F-3        0.00000   0.00000   0.00000   0.00000   0.00000
 166 6   F  1S          0.00004  -0.00004   0.00002  -0.00003  -0.00008
 167        2S         -0.00010   0.00010  -0.00007   0.00007   0.00018
 168        3S         -0.00003   0.00003  -0.00002   0.00002   0.00005
 169        4S         -0.00006   0.00006  -0.00008   0.00008   0.00009
 170        5S          0.00003  -0.00003  -0.00003   0.00003  -0.00003
 171        6PX        -0.23687   0.23292   0.11676  -0.11226   0.01629
 172        6PY         0.23208   0.23773  -0.11399  -0.11500  -0.01564
 173        6PZ         0.00021  -0.00043   0.00040  -0.00032   0.00255
 174        7PX        -0.28255   0.27785   0.13845  -0.13310   0.01928
 175        7PY         0.27684   0.28358  -0.13517  -0.13636  -0.01851
 176        7PZ         0.00026  -0.00052   0.00048  -0.00038   0.00304
 177        8PX        -0.22843   0.22464   0.11643  -0.11200   0.01651
 178        8PY         0.22381   0.22927  -0.11367  -0.11474  -0.01585
 179        8PZ         0.00021  -0.00042   0.00037  -0.00029   0.00249
 180        9PX        -0.07181   0.07061   0.04101  -0.03954   0.00803
 181        9PY         0.07036   0.07207  -0.04004  -0.04051  -0.00771
 182        9PZ         0.00006  -0.00013   0.00010  -0.00007   0.00076
 183       10D 0        0.00000   0.00000   0.00000   0.00000   0.00001
 184       10D+1       -0.00043   0.00042  -0.00006   0.00007  -0.00009
 185       10D-1        0.00042   0.00043   0.00006   0.00007   0.00008
 186       10D+2        0.00002   0.00002   0.00003   0.00003   0.00001
 187       10D-2       -0.00002   0.00002  -0.00003   0.00003  -0.00001
 188       11D 0        0.00001  -0.00001   0.00001  -0.00001   0.00001
 189       11D+1       -0.00173   0.00169  -0.00087   0.00086  -0.00043
 190       11D-1        0.00170   0.00173   0.00084   0.00088   0.00041
 191       11D+2        0.00003   0.00004   0.00018   0.00018   0.00012
 192       11D-2       -0.00004   0.00004  -0.00018   0.00018  -0.00012
 193       12D 0        0.00001  -0.00002   0.00001  -0.00001   0.00007
 194       12D+1       -0.00423   0.00416   0.00256  -0.00247  -0.00023
 195       12D-1        0.00415   0.00424  -0.00250  -0.00253   0.00022
 196       12D+2        0.00002   0.00003  -0.00020  -0.00020  -0.00025
 197       12D-2       -0.00002   0.00003   0.00020  -0.00020   0.00026
 198       13F 0        0.00000   0.00000   0.00000   0.00000   0.00000
 199       13F+1       -0.00016   0.00015  -0.00018   0.00018  -0.00004
 200       13F-1        0.00015   0.00016   0.00018   0.00018   0.00004
 201       13F+2        0.00004   0.00004   0.00008   0.00008   0.00004
 202       13F-2       -0.00004   0.00004  -0.00008   0.00008  -0.00005
 203       13F+3        0.00000   0.00000   0.00000   0.00000   0.00000
 204       13F-3        0.00000   0.00000   0.00000   0.00000   0.00000
 205       14F 0        0.00000  -0.00001   0.00000   0.00000   0.00001
 206       14F+1       -0.00104   0.00102   0.00063  -0.00060  -0.00001
 207       14F-1        0.00101   0.00104  -0.00061  -0.00062   0.00001
 208       14F+2       -0.00009  -0.00009  -0.00017  -0.00017  -0.00011
 209       14F-2        0.00009  -0.00009   0.00017  -0.00017   0.00011
 210       14F+3        0.00000   0.00000   0.00000   0.00000   0.00000
 211       14F-3        0.00000   0.00000   0.00000   0.00000   0.00000
                          16        17        18        19        20
     Eigenvalues --     1.94910   1.94879   1.93535   0.06018   0.02494
   1 1   C  1S         -0.00037   0.05334  -0.01580  -0.02406   0.00004
   2        2S          0.00105  -0.15185   0.05098   0.06679  -0.00014
   3        3S          0.00025  -0.03584   0.01676   0.02431  -0.00009
   4        4S          0.00190  -0.29232   0.08713  -0.22160   0.00108
   5        5S          0.00027  -0.05765   0.03920  -0.02903   0.00016
   6        6PX         0.04730   0.00095  -0.00007   0.00007   0.10750
   7        6PY         0.04927   0.00003  -0.00006   0.00012  -0.10983
   8        6PZ         0.00032  -0.04569  -0.12871   0.27937  -0.00004
   9        7PX         0.06571   0.00134  -0.00014   0.00017   0.19947
  10        7PY         0.06845   0.00004  -0.00008   0.00020  -0.20380
  11        7PZ         0.00046  -0.06474  -0.18059   0.44329  -0.00001
  12        8PX         0.05066   0.00076  -0.00012  -0.00020   0.09188
  13        8PY         0.05276   0.00003  -0.00004   0.00008  -0.09385
  14        8PZ         0.00048  -0.06421  -0.07658   0.20175  -0.00016
  15        9PX         0.00854   0.00006   0.00003   0.00004   0.02078
  16        9PY         0.00889   0.00001   0.00000   0.00000  -0.02121
  17        9PZ         0.00000  -0.00123  -0.00166  -0.00006   0.00002
  18       10D 0       -0.00007   0.00935  -0.01106  -0.00881  -0.00001
  19       10D+1       -0.00259  -0.00004  -0.00001   0.00001   0.01787
  20       10D-1       -0.00269   0.00000  -0.00001  -0.00001  -0.01825
  21       10D+2        0.00363   0.00000   0.00000   0.00000  -0.00287
  22       10D-2        0.00355   0.00013  -0.00006   0.00002   0.00278
  23       11D 0       -0.00035   0.04984  -0.04571   0.06670  -0.00012
  24       11D+1       -0.01071  -0.00020  -0.00001   0.00008   0.04199
  25       11D-1       -0.01115   0.00003  -0.00003   0.00005  -0.04291
  26       11D+2        0.01234   0.00001   0.00000   0.00000  -0.04996
  27       11D-2        0.01206   0.00059  -0.00023   0.00043   0.04804
  28       12D 0       -0.00027   0.02816  -0.00380  -0.01696  -0.00013
  29       12D+1        0.00081   0.00011  -0.00019   0.00018   0.01301
  30       12D-1        0.00085   0.00002   0.00000  -0.00001  -0.01331
  31       12D+2        0.00736   0.00000   0.00000  -0.00001  -0.01008
  32       12D-2        0.00720   0.00060  -0.00024   0.00062   0.00967
  33       13F 0        0.00002  -0.00208  -0.00328  -0.00586  -0.00002
  34       13F+1       -0.00155  -0.00002   0.00000  -0.00001  -0.00669
  35       13F-1       -0.00161   0.00000   0.00000  -0.00001   0.00683
  36       13F+2       -0.00024   0.00000   0.00000   0.00000  -0.00224
  37       13F-2       -0.00024   0.00000   0.00001  -0.00008   0.00215
  38       13F+3        0.00001   0.00003  -0.00001   0.00000  -0.00005
  39       13F-3        0.00002  -0.00308   0.00115  -0.00053  -0.00001
  40       14F 0        0.00005  -0.00547  -0.00087   0.01161  -0.00007
  41       14F+1       -0.00502  -0.00002  -0.00001  -0.00002  -0.00177
  42       14F-1       -0.00523  -0.00001   0.00000   0.00001   0.00181
  43       14F+2       -0.00233   0.00001  -0.00001   0.00002   0.00149
  44       14F-2       -0.00228  -0.00011   0.00002   0.00013  -0.00143
  45       14F+3        0.00001   0.00014  -0.00008   0.00034  -0.00026
  46       14F-3        0.00009  -0.01509   0.00917  -0.03770   0.00012
  47 2   H  1S         -0.03352  -0.03383   0.02885  -0.00683  -0.02857
  48        2S         -0.03317  -0.00315   0.02282   0.07999  -0.18349
  49        3S          0.00389   0.02199   0.02032   0.06875  -0.11745
  50        4S          0.00081   0.00012   0.00193   0.00722  -0.05180
  51        5PX         0.00077   0.00003  -0.00002   0.00004   0.00184
  52        5PY        -0.00257  -0.00215   0.00248  -0.00200   0.00632
  53        5PZ         0.00015  -0.00267  -0.00321   0.01429   0.00879
  54        6PX         0.00255  -0.00004   0.00006  -0.00042   0.00554
  55        6PY         0.00405   0.00553  -0.00154   0.00982  -0.04189
  56        6PZ        -0.00085  -0.00100  -0.01029   0.02820   0.00416
  57        7PX         0.00191   0.00023  -0.00015   0.00024  -0.00116
  58        7PY         0.00698   0.01111  -0.00164   0.01271  -0.03627
  59        7PZ         0.00204   0.00807   0.00317  -0.01401  -0.00360
  60        8D 0        0.00029   0.00014  -0.00085   0.00060  -0.00183
  61        8D+1       -0.00002   0.00000   0.00002  -0.00009   0.00121
  62        8D-1       -0.00021  -0.00020  -0.00171   0.00673   0.00288
  63        8D+2        0.00036   0.00052  -0.00061   0.00186  -0.00190
  64        8D-2        0.00043   0.00001  -0.00001   0.00003   0.00140
  65        9D 0       -0.00009   0.00083  -0.00282   0.00597   0.00236
  66        9D+1       -0.00080  -0.00009   0.00002   0.00012   0.00322
  67        9D-1       -0.00035   0.00202  -0.00055  -0.00588  -0.01108
  68        9D+2       -0.00080   0.00108   0.00035  -0.00113   0.00667
  69        9D-2        0.00076   0.00006  -0.00002  -0.00002   0.00096
  70 3   H  1S         -0.01109  -0.03444   0.02897  -0.00686   0.03850
  71        2S         -0.01108  -0.00364   0.02290   0.08024   0.24596
  72        3S          0.00123   0.02231   0.02024   0.06919   0.15690
  73        4S          0.00028   0.00003   0.00199   0.00730   0.06950
  74        5PX        -0.00022  -0.00189   0.00216  -0.00174  -0.00764
  75        5PY         0.00132   0.00110  -0.00125   0.00102   0.00355
  76        5PZ         0.00006  -0.00267  -0.00321   0.01429  -0.01176
  77        6PX         0.00300   0.00491  -0.00135   0.00847   0.04775
  78        6PY         0.00252  -0.00283   0.00081  -0.00507  -0.02990
  79        6PZ        -0.00028  -0.00107  -0.01029   0.02833  -0.00555
  80        7PX         0.00339   0.00982  -0.00149   0.01102   0.04228
  81        7PY         0.00130  -0.00547   0.00077  -0.00617  -0.02375
  82        7PZ         0.00064   0.00817   0.00306  -0.01390   0.00490
  83        8D 0        0.00010   0.00015  -0.00085   0.00060   0.00245
  84        8D+1       -0.00007  -0.00018  -0.00148   0.00582  -0.00357
  85        8D-1        0.00001   0.00010   0.00085  -0.00338   0.00151
  86        8D+2        0.00045  -0.00026   0.00030  -0.00093  -0.00172
  87        8D-2        0.00040   0.00046  -0.00052   0.00161   0.00187
  88        9D 0       -0.00002   0.00084  -0.00283   0.00599  -0.00316
  89        9D+1       -0.00068   0.00172  -0.00046  -0.00507   0.01230
  90        9D-1       -0.00093  -0.00103   0.00027   0.00297  -0.00848
  91        9D+2        0.00110  -0.00050  -0.00019   0.00058   0.00419
  92        9D-2        0.00032   0.00091   0.00031  -0.00101  -0.00794
  93 4   H  1S          0.04546  -0.03312   0.02872  -0.00680  -0.00972
  94        2S          0.04461  -0.00254   0.02274   0.07973  -0.06289
  95        3S         -0.00550   0.02166   0.02040   0.06836  -0.04043
  96        4S         -0.00107   0.00020   0.00187   0.00715  -0.01779
  97        5PX        -0.00317   0.00182  -0.00215   0.00175  -0.00056
  98        5PY        -0.00149   0.00104  -0.00124   0.00100  -0.00338
  99        5PZ        -0.00015  -0.00268  -0.00321   0.01430   0.00304
 100        6PX         0.00421  -0.00466   0.00130  -0.00851   0.01601
 101        6PY         0.00360  -0.00269   0.00072  -0.00471   0.00098
 102        6PZ         0.00115  -0.00093  -0.01029   0.02808   0.00142
 103        7PX         0.00785  -0.00939   0.00134  -0.01100   0.00980
 104        7PY         0.00542  -0.00561   0.00088  -0.00658   0.00799
 105        7PZ        -0.00290   0.00799   0.00327  -0.01410  -0.00122
 106        8D 0       -0.00039   0.00014  -0.00085   0.00061  -0.00063
 107        8D+1       -0.00024   0.00017   0.00148  -0.00583   0.00001
 108        8D-1       -0.00015   0.00010   0.00085  -0.00335  -0.00200
 109        8D+2        0.00040  -0.00026   0.00030  -0.00093  -0.00141
 110        8D-2        0.00036  -0.00045   0.00053  -0.00162   0.00157
 111        9D 0        0.00014   0.00082  -0.00282   0.00594   0.00080
 112        9D+1       -0.00021  -0.00178   0.00048   0.00512   0.00550
 113        9D-1       -0.00048  -0.00099   0.00026   0.00292  -0.00188
 114        9D+2       -0.00026  -0.00058  -0.00016   0.00055  -0.00207
 115        9D-2       -0.00104  -0.00097  -0.00030   0.00095  -0.00144
 116 5   Cl 1S         -0.00008   0.01021   0.00050  -0.01679   0.00000
 117        2S          0.00029  -0.03897  -0.00167   0.05630  -0.00001
 118        3S         -0.00059   0.08054   0.01125  -0.15674   0.00002
 119        4S         -0.00009   0.01243   0.00452  -0.03986   0.00001
 120        5S         -0.00046   0.06906   0.01221  -0.04600   0.00013
 121        6S         -0.00011   0.02044  -0.01255   0.01584   0.00004
 122        7PX         0.15479   0.00232  -0.00002  -0.00001   0.01471
 123        7PY         0.16126   0.00013  -0.00009  -0.00007  -0.01502
 124        7PZ        -0.00031   0.02662  -0.21013  -0.16340   0.00005
 125        8PX        -0.35412  -0.00532   0.00005   0.00003  -0.02293
 126        8PY        -0.36891  -0.00031   0.00020   0.00016   0.02342
 127        8PZ         0.00070  -0.06217   0.46463   0.36065  -0.00014
 128        9PX        -0.17106  -0.00257   0.00003   0.00001  -0.02444
 129        9PY        -0.17821  -0.00015   0.00010   0.00009   0.02496
[...]
  78        6PY        -0.34252   0.90525   1.48955   0.33593   0.60050
  79        6PZ        -0.33741  -0.00776  -0.01794  -0.16873  -0.04375
  80        7PX         0.65136   7.31819  -6.61204  -1.70899   0.00175
  81        7PY        -0.87875   7.56229   7.07469   0.93524   3.87477
  82        7PZ        -1.68679   0.82014  -3.19042  -0.00558  -0.20861
  83        8D 0       -0.03669  -0.00282   0.00982   0.02374   0.00479
  84        8D+1        0.00948   0.02628  -0.01493   0.00804   0.00060
  85        8D-1       -0.00692   0.03210   0.02164  -0.00502  -0.00686
  86        8D+2        0.06678  -0.09722  -0.03067   0.02544  -0.02983
  87        8D-2       -0.10898  -0.06152  -0.01039  -0.04454  -0.00629
  88        9D 0       -0.49693  -0.13536   0.46892  -0.15090   0.06332
  89        9D+1       -0.22597  -0.15199  -0.21094  -0.03921  -0.01515
  90        9D-1        0.14444  -0.34550  -0.00043   0.02458   0.11239
  91        9D+2       -0.19948   1.72117  -0.23060  -0.36963   0.44112
  92        9D-2        0.20003   0.58784   1.37705   0.61578   0.34608
  93 4   H  1S         -0.03758   0.00962  -0.00230  -0.00876  -0.02602
  94        2S          0.41550  -3.37247   0.80663  -0.53074   2.12623
  95        3S          8.59659 -26.89695   6.75610  -3.36968  25.15170
  96        4S          1.52182   1.87240  -0.51790  -2.04025  10.76840
  97        5PX        -0.02431  -0.07792   0.07433  -0.08103   0.10415
  98        5PY        -0.01686  -0.07637  -0.07410  -0.04792   0.04438
  99        5PZ         0.05944  -0.00741   0.00085   0.02997  -0.00965
 100        6PX        -0.65457   1.83004  -1.21873   0.61281  -1.16861
 101        6PY        -0.34801   1.48538   0.92556   0.36544  -0.51567
 102        6PZ        -0.32525  -0.04560   0.01634  -0.15842   0.15673
 103        7PX        -1.41228   6.69004  -7.19985   1.75076  -6.69354
 104        7PY        -0.56859   6.93343   7.61821   1.06716  -2.81323
 105        7PZ        -1.32245  -3.28598   0.87006   0.04496   0.80875
 106        8D 0       -0.03785   0.01053  -0.00348   0.02634  -0.01800
 107        8D+1       -0.01107   0.01543  -0.02637  -0.00861   0.01386
 108        8D-1       -0.00585   0.02147   0.03273  -0.00451   0.00643
 109        8D+2        0.06276  -0.02886  -0.10054   0.02353   0.01339
 110        8D-2        0.11071   0.01068   0.05932   0.04022   0.03800
 111        9D 0       -0.49928   0.45540  -0.12275  -0.14588  -0.26012
 112        9D+1        0.21335   0.22512   0.14206   0.03606  -0.24085
 113        9D-1        0.11700   0.01776  -0.35636   0.01792  -0.11177
 114        9D+2       -0.06801  -0.25855   1.70273  -0.34656   0.26107
 115        9D-2       -0.18631  -1.37760  -0.58188  -0.62538   0.15002
 116 5   Cl 1S          0.02030   0.00077  -0.00042   0.01177   0.00015
 117        2S          0.28082   0.01037  -0.00560   0.16371   0.00238
 118        3S          0.78297   0.02945  -0.01619   0.45998   0.00610
 119        4S         -0.04219  -0.00078   0.00001  -0.01469  -0.00105
 120        5S         -4.35819  -0.17187   0.09810  -3.02550  -0.03795
 121        6S         -9.82158  -0.40885   0.24731 -13.25318  -0.07332
 122        7PX        -0.00008  -0.00054   0.00057  -0.00015   0.00212
 123        7PY         0.00000  -0.00053  -0.00058  -0.00001   0.00216
 124        7PZ        -0.00457  -0.00042   0.00035  -0.02274  -0.00010
 125        8PX        -0.00112  -0.01255   0.01337  -0.00256   0.04214
 126        8PY         0.00008  -0.01234  -0.01354  -0.00017   0.04290
 127        8PZ        -0.06462  -0.00563   0.00463  -0.31758  -0.00113
 128        9PX         0.00025   0.00270  -0.00280   0.00054  -0.00714
 129        9PY        -0.00003   0.00266   0.00283   0.00004  -0.00727
 130        9PZ         0.00185   0.00094  -0.00092   0.07963   0.00034
 131       10PX         0.01845   0.04367  -0.04972   0.01551  -0.29821
 132       10PY         0.00315   0.04255   0.05000   0.00228  -0.30364
 133       10PZ         5.91660   0.24643  -0.14788   5.08202   0.03665
 134       11PX        -0.03904   0.80913  -0.81487  -0.00181   0.16927
 135       11PY        -0.01173   0.79819   0.82649   0.00173   0.17243
 136       11PZ         0.79396   0.03217  -0.02061   3.36074   0.01725
 137       12D 0        0.06815   0.00278  -0.00160   0.00181  -0.00002
 138       12D+1        0.00130  -0.02163   0.02185  -0.00003   0.00273
 139       12D-1        0.00039  -0.02134  -0.02216  -0.00001   0.00276
 140       12D+2       -0.00013   0.00538   0.00550   0.00001  -0.00868
 141       12D-2       -0.00154   0.00549  -0.00528  -0.00022  -0.00870
 142       13D 0       -0.38845  -0.01528   0.00867  -0.07059  -0.00025
 143       13D+1       -0.00488   0.07949  -0.08038   0.00071  -0.01862
 144       13D-1       -0.00155   0.07843   0.08155   0.00000  -0.01890
 145       13D+2        0.00033  -0.01223  -0.01249  -0.00002   0.03127
 146       13D-2        0.00430  -0.01245   0.01196   0.00062   0.03130
 147       14D 0       -1.39472  -0.06023   0.03749  -1.24233  -0.00737
 148       14D+1        0.00163  -0.21312   0.21937  -0.01008   0.23054
 149       14D-1        0.00157  -0.20997  -0.22228  -0.00110   0.23454
 150       14D+2       -0.00061   0.04420   0.04737   0.00003  -0.14305
 151       14D-2       -0.00300   0.04540  -0.04564  -0.00074  -0.14297
 152       15F 0       -0.04305  -0.00199   0.00127   0.00122   0.00006
 153       15F+1       -0.00003  -0.00316   0.00333  -0.00076   0.01307
 154       15F-1        0.00000  -0.00311  -0.00337  -0.00001   0.01329
 155       15F+2       -0.00007   0.00671   0.00698  -0.00001  -0.00729
 156       15F-2       -0.00015   0.00692  -0.00675  -0.00014  -0.00728
 157       15F+3        0.00009  -0.00016  -0.00018  -0.00021   0.00021
 158       15F-3       -0.00932  -0.00070   0.00054   0.02293   0.00009
 159       16F 0        0.23347   0.01038  -0.00655   0.08911   0.00001
 160       16F+1        0.00078   0.01019  -0.01115   0.00250  -0.04458
 161       16F-1        0.00018   0.00998   0.01124   0.00012  -0.04535
 162       16F+2        0.00040  -0.03169  -0.03320   0.00002   0.03003
 163       16F-2        0.00100  -0.03270   0.03212   0.00030   0.02999
 164       16F+3       -0.00018   0.00031   0.00032   0.00039  -0.00048
 165       16F-3        0.01936   0.00156  -0.00125  -0.04284  -0.00014
 166 6   F  1S          0.04016   0.00137  -0.00067  -0.02262   0.00025
 167        2S          0.14127   0.00456  -0.00208  -0.08589   0.00109
 168        3S         -0.07200  -0.00267   0.00143   0.03665  -0.00022
 169        4S         -0.37910  -0.01153   0.00474  -0.02071  -0.00677
 170        5S         -0.05884   0.02097  -0.02081  -5.93498  -0.04055
 171        6PX        -0.00035   0.00511  -0.00519   0.00003  -0.00121
 172        6PY        -0.00008   0.00504   0.00527   0.00000  -0.00123
 173        6PZ         0.00538   0.00037  -0.00028   0.00222   0.00000
 174        7PX         0.00158  -0.02636   0.02687  -0.00007   0.00440
 175        7PY         0.00038  -0.02601  -0.02725  -0.00001   0.00448
 176        7PZ        -0.06363  -0.00334   0.00228   0.00264   0.00002
 177        8PX        -0.00937   0.18451  -0.18758  -0.00100  -0.00145
 178        8PY        -0.00247   0.18197   0.19019  -0.00005  -0.00143
 179        8PZ         0.62867   0.03166  -0.02126  -0.24682  -0.00324
 180        9PX        -0.01827   0.59165  -0.59581  -0.00091   0.15897
 181        9PY        -0.00876   0.58330   0.60413  -0.00102   0.16182
 182        9PZ        -0.86559  -0.03559   0.02099  -2.49190  -0.01604
 183       10D 0        0.01137   0.00029  -0.00011  -0.00797  -0.00002
 184       10D+1       -0.00017   0.01038  -0.01053   0.00025  -0.00161
 185       10D-1       -0.00013   0.01022   0.01068   0.00000  -0.00165
 186       10D+2        0.00006  -0.00340  -0.00358   0.00000  -0.00204
 187       10D-2        0.00034  -0.00350   0.00345   0.00004  -0.00205
 188       11D 0       -0.04203  -0.00117   0.00050   0.01569  -0.00005
 189       11D+1        0.00055  -0.03333   0.03388  -0.00074   0.00289
 190       11D-1        0.00043  -0.03284  -0.03433   0.00000   0.00295
 191       11D+2       -0.00022   0.01159   0.01206   0.00000   0.00721
 192       11D-2       -0.00144   0.01190  -0.01163  -0.00024   0.00722
 193       12D 0        0.41636   0.01653  -0.00966  -0.01115   0.00038
 194       12D+1       -0.00160   0.09618  -0.09914   0.00092   0.02153
 195       12D-1       -0.00096   0.09470   0.10040   0.00003   0.02191
 196       12D+2        0.00084  -0.04369  -0.04466  -0.00002  -0.01355
 197       12D-2        0.00580  -0.04487   0.04306   0.00072  -0.01354
 198       13F 0       -0.02737  -0.00115   0.00067  -0.00760  -0.00007
 199       13F+1       -0.00044   0.01328  -0.01313  -0.00002  -0.00566
 200       13F-1       -0.00022   0.01311   0.01333  -0.00001  -0.00576
 201       13F+2       -0.00011   0.00635   0.00650   0.00000  -0.00196
 202       13F-2       -0.00038   0.00657  -0.00630   0.00022  -0.00197
 203       13F+3       -0.00012   0.00031   0.00033   0.00001   0.00004
 204       13F-3        0.01272   0.00022  -0.00001  -0.00137  -0.00014
 205       14F 0        0.06816   0.00277  -0.00157   0.01184   0.00013
 206       14F+1        0.00133  -0.02878   0.02825   0.00002   0.01253
 207       14F-1        0.00052  -0.02844  -0.02871   0.00001   0.01276
 208       14F+2        0.00030  -0.01768  -0.01800  -0.00001   0.00469
 209       14F-2        0.00101  -0.01827   0.01744  -0.00035   0.00471
 210       14F+3        0.00016  -0.00051  -0.00054  -0.00002  -0.00007
 211       14F-3       -0.01715  -0.00025  -0.00004   0.00259   0.00026
                         211
     Eigenvalues --     0.00000
   1 1   C  1S         -0.00109
   2        2S         -0.00620
   3        3S         -0.00138
   4        4S         -0.13467
   5        5S         -0.07510
   6        6PX        -0.00554
   7        6PY         0.00544
   8        6PZ        -0.00005
   9        7PX         1.10045
  10        7PY        -1.08150
  11        7PZ         0.00171
  12        8PX        12.39311
  13        8PY       -12.17809
  14        8PZ        -0.00802
  15        9PX         5.64890
  16        9PY        -5.55154
  17        9PZ        -0.01139
  18       10D 0       -0.00023
  19       10D+1       -0.00137
  20       10D-1        0.00134
  21       10D+2       -0.01541
  22       10D-2        0.01537
  23       11D 0       -0.00008
  24       11D+1       -0.14742
  25       11D-1        0.14474
  26       11D+2       -0.29050
  27       11D-2        0.29073
  28       12D 0       -0.07580
  29       12D+1       -0.91877
  30       12D-1        0.90395
  31       12D+2        0.44111
  32       12D-2       -0.43899
  33       13F 0        0.00001
  34       13F+1        0.02737
  35       13F-1       -0.02690
  36       13F+2       -0.00666
  37       13F-2        0.00670
  38       13F+3        0.00062
  39       13F-3        0.00117
  40       14F 0        0.00123
  41       14F+1       -0.29075
  42       14F-1        0.28577
  43       14F+2        0.05440
  44       14F-2       -0.05481
  45       14F+3       -0.00131
  46       14F-3       -0.01243
  47 2   H  1S          0.01950
  48        2S         -1.56662
  49        3S        -18.17354
  50        4S         -7.84777
  51        5PX         0.03610
  52        5PY         0.08211
  53        5PZ         0.00735
  54        6PX        -0.35740
  55        6PY        -0.93139
  56        6PZ        -0.11728
  57        7PX        -2.46403
  58        7PY        -5.20378
  59        7PZ        -0.56913
  60        8D 0        0.01317
  61        8D+1        0.00409
  62        8D-1        0.01077
  63        8D+2        0.02899
  64        8D-2        0.02146
  65        9D 0        0.19118
  66        9D+1       -0.06501
  67        9D-1       -0.19329
  68        9D+2        0.19097
  69        9D-2       -0.40213
  70 3   H  1S         -0.02557
  71        2S          2.16696
  72        3S         25.02695
  73        4S         10.81519
  74        5PX        -0.10528
  75        5PY         0.04552
  76        5PZ        -0.01076
  77        6PX         1.17760
  78        6PY        -0.53003
  79        6PZ         0.16640
  80        7PX         6.69637
  81        7PY        -2.82570
  82        7PZ         0.77727
  83        8D 0       -0.01830
  84        8D+1       -0.01343
  85        8D-1        0.00593
  86        8D+2        0.01274
  87        8D-2       -0.03749
  88        9D 0       -0.25407
  89        9D+1        0.24144
  90        9D-1       -0.11151
  91        9D+2        0.26179
  92        9D-2       -0.16300
  93 4   H  1S          0.00766
  94        2S         -0.58647
  95        3S         -6.83313
  96        4S         -2.94642
  97        5PX        -0.00141
  98        5PY        -0.05826
  99        5PZ         0.00266
 100        6PX         0.05084
 101        6PY         0.60566
 102        6PZ        -0.04353
 103        7PX        -0.02719
 104        7PY         3.90139
 105        7PZ        -0.22022
 106        8D 0        0.00490
 107        8D+1       -0.00083
 108        8D-1       -0.00668
 109        8D+2       -0.02947
 110        8D-2        0.00380
 111        9D 0        0.07398
 112        9D+1        0.01851
 113        9D-1        0.11403
 114        9D+2        0.44309
 115        9D-2       -0.32972
 116 5   Cl 1S         -0.00015
 117        2S         -0.00230
 118        3S         -0.00590
 119        4S          0.00103
 120        5S          0.03684
 121        6S          0.06987
 122        7PX        -0.00208
 123        7PY         0.00205
 124        7PZ         0.00009
 125        8PX        -0.04156
 126        8PY         0.04085
 127        8PZ         0.00104
 128        9PX         0.00698
 129        9PY        -0.00686
 130        9PZ        -0.00033
 131       10PX         0.29836
 132       10PY        -0.29334
 133       10PZ        -0.03493
 134       11PX        -0.18269
 135       11PY         0.17966
 136       11PZ        -0.01669
 137       12D 0        0.00002
 138       12D+1       -0.00239
 139       12D-1        0.00234
 140       12D+2       -0.00850
 141       12D-2        0.00850
 142       13D 0        0.00023
 143       13D+1        0.01727
 144       13D-1       -0.01692
 145       13D+2        0.03077
 146       13D-2       -0.03076
 147       14D 0        0.00673
 148       14D+1       -0.22785
 149       14D-1        0.22381
 150       14D+2       -0.14236
 151       14D-2        0.14209
 152       15F 0       -0.00008
 153       15F+1       -0.01301
 154       15F-1        0.01278
 155       15F+2       -0.00738
 156       15F-2        0.00735
 157       15F+3        0.00020
 158       15F-3       -0.00009
 159       16F 0        0.00010
 160       16F+1        0.04424
 161       16F-1       -0.04345
 162       16F+2        0.03003
 163       16F-2       -0.02995
 164       16F+3       -0.00043
 165       16F-3        0.00015
 166 6   F  1S         -0.00025
 167        2S         -0.00108
 168        3S          0.00022
 169        4S          0.00666
 170        5S          0.03900
 171        6PX         0.00119
 172        6PY        -0.00117
 173        6PZ         0.00000
 174        7PX        -0.00426
 175        7PY         0.00418
 176        7PZ        -0.00003
 177        8PX         0.00027
 178        8PY        -0.00023
 179        8PZ         0.00316
 180        9PX        -0.16691
 181        9PY         0.16407
 182        9PZ         0.01531
 183       10D 0        0.00002
 184       10D+1        0.00147
 185       10D-1       -0.00145
 186       10D+2       -0.00198
 187       10D-2        0.00198
 188       11D 0        0.00004
 189       11D+1       -0.00244
 190       11D-1        0.00240
 191       11D+2        0.00704
 192       11D-2       -0.00704
 193       12D 0       -0.00038
 194       12D+1       -0.02337
 195       12D-1        0.02295
 196       12D+2       -0.01344
 197       12D-2        0.01341
 198       13F 0        0.00008
 199       13F+1        0.00574
 200       13F-1       -0.00564
 201       13F+2       -0.00180
 202       13F-2        0.00181
 203       13F+3        0.00004
 204       13F-3        0.00014
 205       14F 0       -0.00016
 206       14F+1       -0.01273
 207       14F-1        0.01251
 208       14F+2        0.00439
 209       14F-2       -0.00441
 210       14F+3       -0.00007
 211       14F-3       -0.00025
          Condensed to atoms (all electrons):
              1          2          3          4          5          6
     1  C    7.012101  -0.009204  -0.009297  -0.009235  -0.050905  -0.099843
     2  H   -0.009204   0.547064   0.019217   0.020912  -0.018747   0.004333
     3  H   -0.009297   0.019217   0.546978   0.020073  -0.018833   0.004462
     4  H   -0.009235   0.020912   0.020073   0.547196  -0.018648   0.004219
     5  Cl  -0.050905  -0.018747  -0.018833  -0.018648  17.709258   0.026401
     6  F   -0.099843   0.004333   0.004462   0.004219   0.026401   9.907593
 Mulliken atomic charges:
              1
     1  C   -0.833618
     2  H    0.436426
     3  H    0.437400
     4  H    0.435483
     5  Cl  -0.628526
     6  F   -0.847165
 Sum of Mulliken atomic charges =  -1.00000
 Mulliken charges with hydrogens summed into heavy atoms:
              1
     1  C    0.475690
     5  Cl  -0.628526
     6  F   -0.847165
 Sum of Mulliken charges with hydrogens summed into heavy atoms =  -1.00000
 Electronic spatial extent (au):  <R**2>=            490.3135
 Charge=             -1.0000 electrons
 Dipole moment (field-independent basis, Debye):
    X=              0.0027    Y=              0.0007    Z=              4.0661  Tot=              4.0661
 Quadrupole moment (field-independent basis, Debye-Ang):
   XX=            -28.1813   YY=            -28.1815   ZZ=            -62.8201
   XY=             -0.0175   XZ=             -0.0083   YZ=             -0.0145
 Traceless Quadrupole moment (field-independent basis, Debye-Ang):
   XX=             11.5464   YY=             11.5461   ZZ=            -23.0925
   XY=             -0.0175   XZ=             -0.0083   YZ=             -0.0145
 Octapole moment (field-independent basis, Debye-Ang**2):
  XXX=             -0.0513  YYY=             -0.9745  ZZZ=             49.6869  XYY=             -0.0056
  XXY=              0.9404  XXZ=             -4.2365  XZZ=             -0.0146  YZZ=              0.0111
  YYZ=             -4.2355  XYZ=              0.0108
 Hexadecapole moment (field-independent basis, Debye-Ang**3):
 XXXX=            -41.2688 YYYY=            -41.2689 ZZZZ=           -761.6375 XXXY=              0.0120
 XXXZ=             -0.0355 YYYX=             -0.0073 YYYZ=              0.5141 ZZZX=             -0.0519
 ZZZY=             -0.1890 XXYY=            -13.7562 XXZZ=           -103.3851 YYZZ=           -103.3863
 XXYZ=             -0.6772 YYXZ=             -0.0196 ZZXY=             -0.0006
 N-N= 8.498420937385D+01 E-N=-1.604180382850D+03  KE= 5.991953865972D+02
 1\1\GINC-TRAPISTA\SP\RQCISD-FC\Aug-CC-pVTZ\C1H3Cl1F1(1-)\BRUNS\12-Aug-
 2021\0\\# QCISD aug-cc-pvtz nosymm density=current output=wfn\\title l
 ine\\-1,1\C,0,0.000175,0.000029,-0.497709\H,0,0.010019,-1.05257,-0.620
 726\H,0,-0.911312,0.526365,-0.621245\H,0,0.91175,0.526132,-0.62157\Cl,
 0,0.000555,0.000962,1.644718\F,0,-0.000186,-0.000921,-2.59346\\Version
 =EM64L-G09RevB.01\HF=-598.6171148\MP2=-599.2912593\MP3=-599.3099602\MP
 4D=-599.3248508\MP4DQ=-599.3104117\MP4SDQ=-599.319778\QCISD=-599.31916
 01\RMSD=9.410e-09\Dipole=0.0020852,0.0007316,1.5872621\Quadrupole=8.58
 44445,8.5842581,-17.1687026,-0.013012,-0.0061428,-0.0107649\PG=C01 [X(
 C1H3Cl1F1)]\\@

 Writing a WFN file to GAUSSIAN+XH_2.wfn.


 WHEN YOU'VE SEEN ONE NUCLEAR WAR YOU'VE SEEN THEM ALL.
 Job cpu time:  0 days 21 hours  8 minutes 40.8 seconds.
 File lengths (MBytes):  RWF=  29002 Int=      0 D2E=      0 Chk=      4 Scr=      1
 Normal termination of Gaussian 09 at Thu Aug 12 17:54:43 2021.
