 Entering Gaussian System, Link 0=g09
 Input=GAUSSIAN+YC_1.com
 Output=GAUSSIAN+YC_1.log
 Initial command:
 /home/bruns/programas/chemistry/gaussian/g09/l1.exe /home/bruns/programas/chemistry/gaussian/work/Gau-15867.inp -scrdir=/home/bruns/programas/chemistry/gaussian/work/
 Entering Link 1 = /home/bruns/programas/chemistry/gaussian/g09/l1.exe PID=     15869.
  
 Copyright (c) 1988,1990,1992,1993,1995,1998,2003,2009,2010,
            Gaussian, Inc.  All Rights Reserved.
  
 This is part of the Gaussian(R) 09 program.  It is based on
 the Gaussian(R) 03 system (copyright 2003, Gaussian, Inc.),
 the Gaussian(R) 98 system (copyright 1998, Gaussian, Inc.),
 the Gaussian(R) 94 system (copyright 1995, Gaussian, Inc.),
 the Gaussian 92(TM) system (copyright 1992, Gaussian, Inc.),
 the Gaussian 90(TM) system (copyright 1990, Gaussian, Inc.),
 the Gaussian 88(TM) system (copyright 1988, Gaussian, Inc.),
 the Gaussian 86(TM) system (copyright 1986, Carnegie Mellon
 University), and the Gaussian 82(TM) system (copyright 1983,
 Carnegie Mellon University). Gaussian is a federally registered
 trademark of Gaussian, Inc.
  
 This software contains proprietary and confidential information,
 including trade secrets, belonging to Gaussian, Inc.
  
 This software is provided under written license and may be
 used, copied, transmitted, or stored only in accord with that
 written license.
  
 The following legend is applicable only to US Government
 contracts under FAR:
  
                    RESTRICTED RIGHTS LEGEND
  
 Use, reproduction and disclosure by the US Government is
 subject to restrictions as set forth in subparagraphs (a)
 and (c) of the Commercial Computer Software - Restricted
 Rights clause in FAR 52.227-19.
  
 Gaussian, Inc.
 340 Quinnipiac St., Bldg. 40, Wallingford CT 06492
  
  
 ---------------------------------------------------------------
 Warning -- This program may not be used in any manner that
 competes with the business of Gaussian, Inc. or will provide
 assistance to any competitor of Gaussian, Inc.  The licensee
 of this program is prohibited from giving any competitor of
 Gaussian, Inc. access to this program.  By using this program,
 the user acknowledges that Gaussian, Inc. is engaged in the
 business of creating and licensing software in the field of
 computational chemistry and represents and warrants to the
 licensee that it is not a competitor of Gaussian, Inc. and that
 it will not use this program in any manner prohibited above.
 ---------------------------------------------------------------
  

 Cite this work as:
 Gaussian 09, Revision B.01,
 M. J. Frisch, G. W. Trucks, H. B. Schlegel, G. E. Scuseria, 
 M. A. Robb, J. R. Cheeseman, G. Scalmani, V. Barone, B. Mennucci, 
 G. A. Petersson, H. Nakatsuji, M. Caricato, X. Li, H. P. Hratchian, 
 A. F. Izmaylov, J. Bloino, G. Zheng, J. L. Sonnenberg, M. Hada, 
 M. Ehara, K. Toyota, R. Fukuda, J. Hasegawa, M. Ishida, T. Nakajima, 
 Y. Honda, O. Kitao, H. Nakai, T. Vreven, J. A. Montgomery, Jr., 
 J. E. Peralta, F. Ogliaro, M. Bearpark, J. J. Heyd, E. Brothers, 
 K. N. Kudin, V. N. Staroverov, T. Keith, R. Kobayashi, J. Normand, 
 K. Raghavachari, A. Rendell, J. C. Burant, S. S. Iyengar, J. Tomasi, 
 M. Cossi, N. Rega, J. M. Millam, M. Klene, J. E. Knox, J. B. Cross, 
 V. Bakken, C. Adamo, J. Jaramillo, R. Gomperts, R. E. Stratmann, 
 O. Yazyev, A. J. Austin, R. Cammi, C. Pomelli, J. W. Ochterski, 
 R. L. Martin, K. Morokuma, V. G. Zakrzewski, G. A. Voth, 
 P. Salvador, J. J. Dannenberg, S. Dapprich, A. D. Daniels, 
 O. Farkas, J. B. Foresman, J. V. Ortiz, J. Cioslowski, 
 and D. J. Fox, Gaussian, Inc., Wallingford CT, 2010.
 
 ******************************************
 Gaussian 09:  EM64L-G09RevB.01 12-Aug-2010
                10-Aug-2021 
 ******************************************
 %nproc=8
 Will use up to    8 processors via shared memory.
 %mem=8GB
 -----------------------------------------------------
 # QCISD aug-cc-pvtz nosymm density=current output=wfn
 -----------------------------------------------------
 1/30=1,38=1/1;
 2/12=2,15=1,17=6,18=5,40=1/2;
 3/5=16,6=1,7=10,11=9,16=1,25=1,30=1,71=1/1,2,3;
 4//1;
 5/5=2,38=5/2;
 8/6=4,9=120000,10=1/1,4;
 9/5=8,15=1/13;
 11/28=-7,31=1,32=3,42=3/11;
 10/5=6,13=10,31=1/2;
 6/7=2,8=2,9=2,10=2,22=-1,31=1/1;
 99/5=1,6=1100,9=1/99;
 ----------
 title line
 ----------
 Symbolic Z-matrix:
 Charge = -1 Multiplicity = 1
 C                     0.00018   0.01003  -0.49771 
 H                     0.00002  -1.05257  -0.62073 
 H                    -0.91131   0.52637  -0.62125 
 H                     0.91175   0.52613  -0.62157 
 Cl                    0.00056   0.00096   1.64472 
 F                    -0.00019  -0.00092  -2.59346 
 
                          Input orientation:                          
 ---------------------------------------------------------------------
 Center     Atomic      Atomic             Coordinates (Angstroms)
 Number     Number       Type             X           Y           Z
 ---------------------------------------------------------------------
      1          6           0        0.000175    0.010029   -0.497709
      2          1           0        0.000019   -1.052570   -0.620726
      3          1           0       -0.911312    0.526365   -0.621245
      4          1           0        0.911750    0.526132   -0.621570
      5         17           0        0.000555    0.000962    1.644718
      6          9           0       -0.000186   -0.000921   -2.593460
 ---------------------------------------------------------------------
                    Distance matrix (angstroms):
                    1          2          3          4          5
     1  C    0.000000
     2  H    1.069696   0.000000
     3  H    1.054833   1.823063   0.000000
     4  H    1.054833   1.823062   1.823062   0.000000
     5  Cl   2.142446   2.498433   2.498427   2.498428   0.000000
     6  F    2.095780   2.235541   2.235579   2.235568   4.238178
                    6
     6  F    0.000000
 Symmetry turned off by external request.
 Stoichiometry    CH3ClF(1-)
 Framework group  C1[X(CH3ClF)]
 Deg. of freedom    12
 Full point group                 C1      NOp   1
 Rotational constants (GHZ):    150.8350019      2.2147303      2.2147208
 Standard basis: Aug-CC-pVTZ (5D, 7F)
 Integral buffers will be    131072 words long.
 Raffenetti 1 integral format.
 Two-electron integral symmetry is turned off.
   211 basis functions,   339 primitive gaussians,   244 cartesian basis functions
    18 alpha electrons       18 beta electrons
       nuclear repulsion energy        84.9841634873 Hartrees.
 NAtoms=    6 NActive=    6 NUniq=    6 SFac= 1.00D+00 NAtFMM=   50 NAOKFM=F Big=F
 One-electron integrals computed using PRISM.
 NBasis=   211 RedAO= T  NBF=   211
 NBsUse=   211 1.00D-06 NBFU=   211
 Harris functional with IExCor=  205 diagonalized for initial guess.
 ExpMin= 2.53D-02 ExpMax= 4.56D+05 ExpMxC= 1.44D+03 IAcc=3 IRadAn=         0 AccDes= 0.00D+00
 HarFok:  IExCor=  205 AccDes= 0.00D+00 IRadAn=         0 IDoV= 1
 ScaDFX=  1.000000  1.000000  1.000000  1.000000
 FoFCou: FMM=F IPFlag=           0 FMFlag=      100000 FMFlg1=           0
         NFxFlg=           0 DoJE=T BraDBF=F KetDBF=T FulRan=T
         Omega=  0.000000  0.000000  1.000000  0.000000  0.000000 ICntrl=     500 IOpCl=  0
         NMat0=    1 NMatS0=    1 NMatT0=    0 NMatD0=    1 NMtDS0=    0 NMtDT0=    0
         I1Cent=           4 NGrid=           0.
 Symmetry not used in FoFCou.
 Requested convergence on RMS density matrix=1.00D-08 within 128 cycles.
 Requested convergence on MAX density matrix=1.00D-06.
 Requested convergence on             energy=1.00D-06.
 No special actions if energy rises.
 Keep R1 ints in memory in canonical form, NReq=454274131.
 SCF Done:  E(RHF) =  -598.616989523     A.U. after   12 cycles
             Convg  =    0.9415D-08             -V/T =  2.0001
 ExpMin= 2.53D-02 ExpMax= 4.56D+05 ExpMxC= 1.44D+03 IAcc=3 IRadAn=         5 AccDes= 0.00D+00
 HarFok:  IExCor=  205 AccDes= 0.00D+00 IRadAn=         5 IDoV=-2
 ScaDFX=  1.000000  1.000000  1.000000  1.000000
 Range of M.O.s used for correlation:     8   211
 NBasis=   211 NAE=    18 NBE=    18 NFC=     7 NFV=     0
 NROrb=    204 NOA=    11 NOB=    11 NVA=   193 NVB=   193

 **** Warning!!: The largest alpha MO coefficient is  0.34936331D+02

 Semi-Direct transformation.
 ModeAB=           2 MOrb=            11 LenV=    1072528236
 LASXX=     44979418 LTotXX=    44979418 LenRXX=    44979418
 LTotAB=    45631872 MaxLAS=    67073160 LenRXY=    67073160
 NonZer=    89958836 LenScr=   135708672 LnRSAI=           0
 LnScr1=           0 LExtra=           0 Total=    247761250
 MaxDsk=          -1 SrtSym=           F ITran=            4
 JobTyp=0 Pass  1:  I=   1 to  11.
 (rs|ai) integrals will be sorted in core.
 Spin components of T(2) and E(2):
     alpha-alpha T2 =       0.2567419215D-01 E2=     -0.8208297882D-01
     alpha-beta  T2 =       0.1452608812D+00 E2=     -0.5099831520D+00
     beta-beta   T2 =       0.2567419215D-01 E2=     -0.8208297882D-01
 ANorm=    0.1093896369D+01
 E2 =    -0.6741491096D+00 EUMP2 =    -0.59929113863293D+03
 R2 and R3 integrals will be kept in memory, NReq=   900794930.
 Iterations=  50 Convergence= 0.100D-07
 Iteration Nr.   1
 **********************
 DD1Dir will call FoFMem   1 times, MxPair=       132
 NAB=    66 NAA=     0 NBB=     0.
 MP4(R+Q)=  0.14439562D-01
 E3=       -0.18700923D-01        EUMP3=      -0.59930983956D+03
 E4(DQ)=   -0.45162591D-03        UMP4(DQ)=   -0.59931029118D+03
 E4(SDQ)=  -0.98184939D-02        UMP4(SDQ)=  -0.59931965805D+03
 DE(Corr)= -0.67841047     E(Corr)=     -599.29539999    
 NORM(A)=   0.10996883D+01
 Iteration Nr.   2
 **********************
 DD1Dir will call FoFMem   1 times, MxPair=       132
 NAB=    66 NAA=     0 NBB=     0.
 DE(Corr)= -0.70061159     E(CORR)=     -599.31760111     Delta=-2.22D-02
 NORM(A)=   0.11070435D+01
 Iteration Nr.   3
 **********************
 DD1Dir will call FoFMem   1 times, MxPair=       132
 NAB=    66 NAA=     0 NBB=     0.
 DE(Corr)= -0.69821455     E(CORR)=     -599.31520407     Delta= 2.40D-03
 NORM(A)=   0.11110292D+01
 Iteration Nr.   4
 **********************
 DD1Dir will call FoFMem   1 times, MxPair=       132
 NAB=    66 NAA=     0 NBB=     0.
 DE(Corr)= -0.70127400     E(CORR)=     -599.31826353     Delta=-3.06D-03
 NORM(A)=   0.11131332D+01
 Iteration Nr.   5
 **********************
 DD1Dir will call FoFMem   1 times, MxPair=       132
 NAB=    66 NAA=     0 NBB=     0.
 DE(Corr)= -0.70186905     E(CORR)=     -599.31885857     Delta=-5.95D-04
 NORM(A)=   0.11141644D+01
 Iteration Nr.   6
 **********************
 DD1Dir will call FoFMem   1 times, MxPair=       132
 NAB=    66 NAA=     0 NBB=     0.
 DE(Corr)= -0.70201586     E(CORR)=     -599.31900538     Delta=-1.47D-04
 NORM(A)=   0.11144903D+01
 Iteration Nr.   7
 **********************
 DD1Dir will call FoFMem   1 times, MxPair=       132
 NAB=    66 NAA=     0 NBB=     0.
 DE(Corr)= -0.70204558     E(CORR)=     -599.31903511     Delta=-2.97D-05
 NORM(A)=   0.11145214D+01
 Iteration Nr.   8
 **********************
 DD1Dir will call FoFMem   1 times, MxPair=       132
 NAB=    66 NAA=     0 NBB=     0.
 DE(Corr)= -0.70205947     E(CORR)=     -599.31904899     Delta=-1.39D-05
 NORM(A)=   0.11145392D+01
 Iteration Nr.   9
 **********************
 DD1Dir will call FoFMem   1 times, MxPair=       132
 NAB=    66 NAA=     0 NBB=     0.
 DE(Corr)= -0.70203625     E(CORR)=     -599.31902577     Delta= 2.32D-05
 NORM(A)=   0.11145424D+01
 Iteration Nr.  10
 **********************
 DD1Dir will call FoFMem   1 times, MxPair=       132
 NAB=    66 NAA=     0 NBB=     0.
 DE(Corr)= -0.70205555     E(CORR)=     -599.31904507     Delta=-1.93D-05
 NORM(A)=   0.11145426D+01
 Iteration Nr.  11
 **********************
 DD1Dir will call FoFMem   1 times, MxPair=       132
 NAB=    66 NAA=     0 NBB=     0.
 DE(Corr)= -0.70204635     E(CORR)=     -599.31903588     Delta= 9.19D-06
 NORM(A)=   0.11145455D+01
 Iteration Nr.  12
 **********************
 DD1Dir will call FoFMem   1 times, MxPair=       132
 NAB=    66 NAA=     0 NBB=     0.
 DE(Corr)= -0.70205011     E(CORR)=     -599.31903963     Delta=-3.75D-06
 NORM(A)=   0.11145459D+01
 Iteration Nr.  13
 **********************
 DD1Dir will call FoFMem   1 times, MxPair=       132
 NAB=    66 NAA=     0 NBB=     0.
 DE(Corr)= -0.70205068     E(CORR)=     -599.31904020     Delta=-5.67D-07
 NORM(A)=   0.11145466D+01
 Iteration Nr.  14
 **********************
 DD1Dir will call FoFMem   1 times, MxPair=       132
 NAB=    66 NAA=     0 NBB=     0.
 DE(Corr)= -0.70205090     E(CORR)=     -599.31904042     Delta=-2.24D-07
 NORM(A)=   0.11145467D+01
 Iteration Nr.  15
 **********************
 DD1Dir will call FoFMem   1 times, MxPair=       132
 NAB=    66 NAA=     0 NBB=     0.
 DE(Corr)= -0.70205081     E(CORR)=     -599.31904033     Delta= 9.05D-08
 NORM(A)=   0.11145467D+01
 Iteration Nr.  16
 **********************
 DD1Dir will call FoFMem   1 times, MxPair=       132
 NAB=    66 NAA=     0 NBB=     0.
 DE(Corr)= -0.70205101     E(CORR)=     -599.31904054     Delta=-2.03D-07
 NORM(A)=   0.11145465D+01
 Iteration Nr.  17
 **********************
 DD1Dir will call FoFMem   1 times, MxPair=       132
 NAB=    66 NAA=     0 NBB=     0.
 DE(Corr)= -0.70205088     E(CORR)=     -599.31904041     Delta= 1.31D-07
 NORM(A)=   0.11145464D+01
 Iteration Nr.  18
 **********************
 DD1Dir will call FoFMem   1 times, MxPair=       132
 NAB=    66 NAA=     0 NBB=     0.
 DE(Corr)= -0.70205092     E(CORR)=     -599.31904044     Delta=-3.68D-08
 NORM(A)=   0.11145463D+01
 Iteration Nr.  19
 **********************
 DD1Dir will call FoFMem   1 times, MxPair=       132
 NAB=    66 NAA=     0 NBB=     0.
 DE(Corr)= -0.70205087     E(CORR)=     -599.31904039     Delta= 5.30D-08
 NORM(A)=   0.11145462D+01
 Iteration Nr.  20
 **********************
 DD1Dir will call FoFMem   1 times, MxPair=       132
 NAB=    66 NAA=     0 NBB=     0.
 DE(Corr)= -0.70205087     E(CORR)=     -599.31904039     Delta=-2.92D-09
 NORM(A)=   0.11145461D+01
 Iteration Nr.  21
 **********************
 DD1Dir will call FoFMem   1 times, MxPair=       132
 NAB=    66 NAA=     0 NBB=     0.
 DE(Corr)= -0.70205085     E(CORR)=     -599.31904037     Delta= 2.02D-08
 NORM(A)=   0.11145461D+01
 Iteration Nr.  22
 **********************
 DD1Dir will call FoFMem   1 times, MxPair=       132
 NAB=    66 NAA=     0 NBB=     0.
 DE(Corr)= -0.70205085     E(CORR)=     -599.31904037     Delta= 1.73D-09
 NORM(A)=   0.11145461D+01
 Iteration Nr.  23
 **********************
 DD1Dir will call FoFMem   1 times, MxPair=       132
 NAB=    66 NAA=     0 NBB=     0.
 DE(Corr)= -0.70205084     E(CORR)=     -599.31904036     Delta= 5.28D-09
 NORM(A)=   0.11145460D+01
 Iteration Nr.  24
 **********************
 DD1Dir will call FoFMem   1 times, MxPair=       132
 NAB=    66 NAA=     0 NBB=     0.
 DE(Corr)= -0.70205084     E(CORR)=     -599.31904037     Delta=-6.15D-10
 NORM(A)=   0.11145460D+01
 Iteration Nr.  25
 **********************
 DD1Dir will call FoFMem   1 times, MxPair=       132
 NAB=    66 NAA=     0 NBB=     0.
 DE(Corr)= -0.70205084     E(CORR)=     -599.31904036     Delta= 4.38D-09
 NORM(A)=   0.11145460D+01
 Iteration Nr.  26
 **********************
 DD1Dir will call FoFMem   1 times, MxPair=       132
 NAB=    66 NAA=     0 NBB=     0.
 DE(Corr)= -0.70205084     E(CORR)=     -599.31904036     Delta=-3.41D-09
 NORM(A)=   0.11145460D+01
 Iteration Nr.  27
 **********************
 DD1Dir will call FoFMem   1 times, MxPair=       132
 NAB=    66 NAA=     0 NBB=     0.
 DE(Corr)= -0.70205084     E(CORR)=     -599.31904036     Delta= 1.48D-09
 NORM(A)=   0.11145460D+01
 Largest amplitude= 6.61D-02

 Z-AMPLITUDE ITERATIONS

 Iteration Nr.   1
 **********************
 DD1Dir will call FoFMem   1 times, MxPair=       132
 NAB=    66 NAA=     0 NBB=     0.
 DE(Z)  -0.68265749D+00          E(Z)=    -0.59929964701D+03
 NORM(A)=   0.11146367D+01
 Iteration Nr.   2
 **********************
 DD1Dir will call FoFMem   1 times, MxPair=       132
 NAB=    66 NAA=     0 NBB=     0.
 DE(Z)  -0.68266744D+00          E(Z)=    -0.59929965696D+03
 NORM(A)=   0.11146409D+01
 Iteration Nr.   3
 **********************
 DD1Dir will call FoFMem   1 times, MxPair=       132
 NAB=    66 NAA=     0 NBB=     0.
 DE(Z)  -0.68266650D+00          E(Z)=    -0.59929965603D+03
 NORM(A)=   0.11151043D+01
 Iteration Nr.   4
 **********************
 DD1Dir will call FoFMem   1 times, MxPair=       132
 NAB=    66 NAA=     0 NBB=     0.
 DE(Z)  -0.68271315D+00          E(Z)=    -0.59929970268D+03
 NORM(A)=   0.11156664D+01
 Iteration Nr.   5
 **********************
 DD1Dir will call FoFMem   1 times, MxPair=       132
 NAB=    66 NAA=     0 NBB=     0.
 DE(Z)  -0.68276646D+00          E(Z)=    -0.59929975598D+03
 NORM(A)=   0.11078898D+01
 Iteration Nr.   6
 **********************
 DD1Dir will call FoFMem   1 times, MxPair=       132
 NAB=    66 NAA=     0 NBB=     0.
 DE(Z)  -0.68198842D+00          E(Z)=    -0.59929897795D+03
 NORM(A)=   0.11078833D+01
 Iteration Nr.   7
 **********************
 DD1Dir will call FoFMem   1 times, MxPair=       132
 NAB=    66 NAA=     0 NBB=     0.
 DE(Z)  -0.68199016D+00          E(Z)=    -0.59929897969D+03
 NORM(A)=   0.11078780D+01
 Iteration Nr.   8
 **********************
 DD1Dir will call FoFMem   1 times, MxPair=       132
 NAB=    66 NAA=     0 NBB=     0.
 DE(Z)  -0.68198913D+00          E(Z)=    -0.59929897865D+03
 NORM(A)=   0.11078756D+01
 Iteration Nr.   9
 **********************
 DD1Dir will call FoFMem   1 times, MxPair=       132
 NAB=    66 NAA=     0 NBB=     0.
 DE(Z)  -0.68198866D+00          E(Z)=    -0.59929897818D+03
 NORM(A)=   0.11078747D+01
 Iteration Nr.  10
 **********************
 DD1Dir will call FoFMem   1 times, MxPair=       132
 NAB=    66 NAA=     0 NBB=     0.
 DE(Z)  -0.68198871D+00          E(Z)=    -0.59929897824D+03
 NORM(A)=   0.11078743D+01
 Iteration Nr.  11
 **********************
 DD1Dir will call FoFMem   1 times, MxPair=       132
 NAB=    66 NAA=     0 NBB=     0.
 DE(Z)  -0.68198877D+00          E(Z)=    -0.59929897829D+03
 NORM(A)=   0.11078742D+01
 Iteration Nr.  12
 **********************
 DD1Dir will call FoFMem   1 times, MxPair=       132
 NAB=    66 NAA=     0 NBB=     0.
 DE(Z)  -0.68198857D+00          E(Z)=    -0.59929897810D+03
 NORM(A)=   0.11078743D+01
 Iteration Nr.  13
 **********************
 DD1Dir will call FoFMem   1 times, MxPair=       132
 NAB=    66 NAA=     0 NBB=     0.
 DE(Z)  -0.68198871D+00          E(Z)=    -0.59929897823D+03
 NORM(A)=   0.11078743D+01
 Iteration Nr.  14
 **********************
 DD1Dir will call FoFMem   1 times, MxPair=       132
 NAB=    66 NAA=     0 NBB=     0.
 DE(Z)  -0.68198870D+00          E(Z)=    -0.59929897822D+03
 NORM(A)=   0.11078743D+01
 Iteration Nr.  15
 **********************
 DD1Dir will call FoFMem   1 times, MxPair=       132
 NAB=    66 NAA=     0 NBB=     0.
 DE(Z)  -0.68198870D+00          E(Z)=    -0.59929897823D+03
 NORM(A)=   0.11078743D+01
 Iteration Nr.  16
 **********************
 DD1Dir will call FoFMem   1 times, MxPair=       132
 NAB=    66 NAA=     0 NBB=     0.
 DE(Z)  -0.68198871D+00          E(Z)=    -0.59929897823D+03
 NORM(A)=   0.11078743D+01
 Iteration Nr.  17
 **********************
 DD1Dir will call FoFMem   1 times, MxPair=       132
 NAB=    66 NAA=     0 NBB=     0.
 DE(Z)  -0.68198871D+00          E(Z)=    -0.59929897823D+03
 NORM(A)=   0.11078743D+01
 Iteration Nr.  18
 **********************
 DD1Dir will call FoFMem   1 times, MxPair=       132
 NAB=    66 NAA=     0 NBB=     0.
 DE(Z)  -0.68198871D+00          E(Z)=    -0.59929897823D+03
 NORM(A)=   0.11078743D+01
 Iteration Nr.  19
 **********************
 DD1Dir will call FoFMem   1 times, MxPair=       132
 NAB=    66 NAA=     0 NBB=     0.
 DE(Z)  -0.68198871D+00          E(Z)=    -0.59929897823D+03
 NORM(A)=   0.11078743D+01
 Discarding MO integrals.
          Differentiating once with respect to electric field.
                with respect to dipole field.
          Electric field/nuclear overlap derivatives assumed to be zero.
          Keep R1 ints in memory in canonical form, NReq=448662239.
          There are     1 degrees of freedom in the 1st order CPHF.  IDoFFX=0.
 LinEq1:  Iter=  0 NonCon=     1 RMS=3.11D-03 Max=1.20D-01
 AX will form     1 AO Fock derivatives at one time.
 LinEq1:  Iter=  1 NonCon=     1 RMS=6.94D-04 Max=9.60D-03
 LinEq1:  Iter=  2 NonCon=     1 RMS=2.30D-04 Max=5.72D-03
 LinEq1:  Iter=  3 NonCon=     1 RMS=9.49D-05 Max=1.45D-03
 LinEq1:  Iter=  4 NonCon=     1 RMS=3.84D-05 Max=4.10D-04
 LinEq1:  Iter=  5 NonCon=     1 RMS=1.06D-05 Max=2.26D-04
 LinEq1:  Iter=  6 NonCon=     1 RMS=2.42D-06 Max=4.22D-05
 LinEq1:  Iter=  7 NonCon=     1 RMS=6.06D-07 Max=9.15D-06
 LinEq1:  Iter=  8 NonCon=     1 RMS=1.49D-07 Max=1.80D-06
 LinEq1:  Iter=  9 NonCon=     1 RMS=3.04D-08 Max=7.48D-07
 LinEq1:  Iter= 10 NonCon=     1 RMS=6.55D-09 Max=8.90D-08
 LinEq1:  Iter= 11 NonCon=     1 RMS=1.05D-09 Max=1.15D-08
 LinEq1:  Iter= 12 NonCon=     1 RMS=1.69D-10 Max=2.85D-09
 LinEq1:  Iter= 13 NonCon=     0 RMS=2.41D-11 Max=3.21D-10
 Linear equations converged to 1.000D-10 1.000D-09 after    13 iterations.
 End of Minotr Frequency-dependent properties file   721 does not exist.
 End of Minotr Frequency-dependent properties file   722 does not exist.

 **********************************************************************

            Population analysis using the QCI/CC density.

 **********************************************************************

     Natural Orbital Coefficients:
                           1         2         3         4         5
     Eigenvalues --     2.00003   2.00003   2.00002   2.00001   2.00001
   1 1   C  1S          0.00015   0.00000  -0.04329   0.08036   0.97619
   2        2S          0.00002   0.00000   0.00131   0.00050  -0.01332
   3        3S          0.00003   0.00000  -0.00132   0.00400   0.03985
   4        4S         -0.00027   0.00000  -0.01264  -0.02360   0.00312
   5        5S         -0.00008   0.00000  -0.00120  -0.00062  -0.00061
   6        6PX         0.00000  -0.00005   0.00000   0.00000   0.00000
   7        6PY         0.00005   0.00000   0.00000   0.00000  -0.00005
   8        6PZ         0.00000   0.00000   0.00053   0.00168   0.00087
   9        7PX         0.00000  -0.00089   0.00000   0.00000   0.00000
  10        7PY         0.00080   0.00000  -0.00005  -0.00010   0.00004
  11        7PZ         0.00002   0.00000   0.00142   0.00304  -0.00091
  12        8PX         0.00000  -0.00466   0.00000   0.00000   0.00000
  13        8PY         0.00446   0.00000   0.00001  -0.00006   0.00003
  14        8PZ         0.00000   0.00000  -0.00373  -0.00410  -0.00309
  15        9PX         0.00000  -0.00041   0.00000   0.00000   0.00000
  16        9PY         0.00043   0.00000  -0.00001  -0.00001   0.00000
  17        9PZ         0.00000   0.00000   0.00021   0.00017  -0.00049
  18       10D 0        0.00000   0.00000   0.00011   0.00033  -0.00057
  19       10D+1        0.00000   0.00015   0.00000   0.00000   0.00000
  20       10D-1       -0.00015   0.00000   0.00000   0.00000   0.00000
  21       10D+2        0.00004   0.00000   0.00000   0.00000   0.00002
  22       10D-2        0.00000  -0.00004   0.00000   0.00000   0.00000
  23       11D 0        0.00004   0.00000   0.00022  -0.00009  -0.00029
  24       11D+1        0.00000  -0.00025   0.00000   0.00000   0.00000
  25       11D-1        0.00026   0.00000   0.00002   0.00004  -0.00002
  26       11D+2        0.00100   0.00000  -0.00003  -0.00007   0.00001
  27       11D-2        0.00000  -0.00102   0.00000   0.00000   0.00000
  28       12D 0       -0.00010   0.00000  -0.00078   0.00122  -0.00236
  29       12D+1        0.00000   0.00133   0.00000   0.00000   0.00000
  30       12D-1       -0.00128   0.00000   0.00002   0.00002  -0.00003
  31       12D+2        0.00161   0.00000   0.00001  -0.00004  -0.00001
  32       12D-2        0.00000  -0.00163   0.00000   0.00000   0.00000
  33       13F 0        0.00000   0.00000   0.00001   0.00003   0.00019
  34       13F+1        0.00000   0.00019   0.00000   0.00000   0.00000
  35       13F-1       -0.00019   0.00000   0.00000   0.00000   0.00000
  36       13F+2        0.00002   0.00000   0.00000   0.00000  -0.00001
  37       13F-2        0.00000  -0.00002   0.00000   0.00000   0.00000
  38       13F+3        0.00000   0.00000   0.00000   0.00000   0.00000
  39       13F-3        0.00000   0.00000  -0.00006   0.00007   0.00090
  40       14F 0        0.00000   0.00000  -0.00113  -0.00215  -0.00019
  41       14F+1        0.00000  -0.00059   0.00000   0.00000   0.00000
  42       14F-1        0.00056   0.00000   0.00000   0.00001   0.00001
  43       14F+2        0.00036   0.00000   0.00001   0.00002   0.00000
  44       14F-2        0.00000  -0.00033   0.00000   0.00000   0.00000
  45       14F+3        0.00000  -0.00001   0.00000   0.00000   0.00000
  46       14F-3       -0.00006   0.00000  -0.00086  -0.00136  -0.00191
  47 2   H  1S         -0.00016   0.00000  -0.00002  -0.00035  -0.00128
  48        2S          0.00123   0.00000   0.00239   0.00318  -0.00053
  49        3S          0.00851   0.00000   0.00177   0.00504  -0.00416
  50        4S         -0.00026   0.00000   0.00010   0.00008  -0.00012
  51        5PX         0.00000   0.00000   0.00000   0.00000   0.00000
  52        5PY         0.00003   0.00000   0.00004  -0.00003  -0.00047
  53        5PZ         0.00001   0.00000   0.00001   0.00001  -0.00008
  54        6PX         0.00000  -0.00020   0.00000   0.00000   0.00000
  55        6PY         0.00066   0.00000   0.00044   0.00066  -0.00072
  56        6PZ         0.00063   0.00000   0.00000  -0.00007   0.00023
  57        7PX         0.00000  -0.00092   0.00000   0.00000   0.00000
  58        7PY         0.00208   0.00000   0.00051   0.00130  -0.00095
  59        7PZ         0.00029   0.00000   0.00048   0.00092  -0.00007
  60        8D 0        0.00004   0.00000   0.00001   0.00007   0.00015
  61        8D+1        0.00000   0.00002   0.00000   0.00000   0.00000
  62        8D-1        0.00009   0.00000   0.00002   0.00005  -0.00004
  63        8D+2       -0.00005   0.00000  -0.00004  -0.00005   0.00029
  64        8D-2        0.00000  -0.00001   0.00000   0.00000   0.00000
  65        9D 0        0.00040   0.00000   0.00015   0.00025   0.00060
  66        9D+1        0.00000  -0.00024   0.00000   0.00000   0.00000
  67        9D-1        0.00013   0.00000  -0.00014  -0.00025   0.00001
  68        9D+2       -0.00013   0.00000   0.00002   0.00004  -0.00011
  69        9D-2        0.00000  -0.00012   0.00000   0.00000   0.00000
  70 3   H  1S          0.00008   0.00014  -0.00002  -0.00036  -0.00138
  71        2S         -0.00048  -0.00108   0.00248   0.00340  -0.00074
  72        3S         -0.00427  -0.00769   0.00185   0.00542  -0.00443
  73        4S          0.00014   0.00024   0.00012   0.00010  -0.00014
  74        5PX        -0.00001  -0.00003   0.00004  -0.00002  -0.00042
  75        5PY         0.00001   0.00001  -0.00002   0.00001   0.00023
  76        5PZ        -0.00001  -0.00001   0.00001   0.00002  -0.00009
  77        6PX        -0.00019  -0.00056   0.00041   0.00063  -0.00072
  78        6PY         0.00029   0.00021  -0.00022  -0.00035   0.00043
  79        6PZ        -0.00031  -0.00053  -0.00001  -0.00011   0.00024
  80        7PX        -0.00049  -0.00185   0.00048   0.00119  -0.00091
  81        7PY         0.00118   0.00050  -0.00026  -0.00069   0.00051
  82        7PZ        -0.00014  -0.00022   0.00047   0.00092  -0.00006
  83        8D 0       -0.00002  -0.00003   0.00001   0.00006   0.00014
  84        8D+1       -0.00005  -0.00007   0.00002   0.00004  -0.00003
  85        8D-1        0.00001   0.00005  -0.00001  -0.00002   0.00002
  86        8D+2        0.00000  -0.00003   0.00002   0.00003  -0.00015
  87        8D-2        0.00002   0.00003  -0.00003  -0.00005   0.00024
  88        9D 0       -0.00018  -0.00034   0.00015   0.00025   0.00064
  89        9D+1        0.00005  -0.00016  -0.00012  -0.00022   0.00001
  90        9D-1        0.00022  -0.00005   0.00007   0.00013   0.00000
  91        9D+2        0.00006  -0.00011   0.00000  -0.00001   0.00004
  92        9D-2        0.00010   0.00007   0.00001   0.00001  -0.00008
  93 4   H  1S          0.00008  -0.00014  -0.00002  -0.00036  -0.00138
  94        2S         -0.00048   0.00108   0.00248   0.00340  -0.00074
  95        3S         -0.00427   0.00769   0.00185   0.00542  -0.00443
  96        4S          0.00014  -0.00024   0.00012   0.00010  -0.00014
  97        5PX         0.00001  -0.00003  -0.00004   0.00002   0.00042
  98        5PY         0.00001  -0.00001  -0.00002   0.00001   0.00023
  99        5PZ        -0.00001   0.00001   0.00001   0.00002  -0.00009
 100        6PX         0.00019  -0.00056  -0.00041  -0.00063   0.00072
 101        6PY         0.00029  -0.00021  -0.00022  -0.00035   0.00043
 102        6PZ        -0.00031   0.00053  -0.00001  -0.00011   0.00024
 103        7PX         0.00049  -0.00185  -0.00048  -0.00119   0.00091
 104        7PY         0.00118  -0.00050  -0.00026  -0.00069   0.00051
 105        7PZ        -0.00014   0.00022   0.00047   0.00093  -0.00006
 106        8D 0       -0.00002   0.00003   0.00001   0.00006   0.00014
 107        8D+1        0.00005  -0.00007  -0.00002  -0.00004   0.00003
 108        8D-1        0.00001  -0.00005  -0.00001  -0.00002   0.00002
 109        8D+2        0.00000   0.00003   0.00002   0.00003  -0.00015
 110        8D-2       -0.00002   0.00003   0.00003   0.00005  -0.00024
 111        9D 0       -0.00018   0.00034   0.00015   0.00025   0.00064
 112        9D+1       -0.00005  -0.00016   0.00012   0.00022  -0.00001
 113        9D-1        0.00022   0.00005   0.00007   0.00013   0.00000
 114        9D+2        0.00006   0.00011   0.00000  -0.00001   0.00004
 115        9D-2       -0.00010   0.00007  -0.00001  -0.00001   0.00008
 116 5   Cl 1S          0.00022   0.00000  -0.25060   0.14799  -0.02283
 117        2S         -0.00074   0.00000   0.84592  -0.50026   0.07827
 118        3S          0.00001   0.00000  -0.02309   0.00933  -0.00239
 119        4S         -0.00006   0.00000   0.06655  -0.04076   0.00643
 120        5S          0.00009   0.00000  -0.00211   0.00777   0.00350
 121        6S          0.00002   0.00000  -0.00155  -0.00213   0.00300
 122        7PX         0.00016  -0.97886   0.00009   0.00015  -0.00001
 123        7PY         0.97884   0.00016  -0.00307  -0.00657   0.00026
 124        7PZ         0.00725   0.00017   0.50085   0.83587  -0.04719
 125        8PX         0.00000   0.01915   0.00000   0.00000   0.00000
 126        8PY        -0.01915   0.00000   0.00005   0.00010  -0.00001
 127        8PZ        -0.00015   0.00000  -0.00878  -0.01404   0.00011
 128        9PX         0.00001  -0.05234   0.00001   0.00001   0.00000
 129        9PY         0.05233   0.00001  -0.00017  -0.00038   0.00002
 130        9PZ         0.00039   0.00001   0.02844   0.04954  -0.00268
 131       10PX         0.00000   0.00577   0.00000   0.00000   0.00000
 132       10PY        -0.00579   0.00000   0.00002   0.00002   0.00004
 133       10PZ        -0.00008   0.00000  -0.00434  -0.00275  -0.00346
 134       11PX         0.00000   0.00214   0.00000   0.00000   0.00000
 135       11PY        -0.00215   0.00000   0.00001   0.00001   0.00001
 136       11PZ        -0.00002   0.00000  -0.00036  -0.00015  -0.00053
 137       12D 0        0.00000   0.00000   0.00001  -0.00051  -0.00017
 138       12D+1        0.00000   0.00032   0.00000   0.00000   0.00000
 139       12D-1       -0.00032   0.00000   0.00000   0.00000   0.00000
 140       12D+2        0.00001   0.00000   0.00000   0.00000   0.00000
 141       12D-2        0.00000  -0.00001   0.00000   0.00000   0.00000
 142       13D 0        0.00001   0.00000   0.00088   0.00244   0.00042
 143       13D+1        0.00000  -0.00081   0.00000   0.00000   0.00000
 144       13D-1        0.00081   0.00000  -0.00001  -0.00002   0.00000
 145       13D+2       -0.00002   0.00000   0.00000   0.00000   0.00000
 146       13D-2        0.00000   0.00002   0.00000   0.00000   0.00000
 147       14D 0       -0.00001   0.00000   0.00058  -0.00018   0.00080
 148       14D+1        0.00000   0.00072   0.00000   0.00000   0.00000
 149       14D-1       -0.00071   0.00000  -0.00001   0.00000  -0.00002
 150       14D+2        0.00003   0.00000   0.00000   0.00000   0.00000
 151       14D-2        0.00000  -0.00003   0.00000   0.00000   0.00000
 152       15F 0        0.00000   0.00000   0.00001  -0.00007  -0.00003
 153       15F+1        0.00000   0.00001   0.00000   0.00000   0.00000
 154       15F-1       -0.00001   0.00000   0.00000   0.00000   0.00000
 155       15F+2        0.00003   0.00000   0.00000   0.00000   0.00000
 156       15F-2        0.00000  -0.00003   0.00000   0.00000   0.00000
 157       15F+3        0.00000   0.00000   0.00000   0.00000   0.00000
 158       15F-3        0.00000   0.00000   0.00001   0.00003   0.00000
 159       16F 0        0.00000   0.00000  -0.00032  -0.00058  -0.00031
 160       16F+1        0.00000   0.00022   0.00000   0.00000   0.00000
 161       16F-1       -0.00022   0.00000   0.00001   0.00001   0.00000
 162       16F+2       -0.00004   0.00000   0.00000   0.00000   0.00000
 163       16F-2        0.00000   0.00003   0.00000   0.00000   0.00000
 164       16F+3        0.00000   0.00000   0.00000   0.00000   0.00000
 165       16F-3        0.00000   0.00000  -0.00002  -0.00005   0.00002
 166 6   F  1S         -0.00003   0.00000  -0.00144  -0.01042  -0.04974
 167        2S         -0.00001   0.00000   0.00020   0.00043   0.00080
 168        3S          0.00000   0.00000  -0.00007  -0.00045  -0.00202
 169        4S          0.00004   0.00000  -0.00055  -0.00105   0.00056
 170        5S          0.00010   0.00000   0.00010  -0.00168   0.00178
 171        6PX         0.00000   0.00004   0.00000   0.00000   0.00000
 172        6PY        -0.00004   0.00000   0.00000   0.00001   0.00000
 173        6PZ         0.00000   0.00000   0.00058   0.00111   0.00011
 174        7PX         0.00000   0.00001   0.00000   0.00000   0.00000
 175        7PY        -0.00001   0.00000   0.00000   0.00001   0.00000
 176        7PZ         0.00000   0.00000   0.00069   0.00132   0.00002
 177        8PX         0.00000   0.00025   0.00000   0.00000   0.00000
 178        8PY        -0.00024   0.00000   0.00000  -0.00001   0.00000
 179        8PZ         0.00003   0.00000   0.00008   0.00017   0.00048
 180        9PX         0.00000   0.00035   0.00000   0.00000   0.00000
 181        9PY        -0.00036   0.00000   0.00000   0.00000   0.00001
 182        9PZ         0.00003   0.00000   0.00017  -0.00009   0.00071
 183       10D 0        0.00000   0.00000   0.00001   0.00001  -0.00002
 184       10D+1        0.00000   0.00001   0.00000   0.00000   0.00000
 185       10D-1       -0.00001   0.00000   0.00000   0.00000   0.00000
 186       10D+2        0.00001   0.00000   0.00000   0.00000   0.00000
 187       10D-2        0.00000  -0.00001   0.00000   0.00000   0.00000
 188       11D 0        0.00000   0.00000  -0.00003  -0.00010   0.00001
 189       11D+1        0.00000  -0.00005   0.00000   0.00000   0.00000
 190       11D-1        0.00005   0.00000   0.00000   0.00000   0.00000
 191       11D+2       -0.00003   0.00000   0.00000   0.00000   0.00000
 192       11D-2        0.00000   0.00003   0.00000   0.00000   0.00000
 193       12D 0        0.00000   0.00000  -0.00019  -0.00012   0.00011
 194       12D+1        0.00000   0.00023   0.00000   0.00000   0.00000
 195       12D-1       -0.00022   0.00000   0.00000  -0.00001   0.00000
 196       12D+2        0.00011   0.00000   0.00000   0.00000   0.00000
 197       12D-2        0.00000  -0.00011   0.00000   0.00000   0.00000
 198       13F 0        0.00000   0.00000   0.00001  -0.00001  -0.00004
 199       13F+1        0.00000  -0.00002   0.00000   0.00000   0.00000
 200       13F-1        0.00002   0.00000   0.00000   0.00000   0.00000
 201       13F+2       -0.00002   0.00000   0.00000   0.00000   0.00000
 202       13F-2        0.00000   0.00001   0.00000   0.00000   0.00000
 203       13F+3        0.00000   0.00000   0.00000   0.00000   0.00000
 204       13F-3        0.00000   0.00000   0.00000   0.00000   0.00000
 205       14F 0        0.00000   0.00000  -0.00004   0.00002   0.00013
 206       14F+1        0.00000   0.00006   0.00000   0.00000   0.00000
 207       14F-1       -0.00006   0.00000   0.00000   0.00000   0.00000
 208       14F+2        0.00004   0.00000   0.00000   0.00000   0.00000
 209       14F-2        0.00000  -0.00004   0.00000   0.00000   0.00000
 210       14F+3        0.00000   0.00000   0.00000   0.00000   0.00000
 211       14F-3        0.00000   0.00000   0.00000   0.00000  -0.00001
                           6         7         8         9        10
     Eigenvalues --     2.00000   2.00000   1.98361   1.97543   1.96949
   1 1   C  1S          0.05037  -0.00046   0.01542  -0.07339  -0.14369
   2        2S         -0.00012  -0.00001  -0.04201   0.19915   0.39720
   3        3S          0.00229  -0.00003  -0.01040   0.04621   0.09613
   4        4S         -0.00698   0.00016   0.00555   0.07913   0.19087
   5        5S         -0.00016   0.00010   0.00785  -0.00689  -0.02885
   6        6PX         0.00000   0.00000   0.00000   0.00000   0.00000
   7        6PY         0.00000   0.00000  -0.00013   0.00136   0.00554
   8        6PZ         0.00004   0.00000   0.00646   0.01033  -0.02724
   9        7PX         0.00000   0.00000   0.00000   0.00000   0.00000
  10        7PY        -0.00003   0.00000  -0.00013   0.00164   0.00685
  11        7PZ        -0.00075   0.00000   0.00706   0.01789  -0.03247
  12        8PX         0.00000   0.00000   0.00000   0.00000   0.00000
  13        8PY         0.00004   0.00000  -0.00013   0.00169   0.00551
  14        8PZ         0.00519   0.00009   0.01660   0.00589  -0.02271
  15        9PX         0.00000   0.00000   0.00000   0.00000   0.00000
  16        9PY         0.00000   0.00000  -0.00004   0.00010   0.00044
  17        9PZ         0.00011   0.00001  -0.00071   0.00033  -0.00407
  18       10D 0        0.00004   0.00000   0.00051  -0.00214  -0.00956
  19       10D+1        0.00000   0.00000   0.00000   0.00000   0.00000
  20       10D-1        0.00000   0.00000   0.00000  -0.00005  -0.00009
  21       10D+2        0.00000   0.00000  -0.00003   0.00019   0.00057
  22       10D-2        0.00000   0.00000   0.00000   0.00000   0.00000
  23       11D 0       -0.00023  -0.00002  -0.00529   0.00462  -0.01877
  24       11D+1        0.00000   0.00000   0.00000   0.00000  -0.00001
  25       11D-1       -0.00001   0.00000  -0.00008  -0.00014  -0.00006
  26       11D+2       -0.00001   0.00000  -0.00003   0.00054   0.00153
  27       11D-2        0.00000   0.00000   0.00000   0.00000   0.00000
  28       12D 0        0.00027   0.00008   0.00206  -0.00841  -0.01667
  29       12D+1        0.00000   0.00000   0.00000   0.00000  -0.00001
  30       12D-1       -0.00002   0.00000  -0.00001  -0.00007  -0.00006
  31       12D+2        0.00002   0.00000   0.00012   0.00034   0.00086
  32       12D-2        0.00000   0.00000   0.00000   0.00000   0.00000
  33       13F 0       -0.00007   0.00000   0.00000   0.00242   0.00064
  34       13F+1        0.00000   0.00000   0.00000   0.00000   0.00000
  35       13F-1        0.00000   0.00000   0.00000   0.00001   0.00002
  36       13F+2        0.00000   0.00000   0.00000  -0.00001  -0.00001
  37       13F-2        0.00000   0.00000   0.00000   0.00000   0.00000
  38       13F+3        0.00000   0.00000   0.00000   0.00000   0.00000
  39       13F-3        0.00001   0.00000  -0.00014   0.00194   0.00397
  40       14F 0        0.00127  -0.00001   0.00471   0.00261  -0.00198
  41       14F+1        0.00000   0.00000   0.00000   0.00000   0.00000
  42       14F-1        0.00001   0.00000   0.00006  -0.00007  -0.00013
  43       14F+2        0.00000   0.00000  -0.00004  -0.00007  -0.00008
  44       14F-2        0.00000   0.00000   0.00000   0.00000   0.00000
  45       14F+3        0.00000   0.00000   0.00000   0.00000   0.00000
  46       14F-3       -0.00044   0.00003   0.00187  -0.00100   0.00404
  47 2   H  1S         -0.00008   0.00000  -0.00840   0.03588   0.07597
  48        2S          0.00096  -0.00006  -0.01527   0.04340   0.08071
  49        3S          0.00183   0.00004  -0.00084  -0.00324  -0.00818
  50        4S          0.00003   0.00000  -0.00051   0.00060   0.00072
  51        5PX         0.00000   0.00000   0.00000   0.00000   0.00000
  52        5PY         0.00001   0.00000  -0.00107   0.00385   0.00818
  53        5PZ        -0.00004   0.00000   0.00028   0.00092   0.00028
  54        6PX         0.00000   0.00000   0.00000   0.00000   0.00000
  55        6PY         0.00007   0.00000  -0.00083   0.00113   0.00179
  56        6PZ         0.00031  -0.00001   0.00002   0.00239  -0.00047
  57        7PX         0.00000   0.00000   0.00000   0.00000   0.00000
  58        7PY         0.00043   0.00001   0.00132  -0.00453  -0.00914
  59        7PZ        -0.00055   0.00001  -0.00279  -0.00167  -0.00115
  60        8D 0        0.00006   0.00000   0.00014  -0.00034  -0.00086
  61        8D+1        0.00000   0.00000   0.00000   0.00000   0.00000
  62        8D-1       -0.00001   0.00000  -0.00015   0.00048   0.00022
  63        8D+2       -0.00002   0.00000   0.00004  -0.00053  -0.00131
  64        8D-2        0.00000   0.00000   0.00000   0.00000   0.00000
  65        9D 0        0.00008  -0.00001  -0.00005   0.00119   0.00098
  66        9D+1        0.00000   0.00000   0.00000   0.00000   0.00000
  67        9D-1        0.00014   0.00000  -0.00008   0.00005  -0.00034
  68        9D+2        0.00004   0.00000  -0.00097   0.00221   0.00404
  69        9D-2        0.00000   0.00000   0.00000   0.00000   0.00000
  70 3   H  1S         -0.00008   0.00000  -0.00867   0.03783   0.08278
  71        2S          0.00098  -0.00006  -0.01532   0.04394   0.08510
  72        3S          0.00179   0.00004  -0.00093  -0.00576  -0.01403
  73        4S          0.00003   0.00000  -0.00045   0.00046   0.00022
  74        5PX         0.00001   0.00000  -0.00096   0.00354   0.00774
  75        5PY        -0.00001   0.00000   0.00054  -0.00199  -0.00430
  76        5PZ        -0.00004   0.00000   0.00027   0.00097   0.00038
  77        6PX         0.00007   0.00000  -0.00060   0.00062   0.00095
  78        6PY        -0.00003   0.00000   0.00032  -0.00019  -0.00017
  79        6PZ         0.00033  -0.00001   0.00011   0.00245  -0.00054
  80        7PX         0.00038   0.00001   0.00123  -0.00444  -0.00936
  81        7PY        -0.00020  -0.00001  -0.00061   0.00267   0.00561
  82        7PZ        -0.00055   0.00001  -0.00281  -0.00177  -0.00140
  83        8D 0        0.00006   0.00000   0.00014  -0.00036  -0.00093
  84        8D+1       -0.00001   0.00000  -0.00013   0.00044   0.00021
  85        8D-1        0.00000   0.00000   0.00007  -0.00025  -0.00012
  86        8D+2        0.00001   0.00000  -0.00002   0.00029   0.00076
  87        8D-2       -0.00001   0.00000   0.00003  -0.00046  -0.00117
  88        9D 0        0.00009  -0.00001  -0.00006   0.00124   0.00102
  89        9D+1        0.00012   0.00000  -0.00005   0.00002  -0.00035
  90        9D-1       -0.00007   0.00000   0.00001  -0.00002   0.00019
  91        9D+2       -0.00002   0.00000   0.00050  -0.00112  -0.00207
  92        9D-2        0.00003   0.00000  -0.00085   0.00198   0.00366
  93 4   H  1S         -0.00008   0.00000  -0.00867   0.03783   0.08278
  94        2S          0.00098  -0.00006  -0.01532   0.04394   0.08510
  95        3S          0.00179   0.00004  -0.00093  -0.00576  -0.01404
  96        4S          0.00003   0.00000  -0.00045   0.00046   0.00022
  97        5PX        -0.00001   0.00000   0.00096  -0.00354  -0.00774
  98        5PY        -0.00001   0.00000   0.00054  -0.00199  -0.00430
  99        5PZ        -0.00004   0.00000   0.00027   0.00097   0.00038
 100        6PX        -0.00007   0.00000   0.00060  -0.00062  -0.00095
 101        6PY        -0.00003   0.00000   0.00032  -0.00019  -0.00017
 102        6PZ         0.00033  -0.00001   0.00011   0.00245  -0.00054
 103        7PX        -0.00038  -0.00001  -0.00123   0.00444   0.00936
 104        7PY        -0.00020  -0.00001  -0.00061   0.00267   0.00561
 105        7PZ        -0.00055   0.00001  -0.00281  -0.00177  -0.00140
 106        8D 0        0.00006   0.00000   0.00014  -0.00036  -0.00093
 107        8D+1        0.00001   0.00000   0.00013  -0.00044  -0.00021
 108        8D-1        0.00000   0.00000   0.00007  -0.00025  -0.00012
 109        8D+2        0.00001   0.00000  -0.00002   0.00029   0.00076
 110        8D-2        0.00001   0.00000  -0.00003   0.00046   0.00117
 111        9D 0        0.00009  -0.00001  -0.00006   0.00124   0.00102
 112        9D+1       -0.00012   0.00000   0.00005  -0.00002   0.00035
 113        9D-1       -0.00007   0.00000   0.00001  -0.00002   0.00019
 114        9D+2       -0.00002   0.00000   0.00051  -0.00113  -0.00207
 115        9D-2       -0.00003   0.00000   0.00085  -0.00198  -0.00366
 116 5   Cl 1S          0.00007   0.99708  -0.00064   0.06648  -0.03480
 117        2S         -0.00007   0.01040   0.00292  -0.25192   0.13078
 118        3S          0.00005   0.00017  -0.00391   0.52468  -0.27825
 119        4S          0.00008   0.00026  -0.00025   0.06428  -0.03748
 120        5S         -0.00181  -0.00020  -0.01230   0.35094  -0.17058
 121        6S         -0.00050  -0.00011  -0.00461   0.02452   0.01129
 122        7PX         0.00000   0.00000   0.00000   0.00000   0.00001
 123        7PY        -0.00003   0.00000   0.00000  -0.00006  -0.00035
 124        7PZ         0.00733   0.00016   0.00152   0.00459   0.02878
 125        8PX         0.00000   0.00000   0.00000   0.00000  -0.00001
 126        8PY        -0.00001   0.00000   0.00000   0.00010   0.00088
 127        8PZ         0.00051  -0.00003  -0.00227  -0.00602  -0.07204
 128        9PX         0.00000   0.00000   0.00000   0.00000  -0.00001
 129        9PY         0.00000   0.00000   0.00001   0.00003   0.00038
 130        9PZ         0.00032   0.00003  -0.00264   0.00068  -0.03139
 131       10PX         0.00000   0.00000   0.00000   0.00000  -0.00001
 132       10PY        -0.00001   0.00000  -0.00005   0.00003   0.00038
 133       10PZ         0.00096   0.00015   0.00271   0.00302  -0.05234
 134       11PX         0.00000   0.00000   0.00000   0.00000   0.00000
 135       11PY         0.00000   0.00000   0.00001  -0.00001  -0.00002
 136       11PZ         0.00002   0.00002  -0.00040   0.00263  -0.00874
 137       12D 0       -0.00003   0.00001  -0.00035   0.00448   0.00453
 138       12D+1        0.00000   0.00000   0.00000   0.00000   0.00000
 139       12D-1        0.00000   0.00000   0.00000  -0.00006  -0.00014
 140       12D+2        0.00000   0.00000   0.00000   0.00000   0.00001
 141       12D-2        0.00000   0.00000   0.00000   0.00000   0.00000
 142       13D 0       -0.00022   0.00000  -0.00163   0.00819   0.00969
 143       13D+1        0.00000   0.00000   0.00000   0.00000   0.00000
 144       13D-1        0.00001   0.00000   0.00003  -0.00012  -0.00024
 145       13D+2        0.00000   0.00000   0.00000   0.00001   0.00001
 146       13D-2        0.00000   0.00000   0.00000   0.00000   0.00000
 147       14D 0       -0.00014  -0.00004  -0.00184  -0.00018   0.00538
 148       14D+1        0.00000   0.00000   0.00000   0.00000   0.00000
 149       14D-1        0.00000   0.00000   0.00003  -0.00001  -0.00007
 150       14D+2        0.00000   0.00000   0.00000   0.00000  -0.00001
 151       14D-2        0.00000   0.00000   0.00000   0.00000   0.00000
 152       15F 0        0.00005   0.00000   0.00023  -0.00180  -0.00191
 153       15F+1        0.00000   0.00000   0.00000   0.00000   0.00000
 154       15F-1        0.00000   0.00000   0.00000   0.00003   0.00007
 155       15F+2        0.00000   0.00000   0.00000   0.00000  -0.00001
 156       15F-2        0.00000   0.00000   0.00000   0.00000   0.00000
 157       15F+3        0.00000   0.00000   0.00000   0.00000   0.00000
 158       15F-3       -0.00001   0.00000  -0.00001   0.00002   0.00009
 159       16F 0       -0.00005   0.00001   0.00005  -0.00093  -0.00171
 160       16F+1        0.00000   0.00000   0.00000   0.00000   0.00000
 161       16F-1       -0.00001   0.00000  -0.00002   0.00003   0.00005
 162       16F+2        0.00000   0.00000  -0.00001   0.00000   0.00002
 163       16F-2        0.00000   0.00000   0.00000   0.00000   0.00000
 164       16F+3        0.00000   0.00000   0.00000   0.00000   0.00000
 165       16F-3        0.00003   0.00000   0.00002  -0.00001  -0.00021
 166 6   F  1S          0.97743  -0.00002   0.21189   0.01316   0.02161
 167        2S         -0.01503   0.00000  -0.53161  -0.03405  -0.05730
 168        3S          0.04206   0.00000  -0.16471  -0.01081  -0.01853
 169        4S          0.00193  -0.00001  -0.36876  -0.02363  -0.04390
 170        5S         -0.00084  -0.00006  -0.04529   0.00420   0.00780
 171        6PX         0.00000   0.00000   0.00000   0.00000   0.00002
 172        6PY         0.00000   0.00000   0.00021   0.00020   0.00165
 173        6PZ         0.00048   0.00000   0.01352   0.01270   0.08743
 174        7PX         0.00000   0.00000   0.00000   0.00000   0.00002
 175        7PY         0.00000   0.00000   0.00024   0.00024   0.00200
 176        7PZ        -0.00012   0.00000   0.01475   0.01552   0.10520
 177        8PX         0.00000   0.00000   0.00000   0.00000   0.00002
 178        8PY         0.00001   0.00000   0.00020   0.00017   0.00151
 179        8PZ         0.00240  -0.00001   0.01247   0.01226   0.08367
 180        9PX         0.00000   0.00000   0.00000   0.00000   0.00000
 181        9PY         0.00000   0.00000   0.00007   0.00005   0.00037
 182        9PZ        -0.00008  -0.00002   0.00220   0.00316   0.02422
 183       10D 0       -0.00002   0.00000  -0.00013   0.00017   0.00060
 184       10D+1        0.00000   0.00000   0.00000   0.00000   0.00000
 185       10D-1        0.00000   0.00000   0.00000   0.00000   0.00001
 186       10D+2        0.00000   0.00000   0.00000   0.00000   0.00000
 187       10D-2        0.00000   0.00000   0.00000   0.00000   0.00000
 188       11D 0       -0.00003   0.00000  -0.00104   0.00091   0.00275
 189       11D+1        0.00000   0.00000   0.00000   0.00000   0.00000
 190       11D-1        0.00000   0.00000  -0.00001   0.00002   0.00007
 191       11D+2        0.00000   0.00000   0.00000   0.00000   0.00001
 192       11D-2        0.00000   0.00000   0.00000   0.00000   0.00000
 193       12D 0        0.00080   0.00000  -0.00055   0.00035   0.00386
 194       12D+1        0.00000   0.00000   0.00000   0.00000   0.00000
 195       12D-1        0.00001   0.00000   0.00001   0.00000   0.00004
 196       12D+2        0.00000   0.00000  -0.00001  -0.00001  -0.00001
 197       12D-2        0.00000   0.00000   0.00000   0.00000   0.00000
 198       13F 0       -0.00006   0.00000  -0.00002   0.00013   0.00027
 199       13F+1        0.00000   0.00000   0.00000   0.00000   0.00000
 200       13F-1        0.00000   0.00000   0.00000   0.00000   0.00001
 201       13F+2        0.00000   0.00000   0.00000   0.00000   0.00000
 202       13F-2        0.00000   0.00000   0.00000   0.00000   0.00000
 203       13F+3        0.00000   0.00000   0.00000   0.00000   0.00000
 204       13F-3        0.00001   0.00000   0.00001   0.00002   0.00003
 205       14F 0        0.00020   0.00000  -0.00040  -0.00006   0.00063
 206       14F+1        0.00000   0.00000   0.00000   0.00000   0.00000
 207       14F-1        0.00000   0.00000  -0.00001   0.00000   0.00001
 208       14F+2        0.00000   0.00000   0.00000  -0.00001  -0.00001
 209       14F-2        0.00000   0.00000   0.00000   0.00000   0.00000
 210       14F+3        0.00000   0.00000   0.00000   0.00000   0.00000
 211       14F-3       -0.00001   0.00000  -0.00007  -0.00006  -0.00009
                          11        12        13        14        15
     Eigenvalues --     1.96440   1.96434   1.95947   1.95898   1.94913
   1 1   C  1S          0.00000   0.00135   0.00000   0.00188   0.00000
   2        2S          0.00000  -0.00359   0.00000  -0.00497  -0.00001
   3        3S          0.00000  -0.00072   0.00000  -0.00092   0.00000
   4        4S          0.00000  -0.00025   0.00000   0.00479  -0.00001
   5        5S          0.00000   0.00118   0.00000   0.00202   0.00000
   6        6PX         0.10294   0.00000   0.23008   0.00004   0.06623
   7        6PY        -0.00001   0.09285  -0.00004   0.23172  -0.00001
   8        6PZ        -0.00002   0.00021  -0.00004   0.00010  -0.00001
   9        7PX         0.13780   0.00000   0.30493   0.00005   0.09215
  10        7PY        -0.00001   0.12449  -0.00005   0.30713  -0.00002
  11        7PZ        -0.00002   0.00012  -0.00005   0.00010  -0.00002
  12        8PX         0.10045   0.00000   0.23480   0.00004   0.07051
  13        8PY         0.00000   0.09151  -0.00004   0.23765  -0.00001
  14        8PZ        -0.00002   0.00045  -0.00004   0.00044  -0.00001
  15        9PX        -0.00204   0.00000   0.01883   0.00000   0.01203
  16        9PY         0.00000  -0.00234   0.00000   0.01906   0.00000
  17        9PZ         0.00000   0.00009   0.00000   0.00010   0.00000
  18       10D 0        0.00000   0.00007   0.00000   0.00004   0.00000
  19       10D+1       -0.00277   0.00000  -0.00129   0.00000  -0.00374
  20       10D-1        0.00000  -0.00264   0.00000  -0.00125   0.00000
  21       10D+2        0.00000   0.00595   0.00000   0.01492   0.00000
  22       10D-2        0.00652   0.00000   0.01470   0.00000   0.00490
  23       11D 0        0.00000   0.00011   0.00000  -0.00041   0.00001
  24       11D+1       -0.01277   0.00000   0.00771  -0.00001  -0.01560
  25       11D-1        0.00000  -0.01268  -0.00001   0.00761   0.00000
  26       11D+2        0.00001   0.01994   0.00001   0.04581   0.00000
  27       11D-2        0.02133  -0.00001   0.04476  -0.00001   0.01661
  28       12D 0        0.00000   0.00012   0.00000   0.00009   0.00000
  29       12D+1       -0.00601   0.00000   0.00573  -0.00001   0.00127
  30       12D-1        0.00000  -0.00616  -0.00001   0.00565   0.00000
  31       12D+2        0.00001   0.01970   0.00001   0.03674   0.00000
  32       12D-2        0.02043  -0.00001   0.03520  -0.00001   0.00969
  33       13F 0        0.00000  -0.00002   0.00000  -0.00003   0.00000
  34       13F+1        0.00022   0.00000  -0.00202   0.00000  -0.00221
  35       13F-1        0.00000   0.00028   0.00000  -0.00199   0.00000
  36       13F+2        0.00000  -0.00064   0.00000  -0.00014   0.00000
  37       13F-2       -0.00063   0.00000  -0.00010   0.00000  -0.00032
  38       13F+3        0.00000   0.00000   0.00003   0.00000   0.00001
  39       13F-3        0.00000  -0.00007   0.00000  -0.00009   0.00000
  40       14F 0        0.00000   0.00009   0.00000   0.00021   0.00000
  41       14F+1        0.00028   0.00000  -0.00595   0.00000  -0.00725
  42       14F-1        0.00000   0.00048   0.00000  -0.00570   0.00000
  43       14F+2        0.00000  -0.00388   0.00000  -0.00015   0.00000
  44       14F-2       -0.00384   0.00000  -0.00010   0.00000  -0.00319
  45       14F+3        0.00012   0.00000   0.00033   0.00000   0.00003
  46       14F-3        0.00000  -0.00009   0.00000   0.00018   0.00000
  47 2   H  1S         -0.00001  -0.06473   0.00000  -0.15283   0.00000
  48        2S         -0.00001  -0.05964   0.00000  -0.16028   0.00000
  49        3S          0.00000   0.05499   0.00000   0.11590   0.00000
  50        4S          0.00000  -0.00586   0.00000   0.01713   0.00000
  51        5PX         0.00212   0.00000   0.00421   0.00000   0.00099
  52        5PY         0.00000  -0.00505   0.00000  -0.01243   0.00000
  53        5PZ         0.00000   0.00011   0.00000  -0.00275   0.00000
  54        6PX         0.00819   0.00000   0.01330   0.00000   0.00348
  55        6PY         0.00000   0.00671   0.00000   0.01050   0.00000
  56        6PZ         0.00000  -0.00265   0.00000   0.00010   0.00000
  57        7PX         0.00930   0.00000   0.01293   0.00001   0.00261
  58        7PY         0.00000   0.01340   0.00000   0.04576   0.00000
  59        7PZ         0.00000   0.00050   0.00000   0.00739   0.00000
  60        8D 0        0.00000   0.00040   0.00000   0.00142   0.00000
  61        8D+1        0.00002   0.00000   0.00031   0.00000  -0.00004
  62        8D-1        0.00000  -0.00074   0.00000  -0.00027   0.00000
  63        8D+2        0.00000   0.00059   0.00000   0.00201   0.00000
  64        8D-2        0.00106   0.00000   0.00216   0.00000   0.00056
  65        9D 0        0.00000  -0.00052   0.00000   0.00144   0.00000
  66        9D+1       -0.00150   0.00000   0.00102   0.00000  -0.00116
  67        9D-1        0.00000  -0.00340   0.00000   0.00333   0.00000
  68        9D+2        0.00000  -0.00162   0.00000  -0.00284   0.00000
  69        9D-2        0.00168   0.00000   0.00284   0.00000   0.00109
  70 3   H  1S         -0.06130   0.03113  -0.13094   0.07477  -0.03957
  71        2S         -0.05503   0.02726  -0.13189   0.07435  -0.03844
  72        3S          0.05228  -0.02820   0.10407  -0.06152   0.00411
  73        4S         -0.00495   0.00290   0.01515  -0.00876   0.00090
  74        5PX        -0.00368   0.00296  -0.00830   0.00719  -0.00241
  75        5PY         0.00334   0.00035   0.00718   0.00040   0.00195
  76        5PZ        -0.00004  -0.00003  -0.00245   0.00139   0.00017
  77        6PX         0.00774   0.00025   0.01186   0.00075   0.00510
  78        6PY         0.00037   0.00767   0.00086   0.01348  -0.00079
  79        6PZ        -0.00246   0.00142   0.00048  -0.00025  -0.00100
  80        7PX         0.01371  -0.00162   0.03757  -0.01391   0.00764
  81        7PY        -0.00215   0.00992  -0.01365   0.02146  -0.00275
  82        7PZ         0.00068  -0.00030   0.00669  -0.00382   0.00264
  83        8D 0        0.00038  -0.00017   0.00116  -0.00065   0.00033
  84        8D+1       -0.00057   0.00032  -0.00009   0.00023  -0.00023
  85        8D-1        0.00034  -0.00017   0.00024   0.00019   0.00011
  86        8D+2        0.00020   0.00089   0.00012   0.00218   0.00003
  87        8D-2        0.00076   0.00023   0.00198   0.00024   0.00053
  88        9D 0       -0.00048   0.00028   0.00124  -0.00082  -0.00017
  89        9D+1       -0.00285   0.00078   0.00290  -0.00103  -0.00066
  90        9D-1        0.00073  -0.00200  -0.00106   0.00155  -0.00033
  91        9D+2        0.00149   0.00084   0.00241   0.00154   0.00095
  92        9D-2       -0.00082   0.00129  -0.00122   0.00230  -0.00048
  93 4   H  1S          0.06130   0.03112   0.13093   0.07477   0.03956
  94        2S          0.05503   0.02725   0.13189   0.07436   0.03844
  95        3S         -0.05229  -0.02820  -0.10406  -0.06153  -0.00411
  96        4S          0.00495   0.00290  -0.01515  -0.00876  -0.00090
  97        5PX        -0.00368  -0.00296  -0.00831  -0.00719  -0.00242
  98        5PY        -0.00334   0.00035  -0.00718   0.00041  -0.00195
  99        5PZ         0.00004  -0.00003   0.00245   0.00140  -0.00016
 100        6PX         0.00774  -0.00024   0.01186  -0.00074   0.00510
 101        6PY        -0.00037   0.00767  -0.00086   0.01348   0.00078
 102        6PZ         0.00245   0.00142  -0.00049  -0.00025   0.00100
 103        7PX         0.01371   0.00162   0.03757   0.01391   0.00764
 104        7PY         0.00214   0.00992   0.01364   0.02146   0.00275
 105        7PZ        -0.00069  -0.00030  -0.00671  -0.00382  -0.00265
 106        8D 0       -0.00038  -0.00017  -0.00116  -0.00065  -0.00033
 107        8D+1       -0.00057  -0.00032  -0.00009  -0.00023  -0.00023
 108        8D-1       -0.00034  -0.00017  -0.00024   0.00019  -0.00011
 109        8D+2       -0.00020   0.00089  -0.00011   0.00218  -0.00003
 110        8D-2        0.00076  -0.00023   0.00198  -0.00024   0.00053
 111        9D 0        0.00048   0.00028  -0.00124  -0.00082   0.00017
 112        9D+1       -0.00285  -0.00078   0.00290   0.00103  -0.00066
 113        9D-1       -0.00073  -0.00200   0.00106   0.00155   0.00033
 114        9D+2       -0.00149   0.00084  -0.00241   0.00154  -0.00095
 115        9D-2       -0.00082  -0.00129  -0.00122  -0.00230  -0.00048
 116 5   Cl 1S          0.00000   0.00022   0.00000   0.00030   0.00000
 117        2S          0.00000  -0.00082   0.00000  -0.00109   0.00000
 118        3S          0.00000   0.00181   0.00000   0.00248   0.00000
 119        4S          0.00000   0.00027   0.00000   0.00039   0.00000
 120        5S          0.00000   0.00096   0.00000   0.00138   0.00000
 121        6S          0.00000  -0.00055   0.00000  -0.00060   0.00000
 122        7PX        -0.00922   0.00000  -0.04178  -0.00001   0.22390
 123        7PY         0.00000  -0.00838   0.00001  -0.04559  -0.00004
 124        7PZ         0.00000  -0.00061   0.00001  -0.00154  -0.00004
 125        8PX         0.02186   0.00000   0.09883   0.00002  -0.51223
 126        8PY         0.00000   0.01981  -0.00002   0.10760   0.00009
 127        8PZ         0.00000   0.00147  -0.00002   0.00362   0.00009
 128        9PX         0.01013   0.00000   0.04564   0.00001  -0.24742
 129        9PY         0.00000   0.00921  -0.00001   0.04985   0.00004
 130        9PZ         0.00000   0.00064  -0.00001   0.00161   0.00004
 131       10PX         0.01085   0.00000   0.05306   0.00001  -0.36805
 132       10PY         0.00000   0.00994  -0.00001   0.05876   0.00006
 133       10PZ         0.00000   0.00118  -0.00001   0.00256   0.00006
 134       11PX         0.00211   0.00000   0.00303   0.00000  -0.06212
 135       11PY         0.00000   0.00214   0.00000   0.00379   0.00001
 136       11PZ         0.00000   0.00025   0.00000   0.00037   0.00001
 137       12D 0        0.00000  -0.00008   0.00000  -0.00020   0.00000
 138       12D+1       -0.00199   0.00000  -0.00609   0.00000   0.00030
 139       12D-1        0.00000  -0.00178   0.00000  -0.00627   0.00000
 140       12D+2        0.00000   0.00010   0.00000   0.00053   0.00000
 141       12D-2        0.00013   0.00000   0.00056   0.00000   0.00023
 142       13D 0        0.00000  -0.00020   0.00000  -0.00042   0.00000
 143       13D+1       -0.00310   0.00000  -0.01082   0.00000   0.00081
 144       13D-1        0.00000  -0.00272   0.00000  -0.01109   0.00000
 145       13D+2        0.00000   0.00030   0.00000   0.00061   0.00000
 146       13D-2        0.00034   0.00000   0.00067   0.00000   0.00054
 147       14D 0        0.00000  -0.00012   0.00000  -0.00027   0.00000
 148       14D+1        0.00006   0.00000   0.00005   0.00000   0.00342
 149       14D-1        0.00000   0.00007   0.00000   0.00004   0.00000
 150       14D+2        0.00000  -0.00066   0.00000  -0.00007   0.00000
 151       14D-2       -0.00065   0.00000  -0.00007   0.00000   0.00004
 152       15F 0        0.00000   0.00004   0.00000   0.00008   0.00000
 153       15F+1        0.00093   0.00000   0.00258   0.00000  -0.00143
 154       15F-1        0.00000   0.00084   0.00000   0.00267   0.00000
 155       15F+2        0.00000  -0.00010   0.00000  -0.00033   0.00000
 156       15F-2       -0.00012   0.00000  -0.00035   0.00000  -0.00008
 157       15F+3        0.00000   0.00000   0.00000   0.00000   0.00000
 158       15F-3        0.00000   0.00000   0.00000   0.00000   0.00000
 159       16F 0        0.00000   0.00005   0.00000   0.00009   0.00000
 160       16F+1        0.00062   0.00000   0.00198   0.00000  -0.00182
 161       16F-1        0.00000   0.00056   0.00000   0.00204   0.00000
 162       16F+2        0.00000   0.00002   0.00000   0.00020   0.00000
 163       16F-2        0.00001   0.00000   0.00017   0.00000  -0.00017
 164       16F+3        0.00000   0.00000   0.00001   0.00000  -0.00001
 165       16F-3        0.00000   0.00000   0.00000   0.00000   0.00000
 166 6   F  1S          0.00000  -0.00028   0.00000  -0.00030   0.00000
 167        2S          0.00000   0.00075   0.00000   0.00086   0.00000
 168        3S          0.00000   0.00025   0.00000   0.00029   0.00000
 169        4S          0.00000   0.00066   0.00000   0.00080   0.00000
 170        5S          0.00000  -0.00016   0.00000  -0.00002   0.00000
 171        6PX         0.32881   0.00001  -0.16879  -0.00002  -0.02204
 172        6PY        -0.00001   0.33534   0.00003  -0.15530   0.00000
 173        6PZ        -0.00006  -0.00447   0.00003  -0.00290   0.00002
 174        7PX         0.39225   0.00002  -0.20020  -0.00003  -0.02609
 175        7PY        -0.00002   0.40000   0.00003  -0.18409   0.00000
 176        7PZ        -0.00007  -0.00534   0.00003  -0.00348   0.00002
 177        8PX         0.31702   0.00001  -0.16809  -0.00002  -0.02231
 178        8PY        -0.00001   0.32349   0.00003  -0.15516   0.00000
 179        8PZ        -0.00005  -0.00429   0.00003  -0.00274   0.00002
 180        9PX         0.09958   0.00000  -0.05897  -0.00001  -0.01089
 181        9PY         0.00000   0.10177   0.00001  -0.05501   0.00000
 182        9PZ        -0.00002  -0.00133   0.00001  -0.00066   0.00001
 183       10D 0        0.00000  -0.00002   0.00000  -0.00002   0.00000
 184       10D+1        0.00060   0.00000   0.00008   0.00000   0.00012
 185       10D-1        0.00000   0.00060   0.00000   0.00011   0.00000
 186       10D+2        0.00000   0.00002   0.00000   0.00004   0.00000
 187       10D-2        0.00003   0.00000   0.00003   0.00000   0.00001
 188       11D 0        0.00000  -0.00006   0.00000  -0.00008   0.00000
 189       11D+1        0.00244   0.00000   0.00116   0.00000   0.00058
 190       11D-1        0.00000   0.00240   0.00000   0.00128   0.00000
 191       11D+2        0.00000   0.00003   0.00000   0.00025   0.00000
 192       11D-2        0.00007   0.00000   0.00025   0.00000   0.00017
 193       12D 0        0.00000  -0.00014   0.00000  -0.00011   0.00000
 194       12D+1        0.00587   0.00000  -0.00366   0.00000   0.00034
 195       12D-1        0.00000   0.00600   0.00000  -0.00345   0.00000
 196       12D+2        0.00000   0.00001   0.00000  -0.00026   0.00000
 197       12D-2        0.00005   0.00000  -0.00030   0.00000  -0.00036
 198       13F 0        0.00000  -0.00001   0.00000  -0.00001   0.00000
 199       13F+1        0.00022   0.00000   0.00025   0.00000   0.00006
 200       13F-1        0.00000   0.00021   0.00000   0.00026   0.00000
 201       13F+2        0.00000   0.00005   0.00000   0.00011   0.00000
 202       13F-2        0.00006   0.00000   0.00011   0.00000   0.00006
 203       13F+3        0.00000   0.00000   0.00000   0.00000   0.00000
 204       13F-3        0.00000   0.00000   0.00000   0.00000   0.00000
 205       14F 0        0.00000  -0.00004   0.00000  -0.00001   0.00000
 206       14F+1        0.00144   0.00000  -0.00090   0.00000   0.00002
 207       14F-1        0.00000   0.00148   0.00000  -0.00085   0.00000
 208       14F+2        0.00000  -0.00014   0.00000  -0.00023   0.00000
 209       14F-2       -0.00012   0.00000  -0.00024   0.00000  -0.00016
 210       14F+3        0.00000   0.00000   0.00000   0.00000   0.00000
 211       14F-3        0.00000   0.00000   0.00000   0.00000   0.00000
                          16        17        18        19        20
     Eigenvalues --     1.94909   1.94879   1.93535   0.06019   0.02496
   1 1   C  1S         -0.00488   0.05312  -0.01580  -0.02406   0.00357
   2        2S          0.01395  -0.15123   0.05098   0.06680  -0.01306
   3        3S          0.00338  -0.03568   0.01676   0.02432  -0.00624
   4        4S          0.03003  -0.29063   0.08706  -0.22144   0.00266
   5        5S          0.00605  -0.05731   0.03918  -0.02902   0.00214
   6        6PX         0.00001  -0.00001  -0.00002   0.00005   0.00006
   7        6PY         0.06945   0.00864  -0.00070   0.00011   0.16201
   8        6PZ         0.00431  -0.04549  -0.12872   0.27937   0.00080
   9        7PX         0.00002  -0.00001  -0.00003   0.00008   0.00011
  10        7PY         0.09637   0.01208  -0.00121   0.00093   0.30229
  11        7PZ         0.00608  -0.06446  -0.18059   0.44327   0.00110
  12        8PX         0.00001  -0.00001  -0.00001   0.00004   0.00005
  13        8PY         0.07447   0.00969  -0.00135   0.00085   0.13811
  14        8PZ         0.00604  -0.06393  -0.07660   0.20176  -0.00058
  15        9PX         0.00000   0.00000   0.00000   0.00000   0.00001
  16        9PY         0.01241   0.00159  -0.00030  -0.00013   0.02923
  17        9PZ         0.00012  -0.00123  -0.00166  -0.00006   0.00029
  18       10D 0       -0.00093   0.00931  -0.01106  -0.00881   0.00003
  19       10D+1        0.00000   0.00000   0.00000   0.00000   0.00001
  20       10D-1       -0.00371  -0.00038   0.00003   0.00013   0.02537
  21       10D+2        0.00513   0.00053   0.00003   0.00003   0.00326
  22       10D-2        0.00000   0.00000   0.00000   0.00000   0.00000
  23       11D 0       -0.00505   0.04957  -0.04570   0.06669  -0.00227
  24       11D+1       -0.00001   0.00001  -0.00001   0.00002   0.00001
  25       11D-1       -0.01528  -0.00128   0.00010  -0.00070   0.05930
  26       11D+2        0.01749   0.00177  -0.00002  -0.00009   0.07353
  27       11D-2       -0.00001   0.00000   0.00000   0.00000   0.00001
  28       12D 0       -0.00260   0.02805  -0.00381  -0.01694   0.00005
  29       12D+1        0.00000   0.00001   0.00000   0.00000   0.00000
  30       12D-1        0.00110   0.00012   0.00006  -0.00027   0.01956
  31       12D+2        0.01053   0.00087   0.00008  -0.00066   0.01784
  32       12D-2        0.00000   0.00000   0.00000   0.00000   0.00000
  33       13F 0        0.00019  -0.00207  -0.00328  -0.00586  -0.00013
  34       13F+1        0.00000   0.00000   0.00000   0.00000   0.00000
  35       13F-1       -0.00224  -0.00028   0.00004  -0.00006  -0.00996
  36       13F+2       -0.00034  -0.00005   0.00001   0.00003   0.00321
  37       13F-2        0.00000   0.00000   0.00000   0.00000   0.00000
  38       13F+3        0.00000   0.00000   0.00000   0.00000   0.00000
  39       13F-3        0.00027  -0.00306   0.00115  -0.00053  -0.00008
  40       14F 0        0.00051  -0.00544  -0.00087   0.01162  -0.00054
  41       14F+1        0.00000   0.00000   0.00000   0.00001   0.00000
  42       14F-1       -0.00721  -0.00090   0.00010  -0.00027  -0.00307
  43       14F+2       -0.00330  -0.00018   0.00000  -0.00045  -0.00248
  44       14F-2        0.00000   0.00000   0.00000   0.00001   0.00000
  45       14F+3        0.00000  -0.00001   0.00000  -0.00001   0.00000
  46       14F-3        0.00154  -0.01500   0.00917  -0.03769   0.00056
  47 2   H  1S         -0.04457  -0.03940   0.02913  -0.00668   0.04909
  48        2S         -0.04832  -0.00976   0.02350   0.08061   0.28124
  49        3S          0.00313   0.02161   0.02039   0.06776   0.17655
  50        4S          0.00104   0.00027   0.00182   0.00734   0.07125
  51        5PX         0.00000   0.00000   0.00000   0.00000   0.00000
  52        5PY        -0.00346  -0.00254   0.00247  -0.00187  -0.00886
  53        5PZ         0.00043  -0.00263  -0.00314   0.01399  -0.01198
  54        6PX         0.00000   0.00000   0.00000   0.00001   0.00001
  55        6PY         0.00491   0.00634  -0.00175   0.01098   0.06390
  56        6PZ        -0.00108  -0.00101  -0.01017   0.02771  -0.00530
  57        7PX         0.00000   0.00000   0.00000   0.00000   0.00001
  58        7PY         0.00908   0.01241  -0.00194   0.01278   0.05286
  59        7PZ         0.00201   0.00821   0.00321  -0.01378   0.00618
  60        8D 0        0.00043   0.00018  -0.00084   0.00051   0.00253
  61        8D+1        0.00000   0.00000   0.00000   0.00000   0.00000
  62        8D-1       -0.00028  -0.00022  -0.00168   0.00662  -0.00394
  63        8D+2        0.00050   0.00056  -0.00060   0.00171   0.00249
  64        8D-2        0.00000   0.00000   0.00000   0.00000   0.00000
  65        9D 0       -0.00020   0.00078  -0.00279   0.00573  -0.00435
  66        9D+1        0.00000   0.00000   0.00000   0.00000   0.00000
  67        9D-1       -0.00066   0.00201  -0.00060  -0.00566   0.01554
  68        9D+2       -0.00126   0.00092   0.00038  -0.00117  -0.01059
  69        9D-2        0.00000   0.00000   0.00000   0.00000   0.00001
  70 3   H  1S          0.02695  -0.03079   0.02871  -0.00691  -0.01838
  71        2S          0.02297  -0.00001   0.02251   0.07961  -0.13181
  72        3S         -0.00591   0.02184   0.02030   0.06925  -0.08752
  73        4S         -0.00067   0.00003   0.00198   0.00716  -0.03587
  74        5PX         0.00224  -0.00161   0.00216  -0.00182   0.00518
  75        5PY        -0.00015   0.00107  -0.00125   0.00102   0.00036
  76        5PZ         0.00019  -0.00268  -0.00325   0.01445   0.00612
  77        6PX        -0.00135   0.00467  -0.00132   0.00829  -0.02323
  78        6PY         0.00466  -0.00199   0.00056  -0.00404   0.02172
  79        6PZ         0.00070  -0.00099  -0.01035   0.02845   0.00225
  80        7PX        -0.00406   0.00908  -0.00126   0.01082  -0.02263
  81        7PY         0.00529  -0.00498   0.00079  -0.00659   0.01291
  82        7PZ        -0.00228   0.00795   0.00315  -0.01411  -0.00342
  83        8D 0       -0.00021   0.00013  -0.00085   0.00065  -0.00132
  84        8D+1        0.00013  -0.00017  -0.00149   0.00592   0.00250
  85        8D-1       -0.00010   0.00010   0.00085  -0.00332   0.00045
  86        8D+2        0.00063  -0.00019   0.00030  -0.00097   0.00242
  87        8D-2        0.00001   0.00047  -0.00053   0.00167   0.00000
  88        9D 0       -0.00005   0.00084  -0.00284   0.00608   0.00140
  89        9D+1       -0.00050   0.00173  -0.00047  -0.00523  -0.00498
  90        9D-1       -0.00089  -0.00102   0.00022   0.00293   0.00714
  91        9D+2        0.00065  -0.00048  -0.00018   0.00059  -0.00162
  92        9D-2        0.00085   0.00105   0.00029  -0.00094   0.00479
  93 4   H  1S          0.02696  -0.03079   0.02871  -0.00691  -0.01840
  94        2S          0.02297  -0.00001   0.02251   0.07961  -0.13193
  95        3S         -0.00591   0.02184   0.02030   0.06925  -0.08760
  96        4S         -0.00067   0.00003   0.00198   0.00716  -0.03590
  97        5PX        -0.00224   0.00161  -0.00216   0.00182  -0.00519
  98        5PY        -0.00015   0.00107  -0.00125   0.00102   0.00035
  99        5PZ         0.00019  -0.00268  -0.00325   0.01445   0.00613
 100        6PX         0.00135  -0.00467   0.00131  -0.00828   0.02326
 101        6PY         0.00466  -0.00199   0.00056  -0.00404   0.02172
 102        6PZ         0.00070  -0.00099  -0.01035   0.02845   0.00224
 103        7PX         0.00406  -0.00908   0.00126  -0.01083   0.02266
 104        7PY         0.00529  -0.00498   0.00079  -0.00659   0.01291
 105        7PZ        -0.00228   0.00795   0.00315  -0.01411  -0.00343
 106        8D 0       -0.00021   0.00013  -0.00085   0.00065  -0.00132
 107        8D+1       -0.00013   0.00017   0.00149  -0.00592  -0.00251
 108        8D-1       -0.00010   0.00010   0.00085  -0.00332   0.00045
 109        8D+2        0.00063  -0.00019   0.00030  -0.00097   0.00242
 110        8D-2       -0.00001  -0.00047   0.00053  -0.00167   0.00000
 111        9D 0       -0.00005   0.00084  -0.00284   0.00608   0.00140
 112        9D+1        0.00050  -0.00173   0.00047   0.00524   0.00499
 113        9D-1       -0.00089  -0.00102   0.00022   0.00292   0.00714
 114        9D+2        0.00065  -0.00048  -0.00018   0.00060  -0.00162
 115        9D-2       -0.00085  -0.00105  -0.00029   0.00094  -0.00479
 116 5   Cl 1S         -0.00093   0.01017   0.00050  -0.01679   0.00004
 117        2S          0.00355  -0.03882  -0.00167   0.05630  -0.00014
 118        3S         -0.00722   0.08024   0.01125  -0.15673   0.00036
 119        4S         -0.00111   0.01238   0.00452  -0.03985   0.00000
 120        5S         -0.00633   0.06877   0.01222  -0.04603   0.00068
 121        6S         -0.00213   0.02031  -0.01253   0.01582   0.00001
 122        7PX         0.00004   0.00000  -0.00004  -0.00003   0.00001
 123        7PY         0.22217   0.02158   0.00093   0.00095   0.02104
 124        7PZ        -0.00174   0.02658  -0.21012  -0.16340   0.00116
 125        8PX        -0.00009   0.00000   0.00008   0.00006  -0.00001
 126        8PY        -0.50826  -0.04934  -0.00202  -0.00209  -0.03273
 127        8PZ         0.00408  -0.06206   0.46462   0.36066  -0.00265
 128        9PX        -0.00004   0.00000   0.00004   0.00004  -0.00001
 129        9PY        -0.24554  -0.02385  -0.00092  -0.00119  -0.03497
 130        9PZ         0.00202  -0.03096   0.21829   0.20646  -0.00170
 131       10PX        -0.00006  -0.00001   0.00006   0.00001   0.00001
 132       10PY        -0.36549  -0.03554  -0.00131  -0.00001   0.01638
 133       10PZ         0.00558  -0.07198   0.31775   0.02934   0.00060
 134       11PX        -0.00001   0.00000   0.00001   0.00000   0.00000
 135       11PY        -0.06187  -0.00611  -0.00004   0.00004   0.00602
 136       11PZ         0.00202  -0.02392   0.04618   0.00728   0.00027
 137       12D 0        0.00040  -0.00471  -0.01240   0.06747  -0.00334
 138       12D+1        0.00000   0.00000   0.00000   0.00002  -0.00002
 139       12D-1        0.00014  -0.00003   0.00018  -0.00057  -0.05774
 140       12D+2        0.00026   0.00003  -0.00001   0.00000   0.00011
 141       12D-2        0.00000   0.00000   0.00000   0.00000  -0.00001
 142       13D 0        0.00062  -0.00752  -0.01943   0.09787  -0.00482
 143       13D+1        0.00000   0.00000  -0.00001   0.00003  -0.00004
 144       13D-1        0.00055  -0.00003   0.00031  -0.00101  -0.08612
 145       13D+2        0.00058   0.00005  -0.00001   0.00001   0.00017
 146       13D-2        0.00000   0.00000   0.00000   0.00000  -0.00001
 147       14D 0       -0.00023   0.00151  -0.01323   0.03014  -0.00039
 148       14D+1        0.00000   0.00000   0.00000   0.00001   0.00000
 149       14D-1        0.00328   0.00026   0.00021  -0.00036  -0.00905
 150       14D+2        0.00010   0.00001  -0.00002   0.00004   0.00003
 151       14D-2        0.00000   0.00000   0.00000   0.00000   0.00000
 152       15F 0       -0.00010   0.00098   0.00459  -0.00358   0.00025
 153       15F+1        0.00000   0.00000   0.00000   0.00000   0.00000
 154       15F-1       -0.00137  -0.00013  -0.00007   0.00003   0.00501
 155       15F+2       -0.00012  -0.00002   0.00000   0.00001  -0.00015
 156       15F-2        0.00000   0.00000   0.00000   0.00000   0.00000
 157       15F+3        0.00000   0.00000   0.00000   0.00000   0.00000
 158       15F-3        0.00000  -0.00007   0.00004   0.00004   0.00000
 159       16F 0       -0.00014   0.00136   0.00401   0.00164   0.00013
 160       16F+1        0.00000   0.00000   0.00000   0.00000   0.00000
 161       16F-1       -0.00176  -0.00014  -0.00011   0.00011   0.00016
 162       16F+2       -0.00023   0.00000   0.00001  -0.00003   0.00110
 163       16F-2        0.00000   0.00000   0.00000   0.00000   0.00000
 164       16F+3        0.00000   0.00000   0.00000   0.00000   0.00000
 165       16F-3       -0.00002   0.00014  -0.00014   0.00032   0.00000
 166 6   F  1S          0.00108  -0.01175   0.01232  -0.02199  -0.00005
 167        2S         -0.00230   0.02589  -0.03336   0.06447   0.00034
 168        3S         -0.00070   0.00788  -0.01109   0.03294   0.00010
 169        4S         -0.00149   0.01673  -0.03408   0.01399  -0.00039
[...]
  84        8D+1        0.00856  -0.00993  -0.03025   0.00807   0.00926
  85        8D-1       -0.01111  -0.03644  -0.00709  -0.00357   0.00050
  86        8D+2        0.08034   0.07521   0.04692   0.02576   0.01244
  87        8D-2       -0.09970   0.07117   0.04132  -0.04245   0.03006
  88        9D 0       -0.51428  -0.12453   0.42542  -0.15412   0.12093
  89        9D+1       -0.16864   0.28927  -0.05444  -0.03693  -0.15675
  90        9D-1        0.16214   0.22046   0.25813   0.01959  -0.00439
  91        9D+2       -0.29970  -0.99532  -1.41023  -0.33161  -0.51473
  92        9D-2       -0.01499  -1.39739   0.55057   0.64006  -0.12645
  93 4   H  1S         -0.03590   0.00331  -0.00948  -0.00850   0.01296
  94        2S          0.54424   1.72887   3.09135  -0.55050  -1.12797
  95        3S          9.73228  12.53350  24.13864  -3.18240 -12.96827
  96        4S          1.44257  -1.15481  -1.74179  -1.84258  -5.59269
  97        5PX        -0.03072   0.00489   0.10712  -0.07809  -0.07388
  98        5PY         0.00110   0.10622  -0.00235  -0.04888   0.01079
  99        5PZ         0.05965  -0.00498   0.00938   0.03195   0.00574
 100        6PX        -0.61204  -0.27766  -2.23117   0.59132   0.80605
 101        6PY        -0.60610  -1.59688  -0.39698   0.38132  -0.07045
 102        6PZ        -0.32071   0.07190   0.03042  -0.17122  -0.08566
 103        7PX        -0.85399   0.68983  -9.90898   1.59727   4.81442
 104        7PY        -2.41835 -10.04793   0.51502   1.15987  -0.79405
 105        7PZ        -1.16949   1.91292   2.94383  -0.00062  -0.39538
 106        8D 0       -0.03810   0.00364  -0.01181   0.02460   0.01059
 107        8D+1       -0.00861   0.00989  -0.03024  -0.00807  -0.00926
 108        8D-1       -0.01114  -0.03642   0.00708  -0.00358   0.00051
 109        8D+2        0.08040   0.07517  -0.04688   0.02578   0.01242
 110        8D-2        0.09964  -0.07121   0.04138   0.04244  -0.03007
 111        9D 0       -0.51429  -0.12434  -0.42553  -0.15414   0.12088
 112        9D+1        0.16850  -0.28892  -0.05521   0.03695   0.15704
 113        9D-1        0.16217   0.22004  -0.25826   0.01980  -0.00445
 114        9D+2       -0.30000  -0.99469   1.41039  -0.33189  -0.51459
 115        9D-2        0.01507   1.39795   0.54977  -0.63987   0.12665
 116 5   Cl 1S          0.01992  -0.00378   0.00000   0.01172   0.00041
 117        2S          0.27542  -0.05296   0.00004   0.16290   0.00637
 118        3S          0.76834  -0.14628   0.00011   0.45791   0.01649
 119        4S         -0.04082   0.00970  -0.00001  -0.01432  -0.00241
 120        5S         -4.28860   0.78286  -0.00063  -3.01563  -0.10007
 121        6S         -9.65839   1.79478  -0.00128 -13.23981  -0.25896
 122        7PX         0.00000   0.00000   0.00091   0.00000   0.00000
 123        7PY         0.00032   0.00061   0.00000   0.00036  -0.00298
 124        7PZ        -0.00453   0.00080   0.00000  -0.02274  -0.00055
 125        8PX        -0.00001   0.00000   0.01999  -0.00005  -0.00001
 126        8PY         0.00676   0.01563   0.00000   0.00740  -0.05959
 127        8PZ        -0.06383   0.01114  -0.00001  -0.31751  -0.00662
 128        9PX         0.00000   0.00000  -0.00444   0.00001   0.00000
 129        9PY        -0.00133  -0.00314   0.00000  -0.00115   0.00996
 130        9PZ         0.00195  -0.00034   0.00000   0.07964   0.00202
 131       10PX         0.00103  -0.00019  -0.06774   0.00090   0.00011
 132       10PY        -0.03929  -0.05545   0.00001  -0.07429   0.42411
 133       10PZ         5.81801  -1.07460   0.00082   5.07208   0.11898
 134       11PX         0.00028  -0.00016  -1.16553   0.00059  -0.00004
 135       11PY        -0.22610  -1.10948   0.00013  -0.02322  -0.24529
 136       11PZ         0.77789  -0.14787   0.00029   3.35830   0.06925
 137       12D 0        0.06712  -0.01204   0.00000   0.00176  -0.00024
 138       12D+1        0.00002   0.00000   0.03137   0.00000   0.00000
 139       12D-1        0.00634   0.02954   0.00000   0.00043  -0.00362
 140       12D+2       -0.00243  -0.00707   0.00000   0.00016   0.01239
 141       12D-2        0.00000   0.00001  -0.00804   0.00000   0.00000
 142       13D 0       -0.38206   0.07012  -0.00002  -0.07019  -0.00054
 143       13D+1       -0.00011   0.00000  -0.11638  -0.00002   0.00001
 144       13D-1       -0.02350  -0.10764   0.00001  -0.00177   0.02545
 145       13D+2        0.00640   0.01546  -0.00001  -0.00026  -0.04458
 146       13D-2       -0.00001  -0.00002   0.01875   0.00000   0.00001
 147       14D 0       -1.37005   0.25536  -0.00028  -1.23981  -0.02676
 148       14D+1       -0.00046   0.00012   0.30961  -0.00038  -0.00011
 149       14D-1        0.08314   0.29102  -0.00002   0.05002  -0.32788
 150       14D+2       -0.01263  -0.06072   0.00004  -0.00603   0.20285
 151       14D-2        0.00003   0.00007  -0.06708   0.00001  -0.00009
 152       15F 0       -0.04233   0.00809  -0.00001   0.00125   0.00021
 153       15F+1       -0.00002   0.00001   0.00468   0.00000  -0.00001
 154       15F-1        0.00289   0.00402   0.00000   0.00256  -0.01889
 155       15F+2       -0.00116  -0.00940   0.00000  -0.00050   0.01013
 156       15F-2        0.00000   0.00000  -0.00983   0.00000  -0.00001
 157       15F+3        0.00000   0.00000  -0.00011   0.00001   0.00000
 158       15F-3       -0.00925   0.00126   0.00000   0.02292   0.00030
 159       16F 0        0.22955  -0.04228   0.00004   0.08884   0.00068
 160       16F+1        0.00010  -0.00003  -0.01416   0.00004   0.00003
 161       16F-1       -0.00929  -0.01436  -0.00001  -0.01083   0.06458
 162       16F+2        0.00650   0.04507   0.00001   0.00232  -0.04218
 163       16F-2       -0.00001  -0.00002   0.04602   0.00001   0.00003
 164       16F+3        0.00001   0.00001   0.00025  -0.00002  -0.00001
 165       16F-3        0.01926  -0.00264   0.00001  -0.04282  -0.00053
 166 6   F  1S          0.03952  -0.00707   0.00001  -0.02272   0.00053
 167        2S          0.13901  -0.02483   0.00002  -0.08631   0.00245
 168        3S         -0.07086   0.01270  -0.00001   0.03678  -0.00030
 169        4S         -0.37234   0.06943  -0.00006  -0.01890  -0.01660
 170        5S         -0.05186   0.05792   0.00001  -5.93280  -0.12912
 171        6PX         0.00000   0.00000  -0.00741   0.00000   0.00000
 172        6PY        -0.00143  -0.00704   0.00000  -0.00013   0.00172
 173        6PZ         0.00533  -0.00083   0.00000   0.00222   0.00011
 174        7PX        -0.00002   0.00001   0.03818   0.00000   0.00000
 175        7PY         0.00673   0.03658   0.00000   0.00062  -0.00625
 176        7PZ        -0.06275   0.01086  -0.00002   0.00270  -0.00022
 177        8PX         0.00014  -0.00005  -0.26606  -0.00004   0.00000
 178        8PY        -0.04092  -0.25723   0.00003  -0.00311   0.00213
 179        8PZ         0.61977  -0.10652   0.00014  -0.24694  -0.01096
 180        9PX        -0.00005  -0.00007  -0.85039  -0.00043  -0.00006
 181        9PY        -0.13606  -0.81682   0.00010  -0.01393  -0.22921
 182        9PZ        -0.85509   0.15803   0.00004  -2.49121  -0.05420
 183       10D 0        0.01112  -0.00220   0.00001  -0.00799   0.00000
 184       10D+1        0.00000   0.00000  -0.01494   0.00000   0.00000
 185       10D-1       -0.00264  -0.01436   0.00000  -0.00056   0.00227
 186       10D+2        0.00134   0.00484   0.00000  -0.00004   0.00286
 187       10D-2        0.00000   0.00000   0.00487   0.00000   0.00000
 188       11D 0       -0.04112   0.00824  -0.00002   0.01579  -0.00032
 189       11D+1       -0.00002   0.00001   0.04803   0.00000   0.00000
 190       11D-1        0.00829   0.04619   0.00000   0.00162  -0.00405
 191       11D+2       -0.00461  -0.01641   0.00000   0.00032  -0.01011
 192       11D-2        0.00001   0.00001  -0.01647   0.00000   0.00000
 193       12D 0        0.40872  -0.07783   0.00010  -0.01169   0.00009
 194       12D+1        0.00014  -0.00005  -0.13903   0.00000  -0.00001
 195       12D-1       -0.01834  -0.13586   0.00001  -0.00282  -0.03037
 196       12D+2        0.01627   0.06094   0.00000  -0.00088   0.01923
 197       12D-2       -0.00002  -0.00003   0.06208   0.00000  -0.00001
 198       13F 0       -0.02684   0.00545   0.00000  -0.00757  -0.00033
 199       13F+1       -0.00001   0.00000  -0.01875   0.00000   0.00000
 200       13F-1       -0.00395  -0.01816   0.00000  -0.00077   0.00806
 201       13F+2       -0.00193  -0.00874  -0.00001  -0.00053   0.00276
 202       13F-2        0.00000   0.00000  -0.00926   0.00000   0.00000
 203       13F+3        0.00000   0.00000  -0.00049   0.00000   0.00000
 204       13F-3        0.01255  -0.00230   0.00000  -0.00134  -0.00044
 205       14F 0        0.06673  -0.01379  -0.00001   0.01175   0.00051
 206       14F+1        0.00002  -0.00001   0.04060   0.00000   0.00000
 207       14F-1        0.00895   0.03907  -0.00001   0.00121  -0.01779
 208       14F+2        0.00512   0.02436   0.00002   0.00091  -0.00657
 209       14F-2        0.00000   0.00000   0.02560   0.00000   0.00000
 210       14F+3       -0.00001   0.00001   0.00065   0.00000   0.00000
 211       14F-3       -0.01694   0.00309   0.00000   0.00254   0.00080
                         211
     Eigenvalues --     0.00000
   1 1   C  1S          0.00000
   2        2S         -0.00001
   3        3S          0.00000
   4        4S         -0.00018
   5        5S         -0.00013
   6        6PX        -0.00816
   7        6PY         0.00000
   8        6PZ         0.00000
   9        7PX         1.60074
  10        7PY        -0.00033
  11        7PZ        -0.00028
  12        8PX        17.52857
  13        8PY        -0.00373
  14        8PZ        -0.00311
  15        9PX         7.93760
  16        9PY        -0.00170
  17        9PZ        -0.00142
  18       10D 0        0.00000
  19       10D+1       -0.00240
  20       10D-1        0.00000
  21       10D+2        0.00000
  22       10D-2        0.02274
  23       11D 0        0.00007
  24       11D+1       -0.21260
  25       11D-1       -0.00004
  26       11D+2        0.00004
  27       11D-2        0.45015
  28       12D 0        0.00037
  29       12D+1       -1.29209
  30       12D-1        0.00037
  31       12D+2       -0.00034
  32       12D-2       -0.56643
  33       13F 0       -0.00002
  34       13F+1        0.03748
  35       13F-1       -0.00001
  36       13F+2        0.00001
  37       13F-2        0.00909
  38       13F+3       -0.00101
  39       13F-3        0.00000
  40       14F 0        0.00018
  41       14F+1       -0.41064
  42       14F-1        0.00011
  43       14F+2       -0.00013
  44       14F-2       -0.07947
  45       14F+3        0.00490
  46       14F-3       -0.00002
  47 2   H  1S          0.00000
  48        2S         -0.00018
  49        3S         -0.00218
  50        4S         -0.00096
  51        5PX         0.04997
  52        5PY         0.00000
  53        5PZ        -0.00001
  54        6PX        -0.49850
  55        6PY        -0.00004
  56        6PZ         0.00008
  57        7PX        -3.39505
  58        7PY        -0.00018
  59        7PZ         0.00052
  60        8D 0        0.00000
  61        8D+1        0.00523
  62        8D-1        0.00000
  63        8D+2        0.00001
  64        8D-2        0.02798
  65        9D 0        0.00005
  66        9D+1       -0.08871
  67        9D-1        0.00009
  68        9D+2       -0.00014
  69        9D-2       -0.55418
  70 3   H  1S         -0.02496
  71        2S          2.03268
  72        3S         22.84269
  73        4S          9.74222
  74        5PX        -0.07506
  75        5PY         0.07244
  76        5PZ        -0.00983
  77        6PX         0.90248
  78        6PY        -0.80427
  79        6PZ         0.15433
  80        7PX         4.79450
  81        7PY        -4.74859
  82        7PZ         0.71192
  83        8D 0       -0.01733
  84        8D+1       -0.00924
  85        8D-1        0.00894
  86        8D+2        0.03174
  87        8D-2       -0.02499
  88        9D 0       -0.23403
  89        9D+1        0.18451
  90        9D-1       -0.16017
  91        9D+2       -0.11740
  92        9D-2       -0.35016
  93 4   H  1S          0.02495
  94        2S         -2.03248
  95        3S        -22.84035
  96        4S         -9.74121
  97        5PX        -0.07506
  98        5PY        -0.07242
  99        5PZ         0.00985
 100        6PX         0.90249
 101        6PY         0.80405
 102        6PZ        -0.15464
 103        7PX         4.79461
 104        7PY         4.74747
 105        7PZ        -0.71357
 106        8D 0        0.01733
 107        8D+1       -0.00922
 108        8D-1       -0.00893
 109        8D+2       -0.03176
 110        8D-2       -0.02497
 111        9D 0        0.23389
 112        9D+1        0.18462
 113        9D-1        0.16025
 114        9D+2        0.11738
 115        9D-2       -0.35018
 116 5   Cl 1S          0.00000
 117        2S          0.00000
 118        3S          0.00000
 119        4S          0.00000
 120        5S          0.00001
 121        6S          0.00004
 122        7PX        -0.00296
 123        7PY         0.00000
 124        7PZ         0.00000
 125        8PX        -0.05859
 126        8PY         0.00001
 127        8PZ         0.00001
 128        9PX         0.00999
 129        9PY         0.00000
 130        9PZ         0.00000
 131       10PX         0.41769
 132       10PY        -0.00009
 133       10PZ        -0.00009
 134       11PX        -0.25337
 135       11PY         0.00005
 136       11PZ         0.00003
 137       12D 0        0.00000
 138       12D+1       -0.00359
 139       12D-1        0.00000
 140       12D+2        0.00000
 141       12D-2        0.01194
 142       13D 0       -0.00001
 143       13D+1        0.02520
 144       13D-1        0.00000
 145       13D+2        0.00000
 146       13D-2       -0.04320
 147       14D 0        0.00010
 148       14D+1       -0.31885
 149       14D-1        0.00003
 150       14D+2       -0.00002
 151       14D-2        0.20023
 152       15F 0        0.00001
 153       15F+1       -0.01791
 154       15F-1        0.00000
 155       15F+2        0.00000
 156       15F-2        0.01053
 157       15F+3       -0.00026
 158       15F-3        0.00000
 159       16F 0       -0.00003
 160       16F+1        0.06069
 161       16F-1        0.00000
 162       16F+2        0.00001
 163       16F-2       -0.04248
 164       16F+3        0.00043
 165       16F-3       -0.00001
 166 6   F  1S          0.00000
 167        2S          0.00000
 168        3S          0.00000
 169        4S          0.00000
 170        5S          0.00002
 171        6PX         0.00168
 172        6PY         0.00000
 173        6PZ         0.00000
 174        7PX        -0.00600
 175        7PY         0.00000
 176        7PZ         0.00000
 177        8PX         0.00018
 178        8PY         0.00000
 179        8PZ         0.00000
 180        9PX        -0.23208
 181        9PY         0.00005
 182        9PZ         0.00005
 183       10D 0        0.00000
 184       10D+1        0.00210
 185       10D-1        0.00000
 186       10D+2        0.00000
 187       10D-2        0.00283
 188       11D 0        0.00000
 189       11D+1       -0.00348
 190       11D-1        0.00000
 191       11D+2        0.00000
 192       11D-2       -0.01002
 193       12D 0        0.00001
 194       12D+1       -0.03317
 195       12D-1        0.00000
 196       12D+2        0.00000
 197       12D-2        0.01886
 198       13F 0        0.00000
 199       13F+1        0.00804
 200       13F-1        0.00000
 201       13F+2        0.00000
 202       13F-2        0.00256
 203       13F+3       -0.00007
 204       13F-3        0.00000
 205       14F 0        0.00001
 206       14F+1       -0.01791
 207       14F-1        0.00001
 208       14F+2       -0.00001
 209       14F-2       -0.00628
 210       14F+3        0.00011
 211       14F-3        0.00000
          Condensed to atoms (all electrons):
              1          2          3          4          5          6
     1  C    7.011384  -0.002277  -0.012539  -0.012537  -0.050813  -0.099798
     2  H   -0.002277   0.547253   0.020136   0.020136  -0.018772   0.003308
     3  H   -0.012539   0.020136   0.546955   0.019959  -0.018757   0.004824
     4  H   -0.012537   0.020136   0.019959   0.546955  -0.018757   0.004822
     5  Cl  -0.050813  -0.018772  -0.018757  -0.018757  17.709185   0.026397
     6  F   -0.099798   0.003308   0.004824   0.004822   0.026397   9.907605
 Mulliken atomic charges:
              1
     1  C   -0.833420
     2  H    0.430217
     3  H    0.439422
     4  H    0.439423
     5  Cl  -0.628483
     6  F   -0.847159
 Sum of Mulliken atomic charges =  -1.00000
 Mulliken charges with hydrogens summed into heavy atoms:
              1
     1  C    0.475642
     5  Cl  -0.628483
     6  F   -0.847159
 Sum of Mulliken charges with hydrogens summed into heavy atoms =  -1.00000
 Electronic spatial extent (au):  <R**2>=            490.3154
 Charge=             -1.0000 electrons
 Dipole moment (field-independent basis, Debye):
    X=             -0.0006    Y=              0.0066    Z=              4.0662  Tot=              4.0662
 Quadrupole moment (field-independent basis, Debye-Ang):
   XX=            -28.1660   YY=            -28.1970   ZZ=            -62.8202
   XY=              0.0000   XZ=             -0.0050   YZ=             -0.0283
 Traceless Quadrupole moment (field-independent basis, Debye-Ang):
   XX=             11.5617   YY=             11.5308   ZZ=            -23.0925
   XY=              0.0000   XZ=             -0.0050   YZ=             -0.0283
 Octapole moment (field-independent basis, Debye-Ang**2):
  XXX=             -0.0243  YYY=             -1.1095  ZZZ=             49.6878  XYY=             -0.0086
  XXY=              0.8957  XXZ=             -4.2439  XZZ=             -0.0066  YZZ=             -0.0756
  YYZ=             -4.2277  XYZ=             -0.0002
 Hexadecapole moment (field-independent basis, Debye-Ang**3):
 XXXX=            -41.1881 YYYY=            -41.3322 ZZZZ=           -761.6403 XXXY=              0.0003
 XXXZ=             -0.0507 YYYX=             -0.0002 YYYZ=              0.5591 ZZZX=             -0.0657
 ZZZY=             -0.1921 XXYY=            -13.7674 XXZZ=           -103.3706 YYZZ=           -103.4014
 XXYZ=             -0.6624 YYXZ=             -0.0166 ZZXY=              0.0002
 N-N= 8.498416348734D+01 E-N=-1.604180214734D+03  KE= 5.991956529910D+02
 1\1\GINC-TRAPISTA\SP\RQCISD-FC\Aug-CC-pVTZ\C1H3Cl1F1(1-)\BRUNS\10-Aug-
 2021\0\\# QCISD aug-cc-pvtz nosymm density=current output=wfn\\title l
 ine\\-1,1\C,0,0.000175,0.010029,-0.497709\H,0,0.000019,-1.05257,-0.620
 726\H,0,-0.911312,0.526365,-0.621245\H,0,0.91175,0.526132,-0.62157\Cl,
 0,0.000555,0.000962,1.644718\F,0,-0.000186,-0.000921,-2.59346\\Version
 =EM64L-G09RevB.01\HF=-598.6169895\MP2=-599.2911386\MP3=-599.3098396\MP
 4D=-599.3247307\MP4DQ=-599.3102912\MP4SDQ=-599.319658\QCISD=-599.31904
 04\RMSD=9.415e-09\Dipole=0.0002718,0.0062771,1.5873227\Quadrupole=8.59
 58729,8.5728357,-17.1687086,-0.0000073,-0.0036943,-0.0210158\PG=C01 [X
 (C1H3Cl1F1)]\\@

 Writing a WFN file to GAUSSIAN+YC_1.wfn.


 OUR LITTLE SYSTEMS HAVE THEIR DAY,    
   THEY HAVE THEIR DAY AND CEASE TO BE.
   THEY ARE BUT BROKEN LIGHTS OF THEE, 
 AND THOU, OH LORD, ART MORE THAN THEY.
          -------------------          
 LET KNOWLEDGE GROW FROM MORE TO MORE, 
   BUT MORE OF REVERENCE IN US DWELL.  
   THAT MIND AND SOUL, ACCORDING WELL, 
 MAY MAKE ONE MUSIC AS BEFORE.....     
          -------------------          
                    LORD TENNYSON      
 Job cpu time:  0 days  8 hours 38 minutes 13.9 seconds.
 File lengths (MBytes):  RWF=  29002 Int=      0 D2E=      0 Chk=      4 Scr=      1
 Normal termination of Gaussian 09 at Tue Aug 10 20:36:12 2021.
