 Entering Gaussian System, Link 0=g09
 Input=GAUSSIAN+ZF_6.com
 Output=GAUSSIAN+ZF_6.log
 Initial command:
 /home/bruns/programas/chemistry/gaussian/g09/l1.exe /home/bruns/programas/chemistry/gaussian/work/Gau-16721.inp -scrdir=/home/bruns/programas/chemistry/gaussian/work/
 Entering Link 1 = /home/bruns/programas/chemistry/gaussian/g09/l1.exe PID=     16723.
  
 Copyright (c) 1988,1990,1992,1993,1995,1998,2003,2009,2010,
            Gaussian, Inc.  All Rights Reserved.
  
 This is part of the Gaussian(R) 09 program.  It is based on
 the Gaussian(R) 03 system (copyright 2003, Gaussian, Inc.),
 the Gaussian(R) 98 system (copyright 1998, Gaussian, Inc.),
 the Gaussian(R) 94 system (copyright 1995, Gaussian, Inc.),
 the Gaussian 92(TM) system (copyright 1992, Gaussian, Inc.),
 the Gaussian 90(TM) system (copyright 1990, Gaussian, Inc.),
 the Gaussian 88(TM) system (copyright 1988, Gaussian, Inc.),
 the Gaussian 86(TM) system (copyright 1986, Carnegie Mellon
 University), and the Gaussian 82(TM) system (copyright 1983,
 Carnegie Mellon University). Gaussian is a federally registered
 trademark of Gaussian, Inc.
  
 This software contains proprietary and confidential information,
 including trade secrets, belonging to Gaussian, Inc.
  
 This software is provided under written license and may be
 used, copied, transmitted, or stored only in accord with that
 written license.
  
 The following legend is applicable only to US Government
 contracts under FAR:
  
                    RESTRICTED RIGHTS LEGEND
  
 Use, reproduction and disclosure by the US Government is
 subject to restrictions as set forth in subparagraphs (a)
 and (c) of the Commercial Computer Software - Restricted
 Rights clause in FAR 52.227-19.
  
 Gaussian, Inc.
 340 Quinnipiac St., Bldg. 40, Wallingford CT 06492
  
  
 ---------------------------------------------------------------
 Warning -- This program may not be used in any manner that
 competes with the business of Gaussian, Inc. or will provide
 assistance to any competitor of Gaussian, Inc.  The licensee
 of this program is prohibited from giving any competitor of
 Gaussian, Inc. access to this program.  By using this program,
 the user acknowledges that Gaussian, Inc. is engaged in the
 business of creating and licensing software in the field of
 computational chemistry and represents and warrants to the
 licensee that it is not a competitor of Gaussian, Inc. and that
 it will not use this program in any manner prohibited above.
 ---------------------------------------------------------------
  

 Cite this work as:
 Gaussian 09, Revision B.01,
 M. J. Frisch, G. W. Trucks, H. B. Schlegel, G. E. Scuseria, 
 M. A. Robb, J. R. Cheeseman, G. Scalmani, V. Barone, B. Mennucci, 
 G. A. Petersson, H. Nakatsuji, M. Caricato, X. Li, H. P. Hratchian, 
 A. F. Izmaylov, J. Bloino, G. Zheng, J. L. Sonnenberg, M. Hada, 
 M. Ehara, K. Toyota, R. Fukuda, J. Hasegawa, M. Ishida, T. Nakajima, 
 Y. Honda, O. Kitao, H. Nakai, T. Vreven, J. A. Montgomery, Jr., 
 J. E. Peralta, F. Ogliaro, M. Bearpark, J. J. Heyd, E. Brothers, 
 K. N. Kudin, V. N. Staroverov, T. Keith, R. Kobayashi, J. Normand, 
 K. Raghavachari, A. Rendell, J. C. Burant, S. S. Iyengar, J. Tomasi, 
 M. Cossi, N. Rega, J. M. Millam, M. Klene, J. E. Knox, J. B. Cross, 
 V. Bakken, C. Adamo, J. Jaramillo, R. Gomperts, R. E. Stratmann, 
 O. Yazyev, A. J. Austin, R. Cammi, C. Pomelli, J. W. Ochterski, 
 R. L. Martin, K. Morokuma, V. G. Zakrzewski, G. A. Voth, 
 P. Salvador, J. J. Dannenberg, S. Dapprich, A. D. Daniels, 
 O. Farkas, J. B. Foresman, J. V. Ortiz, J. Cioslowski, 
 and D. J. Fox, Gaussian, Inc., Wallingford CT, 2010.
 
 ******************************************
 Gaussian 09:  EM64L-G09RevB.01 12-Aug-2010
                10-Aug-2021 
 ******************************************
 %nproc=8
 Will use up to    8 processors via shared memory.
 %mem=8GB
 -----------------------------------------------------
 # QCISD aug-cc-pvtz nosymm density=current output=wfn
 -----------------------------------------------------
 1/30=1,38=1/1;
 2/12=2,15=1,17=6,18=5,40=1/2;
 3/5=16,6=1,7=10,11=9,16=1,25=1,30=1,71=1/1,2,3;
 4//1;
 5/5=2,38=5/2;
 8/6=4,9=120000,10=1/1,4;
 9/5=8,15=1/13;
 11/28=-7,31=1,32=3,42=3/11;
 10/5=6,13=10,31=1/2;
 6/7=2,8=2,9=2,10=2,22=-1,31=1/1;
 99/5=1,6=1100,9=1/99;
 ----------
 title line
 ----------
 Symbolic Z-matrix:
 Charge = -1 Multiplicity = 1
 C                     0.00018   0.00003  -0.49771 
 H                     0.00002  -1.05257  -0.62073 
 H                    -0.91131   0.52637  -0.62125 
 H                     0.91175   0.52613  -0.62157 
 Cl                    0.00056   0.00096   1.64472 
 F                    -0.00019  -0.00092  -2.58346 
 
                          Input orientation:                          
 ---------------------------------------------------------------------
 Center     Atomic      Atomic             Coordinates (Angstroms)
 Number     Number       Type             X           Y           Z
 ---------------------------------------------------------------------
      1          6           0        0.000175    0.000029   -0.497709
      2          1           0        0.000019   -1.052570   -0.620726
      3          1           0       -0.911312    0.526365   -0.621245
      4          1           0        0.911750    0.526132   -0.621570
      5         17           0        0.000555    0.000962    1.644718
      6          9           0       -0.000186   -0.000921   -2.583460
 ---------------------------------------------------------------------
                    Distance matrix (angstroms):
                    1          2          3          4          5
     1  C    0.000000
     2  H    1.059763   0.000000
     3  H    1.059764   1.823063   0.000000
     4  H    1.059762   1.823062   1.823062   0.000000
     5  Cl   2.142427   2.498433   2.498427   2.498428   0.000000
     6  F    2.085751   2.226722   2.226762   2.226752   4.228178
                    6
     6  F    0.000000
 Symmetry turned off by external request.
 This structure is nearly, but not quite of a higher symmetry.
 Consider Symm=Loose if the higher symmetry is desired.
 Stoichiometry    CH3ClF(1-)
 Framework group  C1[X(CH3ClF)]
 Deg. of freedom    12
 Full point group                 C1      NOp   1
 Rotational constants (GHZ):    150.8790650      2.2243433      2.2243433
 Standard basis: Aug-CC-pVTZ (5D, 7F)
 Integral buffers will be    131072 words long.
 Raffenetti 1 integral format.
 Two-electron integral symmetry is turned off.
   211 basis functions,   339 primitive gaussians,   244 cartesian basis functions
    18 alpha electrons       18 beta electrons
       nuclear repulsion energy        85.1202491061 Hartrees.
 NAtoms=    6 NActive=    6 NUniq=    6 SFac= 1.00D+00 NAtFMM=   50 NAOKFM=F Big=F
 One-electron integrals computed using PRISM.
 NBasis=   211 RedAO= T  NBF=   211
 NBsUse=   211 1.00D-06 NBFU=   211
 Harris functional with IExCor=  205 diagonalized for initial guess.
 ExpMin= 2.53D-02 ExpMax= 4.56D+05 ExpMxC= 1.44D+03 IAcc=3 IRadAn=         0 AccDes= 0.00D+00
 HarFok:  IExCor=  205 AccDes= 0.00D+00 IRadAn=         0 IDoV= 1
 ScaDFX=  1.000000  1.000000  1.000000  1.000000
 FoFCou: FMM=F IPFlag=           0 FMFlag=      100000 FMFlg1=           0
         NFxFlg=           0 DoJE=T BraDBF=F KetDBF=T FulRan=T
         Omega=  0.000000  0.000000  1.000000  0.000000  0.000000 ICntrl=     500 IOpCl=  0
         NMat0=    1 NMatS0=    1 NMatT0=    0 NMatD0=    1 NMtDS0=    0 NMtDT0=    0
         I1Cent=           4 NGrid=           0.
 Symmetry not used in FoFCou.
 Requested convergence on RMS density matrix=1.00D-08 within 128 cycles.
 Requested convergence on MAX density matrix=1.00D-06.
 Requested convergence on             energy=1.00D-06.
 No special actions if energy rises.
 Keep R1 ints in memory in canonical form, NReq=454274131.
 SCF Done:  E(RHF) =  -598.617117932     A.U. after   12 cycles
             Convg  =    0.9387D-08             -V/T =  2.0001
 ExpMin= 2.53D-02 ExpMax= 4.56D+05 ExpMxC= 1.44D+03 IAcc=3 IRadAn=         5 AccDes= 0.00D+00
 HarFok:  IExCor=  205 AccDes= 0.00D+00 IRadAn=         5 IDoV=-2
 ScaDFX=  1.000000  1.000000  1.000000  1.000000
 Range of M.O.s used for correlation:     8   211
 NBasis=   211 NAE=    18 NBE=    18 NFC=     7 NFV=     0
 NROrb=    204 NOA=    11 NOB=    11 NVA=   193 NVB=   193

 **** Warning!!: The largest alpha MO coefficient is  0.35091233D+02

 Semi-Direct transformation.
 ModeAB=           2 MOrb=            11 LenV=    1072528166
 LASXX=     44979418 LTotXX=    44979418 LenRXX=    44979418
 LTotAB=    45631872 MaxLAS=    67073160 LenRXY=    67073160
 NonZer=    89958836 LenScr=   135708672 LnRSAI=           0
 LnScr1=           0 LExtra=           0 Total=    247761250
 MaxDsk=          -1 SrtSym=           F ITran=            4
 JobTyp=0 Pass  1:  I=   1 to  11.
 (rs|ai) integrals will be sorted in core.
 Spin components of T(2) and E(2):
     alpha-alpha T2 =       0.2567933478D-01 E2=     -0.8211491806D-01
     alpha-beta  T2 =       0.1452340971D+00 E2=     -0.5100225402D+00
     beta-beta   T2 =       0.2567933478D-01 E2=     -0.8211491806D-01
 ANorm=    0.1093888827D+01
 E2 =    -0.6742523763D+00 EUMP2 =    -0.59929137030817D+03
 R2 and R3 integrals will be kept in memory, NReq=   900794930.
 Iterations=  50 Convergence= 0.100D-07
 Iteration Nr.   1
 **********************
 DD1Dir will call FoFMem   1 times, MxPair=       132
 NAB=    66 NAA=     0 NBB=     0.
 MP4(R+Q)=  0.14449988D-01
 E3=       -0.18688666D-01        EUMP3=      -0.59931005897D+03
 E4(DQ)=   -0.43357848D-03        UMP4(DQ)=   -0.59931049255D+03
 E4(SDQ)=  -0.98022237D-02        UMP4(SDQ)=  -0.59931986120D+03
 DE(Corr)= -0.67849105     E(Corr)=     -599.29560899    
 NORM(A)=   0.10996613D+01
 Iteration Nr.   2
 **********************
 DD1Dir will call FoFMem   1 times, MxPair=       132
 NAB=    66 NAA=     0 NBB=     0.
 DE(Corr)= -0.70069100     E(CORR)=     -599.31780893     Delta=-2.22D-02
 NORM(A)=   0.11070112D+01
 Iteration Nr.   3
 **********************
 DD1Dir will call FoFMem   1 times, MxPair=       132
 NAB=    66 NAA=     0 NBB=     0.
 DE(Corr)= -0.69829410     E(CORR)=     -599.31541203     Delta= 2.40D-03
 NORM(A)=   0.11109813D+01
 Iteration Nr.   4
 **********************
 DD1Dir will call FoFMem   1 times, MxPair=       132
 NAB=    66 NAA=     0 NBB=     0.
 DE(Corr)= -0.70134817     E(CORR)=     -599.31846610     Delta=-3.05D-03
 NORM(A)=   0.11130713D+01
 Iteration Nr.   5
 **********************
 DD1Dir will call FoFMem   1 times, MxPair=       132
 NAB=    66 NAA=     0 NBB=     0.
 DE(Corr)= -0.70193982     E(CORR)=     -599.31905775     Delta=-5.92D-04
 NORM(A)=   0.11140883D+01
 Iteration Nr.   6
 **********************
 DD1Dir will call FoFMem   1 times, MxPair=       132
 NAB=    66 NAA=     0 NBB=     0.
 DE(Corr)= -0.70208464     E(CORR)=     -599.31920257     Delta=-1.45D-04
 NORM(A)=   0.11144070D+01
 Iteration Nr.   7
 **********************
 DD1Dir will call FoFMem   1 times, MxPair=       132
 NAB=    66 NAA=     0 NBB=     0.
 DE(Corr)= -0.70211376     E(CORR)=     -599.31923169     Delta=-2.91D-05
 NORM(A)=   0.11144368D+01
 Iteration Nr.   8
 **********************
 DD1Dir will call FoFMem   1 times, MxPair=       132
 NAB=    66 NAA=     0 NBB=     0.
 DE(Corr)= -0.70212730     E(CORR)=     -599.31924523     Delta=-1.35D-05
 NORM(A)=   0.11144539D+01
 Iteration Nr.   9
 **********************
 DD1Dir will call FoFMem   1 times, MxPair=       132
 NAB=    66 NAA=     0 NBB=     0.
 DE(Corr)= -0.70210451     E(CORR)=     -599.31922244     Delta= 2.28D-05
 NORM(A)=   0.11144566D+01
 Iteration Nr.  10
 **********************
 DD1Dir will call FoFMem   1 times, MxPair=       132
 NAB=    66 NAA=     0 NBB=     0.
 DE(Corr)= -0.70212339     E(CORR)=     -599.31924132     Delta=-1.89D-05
 NORM(A)=   0.11144569D+01
 Iteration Nr.  11
 **********************
 DD1Dir will call FoFMem   1 times, MxPair=       132
 NAB=    66 NAA=     0 NBB=     0.
 DE(Corr)= -0.70211437     E(CORR)=     -599.31923230     Delta= 9.03D-06
 NORM(A)=   0.11144596D+01
 Iteration Nr.  12
 **********************
 DD1Dir will call FoFMem   1 times, MxPair=       132
 NAB=    66 NAA=     0 NBB=     0.
 DE(Corr)= -0.70211807     E(CORR)=     -599.31923600     Delta=-3.70D-06
 NORM(A)=   0.11144601D+01
 Iteration Nr.  13
 **********************
 DD1Dir will call FoFMem   1 times, MxPair=       132
 NAB=    66 NAA=     0 NBB=     0.
 DE(Corr)= -0.70211863     E(CORR)=     -599.31923657     Delta=-5.66D-07
 NORM(A)=   0.11144608D+01
 Iteration Nr.  14
 **********************
 DD1Dir will call FoFMem   1 times, MxPair=       132
 NAB=    66 NAA=     0 NBB=     0.
 DE(Corr)= -0.70211885     E(CORR)=     -599.31923678     Delta=-2.11D-07
 NORM(A)=   0.11144609D+01
 Iteration Nr.  15
 **********************
 DD1Dir will call FoFMem   1 times, MxPair=       132
 NAB=    66 NAA=     0 NBB=     0.
 DE(Corr)= -0.70211876     E(CORR)=     -599.31923669     Delta= 8.38D-08
 NORM(A)=   0.11144609D+01
 Iteration Nr.  16
 **********************
 DD1Dir will call FoFMem   1 times, MxPair=       132
 NAB=    66 NAA=     0 NBB=     0.
 DE(Corr)= -0.70211896     E(CORR)=     -599.31923689     Delta=-2.01D-07
 NORM(A)=   0.11144607D+01
 Iteration Nr.  17
 **********************
 DD1Dir will call FoFMem   1 times, MxPair=       132
 NAB=    66 NAA=     0 NBB=     0.
 DE(Corr)= -0.70211884     E(CORR)=     -599.31923677     Delta= 1.27D-07
 NORM(A)=   0.11144606D+01
 Iteration Nr.  18
 **********************
 DD1Dir will call FoFMem   1 times, MxPair=       132
 NAB=    66 NAA=     0 NBB=     0.
 DE(Corr)= -0.70211887     E(CORR)=     -599.31923680     Delta=-3.63D-08
 NORM(A)=   0.11144605D+01
 Iteration Nr.  19
 **********************
 DD1Dir will call FoFMem   1 times, MxPair=       132
 NAB=    66 NAA=     0 NBB=     0.
 DE(Corr)= -0.70211882     E(CORR)=     -599.31923675     Delta= 4.92D-08
 NORM(A)=   0.11144604D+01
 Iteration Nr.  20
 **********************
 DD1Dir will call FoFMem   1 times, MxPair=       132
 NAB=    66 NAA=     0 NBB=     0.
 DE(Corr)= -0.70211882     E(CORR)=     -599.31923676     Delta=-1.83D-09
 NORM(A)=   0.11144603D+01
 Iteration Nr.  21
 **********************
 DD1Dir will call FoFMem   1 times, MxPair=       132
 NAB=    66 NAA=     0 NBB=     0.
 DE(Corr)= -0.70211881     E(CORR)=     -599.31923674     Delta= 1.76D-08
 NORM(A)=   0.11144603D+01
 Iteration Nr.  22
 **********************
 DD1Dir will call FoFMem   1 times, MxPair=       132
 NAB=    66 NAA=     0 NBB=     0.
 DE(Corr)= -0.70211880     E(CORR)=     -599.31923674     Delta= 3.25D-09
 NORM(A)=   0.11144603D+01
 Iteration Nr.  23
 **********************
 DD1Dir will call FoFMem   1 times, MxPair=       132
 NAB=    66 NAA=     0 NBB=     0.
 DE(Corr)= -0.70211880     E(CORR)=     -599.31923673     Delta= 5.93D-09
 NORM(A)=   0.11144603D+01
 Iteration Nr.  24
 **********************
 DD1Dir will call FoFMem   1 times, MxPair=       132
 NAB=    66 NAA=     0 NBB=     0.
 DE(Corr)= -0.70211880     E(CORR)=     -599.31923673     Delta=-1.45D-09
 NORM(A)=   0.11144602D+01
 Iteration Nr.  25
 **********************
 DD1Dir will call FoFMem   1 times, MxPair=       132
 NAB=    66 NAA=     0 NBB=     0.
 DE(Corr)= -0.70211880     E(CORR)=     -599.31923673     Delta= 3.65D-09
 NORM(A)=   0.11144602D+01
 Iteration Nr.  26
 **********************
 DD1Dir will call FoFMem   1 times, MxPair=       132
 NAB=    66 NAA=     0 NBB=     0.
 DE(Corr)= -0.70211880     E(CORR)=     -599.31923673     Delta=-2.88D-09
 NORM(A)=   0.11144603D+01
 Iteration Nr.  27
 **********************
 DD1Dir will call FoFMem   1 times, MxPair=       132
 NAB=    66 NAA=     0 NBB=     0.
 DE(Corr)= -0.70211880     E(CORR)=     -599.31923673     Delta= 2.39D-09
 NORM(A)=   0.11144603D+01
 Largest amplitude= 6.58D-02

 Z-AMPLITUDE ITERATIONS

 Iteration Nr.   1
 **********************
 DD1Dir will call FoFMem   1 times, MxPair=       132
 NAB=    66 NAA=     0 NBB=     0.
 DE(Z)  -0.68272928D+00          E(Z)=    -0.59929984722D+03
 NORM(A)=   0.11144941D+01
 Iteration Nr.   2
 **********************
 DD1Dir will call FoFMem   1 times, MxPair=       132
 NAB=    66 NAA=     0 NBB=     0.
 DE(Z)  -0.68273299D+00          E(Z)=    -0.59929985092D+03
 NORM(A)=   0.11136900D+01
 Iteration Nr.   3
 **********************
 DD1Dir will call FoFMem   1 times, MxPair=       132
 NAB=    66 NAA=     0 NBB=     0.
 DE(Z)  -0.68265596D+00          E(Z)=    -0.59929977389D+03
 NORM(A)=   0.11141691D+01
 Iteration Nr.   4
 **********************
 DD1Dir will call FoFMem   1 times, MxPair=       132
 NAB=    66 NAA=     0 NBB=     0.
 DE(Z)  -0.68270022D+00          E(Z)=    -0.59929981815D+03
 NORM(A)=   0.11145009D+01
 Iteration Nr.   5
 **********************
 DD1Dir will call FoFMem   1 times, MxPair=       132
 NAB=    66 NAA=     0 NBB=     0.
 DE(Z)  -0.68273325D+00          E(Z)=    -0.59929985118D+03
 NORM(A)=   0.11078042D+01
 Iteration Nr.   6
 **********************
 DD1Dir will call FoFMem   1 times, MxPair=       132
 NAB=    66 NAA=     0 NBB=     0.
 DE(Z)  -0.68205910D+00          E(Z)=    -0.59929917703D+03
 NORM(A)=   0.11078056D+01
 Iteration Nr.   7
 **********************
 DD1Dir will call FoFMem   1 times, MxPair=       132
 NAB=    66 NAA=     0 NBB=     0.
 DE(Z)  -0.68206536D+00          E(Z)=    -0.59929918329D+03
 NORM(A)=   0.11078018D+01
 Iteration Nr.   8
 **********************
 DD1Dir will call FoFMem   1 times, MxPair=       132
 NAB=    66 NAA=     0 NBB=     0.
 DE(Z)  -0.68206232D+00          E(Z)=    -0.59929918026D+03
 NORM(A)=   0.11077984D+01
 Iteration Nr.   9
 **********************
 DD1Dir will call FoFMem   1 times, MxPair=       132
 NAB=    66 NAA=     0 NBB=     0.
 DE(Z)  -0.68206182D+00          E(Z)=    -0.59929917975D+03
 NORM(A)=   0.11077968D+01
 Iteration Nr.  10
 **********************
 DD1Dir will call FoFMem   1 times, MxPair=       132
 NAB=    66 NAA=     0 NBB=     0.
 DE(Z)  -0.68206204D+00          E(Z)=    -0.59929917997D+03
 NORM(A)=   0.11077966D+01
 Iteration Nr.  11
 **********************
 DD1Dir will call FoFMem   1 times, MxPair=       132
 NAB=    66 NAA=     0 NBB=     0.
 DE(Z)  -0.68206206D+00          E(Z)=    -0.59929918000D+03
 NORM(A)=   0.11077965D+01
 Iteration Nr.  12
 **********************
 DD1Dir will call FoFMem   1 times, MxPair=       132
 NAB=    66 NAA=     0 NBB=     0.
 DE(Z)  -0.68206200D+00          E(Z)=    -0.59929917993D+03
 NORM(A)=   0.11077966D+01
 Iteration Nr.  13
 **********************
 DD1Dir will call FoFMem   1 times, MxPair=       132
 NAB=    66 NAA=     0 NBB=     0.
 DE(Z)  -0.68206212D+00          E(Z)=    -0.59929918005D+03
 NORM(A)=   0.11077966D+01
 Iteration Nr.  14
 **********************
 DD1Dir will call FoFMem   1 times, MxPair=       132
 NAB=    66 NAA=     0 NBB=     0.
 DE(Z)  -0.68206209D+00          E(Z)=    -0.59929918002D+03
 NORM(A)=   0.11077966D+01
 Iteration Nr.  15
 **********************
 DD1Dir will call FoFMem   1 times, MxPair=       132
 NAB=    66 NAA=     0 NBB=     0.
 DE(Z)  -0.68206210D+00          E(Z)=    -0.59929918003D+03
 NORM(A)=   0.11077966D+01
 Iteration Nr.  16
 **********************
 DD1Dir will call FoFMem   1 times, MxPair=       132
 NAB=    66 NAA=     0 NBB=     0.
 DE(Z)  -0.68206211D+00          E(Z)=    -0.59929918004D+03
 NORM(A)=   0.11077966D+01
 Iteration Nr.  17
 **********************
 DD1Dir will call FoFMem   1 times, MxPair=       132
 NAB=    66 NAA=     0 NBB=     0.
 DE(Z)  -0.68206210D+00          E(Z)=    -0.59929918004D+03
 NORM(A)=   0.11077966D+01
 Iteration Nr.  18
 **********************
 DD1Dir will call FoFMem   1 times, MxPair=       132
 NAB=    66 NAA=     0 NBB=     0.
 DE(Z)  -0.68206210D+00          E(Z)=    -0.59929918004D+03
 NORM(A)=   0.11077966D+01
 Iteration Nr.  19
 **********************
 DD1Dir will call FoFMem   1 times, MxPair=       132
 NAB=    66 NAA=     0 NBB=     0.
 DE(Z)  -0.68206210D+00          E(Z)=    -0.59929918003D+03
 NORM(A)=   0.11077966D+01
 Iteration Nr.  20
 **********************
 DD1Dir will call FoFMem   1 times, MxPair=       132
 NAB=    66 NAA=     0 NBB=     0.
 DE(Z)  -0.68206210D+00          E(Z)=    -0.59929918004D+03
 NORM(A)=   0.11077966D+01
 Iteration Nr.  21
 **********************
 DD1Dir will call FoFMem   1 times, MxPair=       132
 NAB=    66 NAA=     0 NBB=     0.
 DE(Z)  -0.68206210D+00          E(Z)=    -0.59929918003D+03
 NORM(A)=   0.11077966D+01
 Iteration Nr.  22
 **********************
 DD1Dir will call FoFMem   1 times, MxPair=       132
 NAB=    66 NAA=     0 NBB=     0.
 DE(Z)  -0.68206210D+00          E(Z)=    -0.59929918004D+03
 NORM(A)=   0.11077966D+01
 Discarding MO integrals.
          Differentiating once with respect to electric field.
                with respect to dipole field.
          Electric field/nuclear overlap derivatives assumed to be zero.
          Keep R1 ints in memory in canonical form, NReq=448662239.
          There are     1 degrees of freedom in the 1st order CPHF.  IDoFFX=0.
 LinEq1:  Iter=  0 NonCon=     1 RMS=3.11D-03 Max=1.20D-01
 AX will form     1 AO Fock derivatives at one time.
 LinEq1:  Iter=  1 NonCon=     1 RMS=6.95D-04 Max=7.60D-03
 LinEq1:  Iter=  2 NonCon=     1 RMS=2.29D-04 Max=5.66D-03
 LinEq1:  Iter=  3 NonCon=     1 RMS=9.54D-05 Max=1.40D-03
 LinEq1:  Iter=  4 NonCon=     1 RMS=3.84D-05 Max=4.04D-04
 LinEq1:  Iter=  5 NonCon=     1 RMS=1.06D-05 Max=2.22D-04
 LinEq1:  Iter=  6 NonCon=     1 RMS=2.41D-06 Max=4.30D-05
 LinEq1:  Iter=  7 NonCon=     1 RMS=6.03D-07 Max=8.91D-06
 LinEq1:  Iter=  8 NonCon=     1 RMS=1.48D-07 Max=1.79D-06
 LinEq1:  Iter=  9 NonCon=     1 RMS=2.99D-08 Max=7.41D-07
 LinEq1:  Iter= 10 NonCon=     1 RMS=6.53D-09 Max=8.58D-08
 LinEq1:  Iter= 11 NonCon=     1 RMS=1.06D-09 Max=1.15D-08
 LinEq1:  Iter= 12 NonCon=     1 RMS=1.68D-10 Max=2.81D-09
 LinEq1:  Iter= 13 NonCon=     0 RMS=2.41D-11 Max=3.24D-10
 Linear equations converged to 1.000D-10 1.000D-09 after    13 iterations.
 End of Minotr Frequency-dependent properties file   721 does not exist.
 End of Minotr Frequency-dependent properties file   722 does not exist.

 **********************************************************************

            Population analysis using the QCI/CC density.

 **********************************************************************

     Natural Orbital Coefficients:
                           1         2         3         4         5
     Eigenvalues --     2.00003   2.00003   2.00002   2.00001   2.00001
   1 1   C  1S          0.00000   0.00000  -0.04291   0.08001   0.97617
   2        2S          0.00000   0.00000   0.00131   0.00050  -0.01331
   3        3S          0.00000   0.00000  -0.00130   0.00398   0.03984
   4        4S          0.00000   0.00000  -0.01277  -0.02359   0.00318
   5        5S          0.00000   0.00000  -0.00120  -0.00059  -0.00063
   6        6PX         0.00004   0.00003   0.00000   0.00000   0.00000
   7        6PY        -0.00003   0.00004   0.00000   0.00000   0.00000
   8        6PZ         0.00000   0.00000   0.00054   0.00168   0.00086
   9        7PX         0.00064   0.00056   0.00000   0.00000   0.00000
  10        7PY        -0.00056   0.00064   0.00000   0.00000   0.00000
  11        7PZ         0.00000   0.00000   0.00143   0.00304  -0.00091
  12        8PX         0.00344   0.00302   0.00000   0.00000   0.00000
  13        8PY        -0.00302   0.00344   0.00000   0.00000   0.00000
  14        8PZ         0.00000   0.00000  -0.00377  -0.00409  -0.00307
  15        9PX         0.00032   0.00028   0.00000   0.00000   0.00000
  16        9PY        -0.00028   0.00032   0.00000   0.00000   0.00000
  17        9PZ         0.00000   0.00000   0.00021   0.00017  -0.00049
  18       10D 0        0.00000   0.00000   0.00011   0.00033  -0.00057
  19       10D+1       -0.00011  -0.00010   0.00000   0.00000   0.00000
  20       10D-1        0.00010  -0.00011   0.00000   0.00000   0.00000
  21       10D+2       -0.00003   0.00003   0.00000   0.00000   0.00000
  22       10D-2        0.00003   0.00003   0.00000   0.00000   0.00000
  23       11D 0        0.00000   0.00000   0.00022  -0.00008  -0.00031
  24       11D+1        0.00019   0.00016   0.00000   0.00000   0.00000
  25       11D-1       -0.00016   0.00019   0.00000   0.00000   0.00000
  26       11D+2       -0.00067   0.00076   0.00000   0.00000   0.00000
  27       11D-2        0.00076   0.00067   0.00000   0.00000   0.00000
  28       12D 0        0.00000   0.00000  -0.00077   0.00126  -0.00237
  29       12D+1       -0.00099  -0.00087   0.00000   0.00000   0.00000
  30       12D-1        0.00087  -0.00099   0.00000   0.00000   0.00000
  31       12D+2       -0.00107   0.00122   0.00000   0.00000   0.00000
  32       12D-2        0.00122   0.00107   0.00000   0.00000   0.00000
  33       13F 0        0.00000   0.00000   0.00001   0.00003   0.00019
  34       13F+1       -0.00014  -0.00013   0.00000   0.00000   0.00000
  35       13F-1        0.00013  -0.00014   0.00000   0.00000   0.00000
  36       13F+2       -0.00001   0.00001   0.00000   0.00000   0.00000
  37       13F-2        0.00001   0.00001   0.00000   0.00000   0.00000
  38       13F+3        0.00000   0.00000   0.00000   0.00000   0.00000
  39       13F-3        0.00000   0.00000  -0.00006   0.00007   0.00090
  40       14F 0        0.00000   0.00000  -0.00114  -0.00215  -0.00018
  41       14F+1        0.00044   0.00038   0.00000   0.00000   0.00000
  42       14F-1       -0.00038   0.00044   0.00000   0.00000   0.00000
  43       14F+2       -0.00022   0.00026   0.00000   0.00000   0.00000
  44       14F-2        0.00026   0.00023   0.00000   0.00000   0.00000
  45       14F+3        0.00000   0.00000   0.00000   0.00000   0.00000
  46       14F-3        0.00000   0.00000  -0.00087  -0.00136  -0.00190
  47 2   H  1S          0.00010  -0.00012  -0.00002  -0.00036  -0.00135
  48        2S         -0.00079   0.00090   0.00247   0.00331  -0.00068
  49        3S         -0.00575   0.00655   0.00185   0.00531  -0.00437
  50        4S          0.00018  -0.00020   0.00011   0.00009  -0.00013
  51        5PX         0.00000   0.00000   0.00000   0.00000   0.00000
  52        5PY        -0.00002   0.00002   0.00004  -0.00003  -0.00048
  53        5PZ        -0.00001   0.00001   0.00001   0.00002  -0.00009
  54        6PX         0.00014   0.00013   0.00000   0.00000   0.00000
  55        6PY        -0.00044   0.00050   0.00046   0.00070  -0.00080
  56        6PZ        -0.00041   0.00046  -0.00001  -0.00010   0.00024
  57        7PX         0.00069   0.00060   0.00000   0.00000   0.00000
  58        7PY        -0.00139   0.00158   0.00054   0.00136  -0.00102
  59        7PZ        -0.00018   0.00020   0.00048   0.00092  -0.00006
  60        8D 0       -0.00002   0.00003   0.00001   0.00006   0.00014
  61        8D+1       -0.00001  -0.00001   0.00000   0.00000   0.00000
  62        8D-1       -0.00006   0.00007   0.00002   0.00005  -0.00004
  63        8D+2        0.00003  -0.00004  -0.00004  -0.00005   0.00028
  64        8D-2        0.00001   0.00001   0.00000   0.00000   0.00000
  65        9D 0       -0.00026   0.00029   0.00015   0.00025   0.00063
  66        9D+1        0.00019   0.00016   0.00000   0.00000   0.00000
  67        9D-1       -0.00008   0.00009  -0.00014  -0.00025   0.00001
  68        9D+2        0.00008  -0.00010   0.00001   0.00003  -0.00010
  69        9D-2        0.00009   0.00008   0.00000   0.00000   0.00000
  70 3   H  1S         -0.00015  -0.00003  -0.00002  -0.00036  -0.00135
  71        2S          0.00117   0.00023   0.00247   0.00331  -0.00068
  72        3S          0.00854   0.00170   0.00185   0.00531  -0.00437
  73        4S         -0.00026  -0.00005   0.00011   0.00009  -0.00013
  74        5PX         0.00003   0.00001   0.00004  -0.00002  -0.00042
  75        5PY        -0.00002   0.00000  -0.00002   0.00001   0.00024
  76        5PZ         0.00001   0.00000   0.00001   0.00002  -0.00009
  77        6PX         0.00054   0.00021   0.00040   0.00060  -0.00069
  78        6PY        -0.00036   0.00010  -0.00023  -0.00035   0.00040
  79        6PZ         0.00061   0.00012  -0.00001  -0.00010   0.00024
  80        7PX         0.00170   0.00081   0.00047   0.00117  -0.00088
  81        7PY        -0.00119   0.00057  -0.00027  -0.00068   0.00051
  82        7PZ         0.00026   0.00005   0.00048   0.00092  -0.00006
  83        8D 0        0.00004   0.00001   0.00001   0.00007   0.00014
  84        8D+1        0.00008   0.00001   0.00002   0.00004  -0.00003
  85        8D-1       -0.00004  -0.00002  -0.00001  -0.00002   0.00002
  86        8D+2        0.00002   0.00001   0.00002   0.00003  -0.00014
  87        8D-2       -0.00004   0.00000  -0.00004  -0.00005   0.00024
  88        9D 0        0.00038   0.00008   0.00015   0.00025   0.00063
  89        9D+1        0.00008   0.00014  -0.00012  -0.00022   0.00001
  90        9D-1       -0.00010   0.00020   0.00007   0.00013   0.00000
  91        9D+2        0.00004   0.00011  -0.00001  -0.00001   0.00005
  92        9D-2       -0.00012   0.00004   0.00001   0.00002  -0.00009
  93 4   H  1S          0.00005   0.00015  -0.00002  -0.00036  -0.00135
  94        2S         -0.00038  -0.00113   0.00247   0.00331  -0.00068
  95        3S         -0.00280  -0.00825   0.00185   0.00531  -0.00437
  96        4S          0.00009   0.00025   0.00011   0.00009  -0.00013
  97        5PX         0.00001   0.00003  -0.00004   0.00002   0.00042
  98        5PY         0.00000   0.00002  -0.00002   0.00001   0.00024
  99        5PZ         0.00000  -0.00001   0.00001   0.00002  -0.00009
 100        6PX         0.00027   0.00051  -0.00040  -0.00060   0.00069
 101        6PY        -0.00005   0.00037  -0.00023  -0.00035   0.00040
 102        6PZ        -0.00020  -0.00058  -0.00001  -0.00010   0.00024
 103        7PX         0.00102   0.00158  -0.00047  -0.00117   0.00088
 104        7PY        -0.00041   0.00125  -0.00027  -0.00068   0.00051
 105        7PZ        -0.00009  -0.00026   0.00048   0.00092  -0.00006
 106        8D 0       -0.00001  -0.00004   0.00001   0.00007   0.00014
 107        8D+1        0.00002   0.00008  -0.00002  -0.00004   0.00003
 108        8D-1        0.00003   0.00004  -0.00001  -0.00002   0.00002
 109        8D+2       -0.00002  -0.00002   0.00002   0.00003  -0.00014
 110        8D-2       -0.00001  -0.00004   0.00004   0.00005  -0.00024
 111        9D 0       -0.00013  -0.00037   0.00015   0.00025   0.00063
 112        9D+1        0.00015   0.00006   0.00012   0.00022  -0.00001
 113        9D-1       -0.00018   0.00013   0.00007   0.00013   0.00000
 114        9D+2       -0.00012  -0.00003   0.00000  -0.00001   0.00005
 115        9D-2        0.00002  -0.00012  -0.00001  -0.00002   0.00009
 116 5   Cl 1S          0.00000   0.00000  -0.25001   0.14899  -0.02274
 117        2S          0.00000   0.00000   0.84393  -0.50365   0.07795
 118        3S          0.00000   0.00000  -0.02305   0.00944  -0.00238
 119        4S          0.00000   0.00000   0.06639  -0.04102   0.00640
 120        5S          0.00000   0.00000  -0.00206   0.00777   0.00350
 121        6S          0.00000   0.00000  -0.00155  -0.00214   0.00300
 122        7PX         0.73555   0.64586   0.00009   0.00015  -0.00001
 123        7PY        -0.64586   0.73555   0.00022   0.00036  -0.00002
 124        7PZ         0.00015  -0.00043   0.50416   0.83395  -0.04680
 125        8PX        -0.01438  -0.01263   0.00000   0.00000   0.00000
 126        8PY         0.01263  -0.01438   0.00000  -0.00001   0.00000
 127        8PZ         0.00000   0.00001  -0.00885  -0.01403   0.00010
 128        9PX         0.03933   0.03454   0.00001   0.00001   0.00000
 129        9PY        -0.03454   0.03933   0.00001   0.00002   0.00000
 130        9PZ         0.00001  -0.00002   0.02862   0.04940  -0.00265
 131       10PX        -0.00434  -0.00381   0.00000   0.00000   0.00000
 132       10PY         0.00381  -0.00434   0.00000   0.00000   0.00000
 133       10PZ         0.00000   0.00000  -0.00438  -0.00275  -0.00346
 134       11PX        -0.00162  -0.00142   0.00000   0.00000   0.00000
 135       11PY         0.00142  -0.00162   0.00000   0.00000   0.00000
 136       11PZ         0.00000   0.00000  -0.00037  -0.00015  -0.00053
 137       12D 0        0.00000   0.00000   0.00001  -0.00051  -0.00017
 138       12D+1       -0.00024  -0.00021   0.00000   0.00000   0.00000
 139       12D-1        0.00021  -0.00024   0.00000   0.00000   0.00000
 140       12D+2       -0.00001   0.00001   0.00000   0.00000   0.00000
 141       12D-2        0.00001   0.00001   0.00000   0.00000   0.00000
 142       13D 0        0.00000   0.00000   0.00089   0.00243   0.00042
 143       13D+1        0.00061   0.00053   0.00000   0.00000   0.00000
 144       13D-1       -0.00053   0.00061   0.00000   0.00000   0.00000
 145       13D+2        0.00001  -0.00001   0.00000   0.00000   0.00000
 146       13D-2       -0.00001  -0.00001   0.00000   0.00000   0.00000
 147       14D 0        0.00000   0.00000   0.00058  -0.00018   0.00079
 148       14D+1       -0.00054  -0.00047   0.00000   0.00000   0.00000
 149       14D-1        0.00047  -0.00054   0.00000   0.00000   0.00000
 150       14D+2       -0.00002   0.00002   0.00000   0.00000   0.00000
 151       14D-2        0.00002   0.00002   0.00000   0.00000   0.00000
 152       15F 0        0.00000   0.00000   0.00001  -0.00007  -0.00003
 153       15F+1        0.00000   0.00000   0.00000   0.00000   0.00000
 154       15F-1        0.00000   0.00000   0.00000   0.00000   0.00000
 155       15F+2       -0.00002   0.00002   0.00000   0.00000   0.00000
 156       15F-2        0.00002   0.00002   0.00000   0.00000   0.00000
 157       15F+3        0.00000   0.00000   0.00000   0.00000   0.00000
 158       15F-3        0.00000   0.00000   0.00001   0.00003   0.00000
 159       16F 0        0.00000   0.00000  -0.00032  -0.00058  -0.00031
 160       16F+1       -0.00017  -0.00015   0.00000   0.00000   0.00000
 161       16F-1        0.00015  -0.00017   0.00000   0.00000   0.00000
 162       16F+2        0.00002  -0.00003   0.00000   0.00000   0.00000
 163       16F-2       -0.00003  -0.00002   0.00000   0.00000   0.00000
 164       16F+3        0.00000   0.00000   0.00000   0.00000   0.00000
 165       16F-3        0.00000   0.00000  -0.00002  -0.00005   0.00002
 166 6   F  1S          0.00000   0.00000  -0.00149  -0.01057  -0.05093
 167        2S          0.00000   0.00000   0.00020   0.00043   0.00082
 168        3S          0.00000   0.00000  -0.00007  -0.00046  -0.00207
 169        4S          0.00000   0.00000  -0.00056  -0.00106   0.00058
 170        5S          0.00000   0.00000   0.00009  -0.00171   0.00182
 171        6PX        -0.00003  -0.00003   0.00000   0.00000   0.00000
 172        6PY         0.00003  -0.00003   0.00000   0.00000   0.00000
 173        6PZ         0.00000   0.00000   0.00058   0.00111   0.00011
 174        7PX         0.00000   0.00000   0.00000   0.00000   0.00000
 175        7PY         0.00000   0.00000   0.00000   0.00000   0.00000
 176        7PZ         0.00000   0.00000   0.00069   0.00132   0.00002
 177        8PX        -0.00019  -0.00017   0.00000   0.00000   0.00000
 178        8PY         0.00017  -0.00019   0.00000   0.00000   0.00000
 179        8PZ         0.00000   0.00000   0.00007   0.00018   0.00049
 180        9PX        -0.00027  -0.00024   0.00000   0.00000   0.00000
 181        9PY         0.00024  -0.00027   0.00000   0.00000   0.00000
 182        9PZ         0.00000   0.00000   0.00017  -0.00010   0.00072
 183       10D 0        0.00000   0.00000   0.00001   0.00001  -0.00002
 184       10D+1        0.00000   0.00000   0.00000   0.00000   0.00000
 185       10D-1        0.00000   0.00000   0.00000   0.00000   0.00000
 186       10D+2        0.00000   0.00001   0.00000   0.00000   0.00000
 187       10D-2        0.00001   0.00000   0.00000   0.00000   0.00000
 188       11D 0        0.00000   0.00000  -0.00004  -0.00010   0.00002
 189       11D+1        0.00004   0.00003   0.00000   0.00000   0.00000
 190       11D-1       -0.00003   0.00004   0.00000   0.00000   0.00000
 191       11D+2        0.00002  -0.00002   0.00000   0.00000   0.00000
 192       11D-2       -0.00002  -0.00002   0.00000   0.00000   0.00000
 193       12D 0        0.00000   0.00000  -0.00019  -0.00011   0.00012
 194       12D+1       -0.00017  -0.00015   0.00000   0.00000   0.00000
 195       12D-1        0.00015  -0.00017   0.00000   0.00000   0.00000
 196       12D+2       -0.00007   0.00008   0.00000   0.00000   0.00000
 197       12D-2        0.00008   0.00007   0.00000   0.00000   0.00000
 198       13F 0        0.00000   0.00000   0.00001  -0.00001  -0.00004
 199       13F+1        0.00001   0.00001   0.00000   0.00000   0.00000
 200       13F-1       -0.00001   0.00001   0.00000   0.00000   0.00000
 201       13F+2        0.00001  -0.00001   0.00000   0.00000   0.00000
 202       13F-2       -0.00001  -0.00001   0.00000   0.00000   0.00000
 203       13F+3        0.00000   0.00000   0.00000   0.00000   0.00000
 204       13F-3        0.00000   0.00000   0.00000   0.00000   0.00000
 205       14F 0        0.00000   0.00000  -0.00003   0.00002   0.00013
 206       14F+1       -0.00004  -0.00004   0.00000   0.00000   0.00000
 207       14F-1        0.00004  -0.00004   0.00000   0.00000   0.00000
 208       14F+2       -0.00003   0.00003   0.00000   0.00000   0.00000
 209       14F-2        0.00003   0.00003   0.00000   0.00000   0.00000
 210       14F+3        0.00000   0.00000   0.00000   0.00000   0.00000
 211       14F-3        0.00000   0.00000   0.00000  -0.00001  -0.00001
                           6         7         8         9        10
     Eigenvalues --     2.00000   2.00000   1.98362   1.97543   1.96950
   1 1   C  1S          0.05155  -0.00046   0.01568  -0.07321  -0.14373
   2        2S         -0.00012  -0.00001  -0.04265   0.19863   0.39726
   3        3S          0.00235  -0.00003  -0.01058   0.04609   0.09615
   4        4S         -0.00704   0.00016   0.00677   0.07853   0.18937
   5        5S         -0.00018   0.00010   0.00799  -0.00696  -0.02923
   6        6PX         0.00000   0.00000   0.00000   0.00000   0.00000
   7        6PY         0.00000   0.00000   0.00000   0.00000  -0.00001
   8        6PZ         0.00004   0.00000   0.00658   0.01042  -0.02728
   9        7PX         0.00000   0.00000   0.00000   0.00000   0.00000
  10        7PY         0.00000   0.00000   0.00000   0.00001  -0.00001
  11        7PZ        -0.00074   0.00000   0.00723   0.01798  -0.03254
  12        8PX         0.00000   0.00000   0.00000   0.00000   0.00000
  13        8PY         0.00000   0.00000   0.00001   0.00000  -0.00001
  14        8PZ         0.00519   0.00009   0.01668   0.00597  -0.02276
  15        9PX         0.00000   0.00000   0.00000   0.00000   0.00000
  16        9PY         0.00000   0.00000   0.00000   0.00000   0.00000
  17        9PZ         0.00011   0.00001  -0.00066   0.00032  -0.00409
  18       10D 0        0.00004   0.00000   0.00051  -0.00213  -0.00954
  19       10D+1        0.00000   0.00000   0.00000   0.00000   0.00000
  20       10D-1        0.00000   0.00000   0.00000   0.00000  -0.00001
  21       10D+2        0.00000   0.00000   0.00000   0.00000   0.00000
  22       10D-2        0.00000   0.00000   0.00000   0.00000   0.00000
  23       11D 0       -0.00026  -0.00002  -0.00559   0.00471  -0.01852
  24       11D+1        0.00000   0.00000   0.00000   0.00000  -0.00001
  25       11D-1        0.00000   0.00000   0.00000   0.00000  -0.00001
  26       11D+2        0.00000   0.00000   0.00000   0.00000   0.00000
  27       11D-2        0.00000   0.00000   0.00000   0.00000   0.00000
  28       12D 0        0.00028   0.00008   0.00209  -0.00843  -0.01672
  29       12D+1        0.00000   0.00000   0.00000   0.00000  -0.00001
  30       12D-1        0.00000   0.00000   0.00000  -0.00001  -0.00001
  31       12D+2        0.00000   0.00000   0.00000   0.00000   0.00000
  32       12D-2        0.00000   0.00000   0.00000   0.00000   0.00000
  33       13F 0       -0.00007   0.00000   0.00004   0.00242   0.00062
  34       13F+1        0.00000   0.00000   0.00000   0.00000   0.00000
  35       13F-1        0.00000   0.00000   0.00000   0.00000   0.00000
  36       13F+2        0.00000   0.00000   0.00000   0.00000   0.00000
  37       13F-2        0.00000   0.00000   0.00000   0.00000   0.00000
  38       13F+3        0.00000   0.00000   0.00000   0.00000   0.00000
  39       13F-3        0.00001   0.00000  -0.00014   0.00193   0.00396
  40       14F 0        0.00127  -0.00001   0.00476   0.00259  -0.00205
  41       14F+1        0.00000   0.00000   0.00000   0.00000   0.00000
  42       14F-1        0.00000   0.00000   0.00001   0.00000   0.00000
  43       14F+2        0.00000   0.00000   0.00000   0.00000   0.00000
  44       14F-2        0.00000   0.00000   0.00000   0.00000   0.00000
  45       14F+3        0.00000   0.00000   0.00000   0.00000   0.00000
  46       14F-3       -0.00043   0.00003   0.00203  -0.00104   0.00393
  47 2   H  1S         -0.00008   0.00000  -0.00871   0.03708   0.08051
  48        2S          0.00096  -0.00006  -0.01582   0.04376   0.08401
  49        3S          0.00181   0.00004  -0.00115  -0.00486  -0.01183
  50        4S          0.00003   0.00000  -0.00048   0.00051   0.00041
  51        5PX         0.00000   0.00000   0.00000   0.00000   0.00000
  52        5PY         0.00001   0.00000  -0.00111   0.00398   0.00864
  53        5PZ        -0.00004   0.00000   0.00028   0.00096   0.00034
  54        6PX         0.00000   0.00000   0.00000   0.00000   0.00000
  55        6PY         0.00007   0.00000  -0.00078   0.00081   0.00125
  56        6PZ         0.00033  -0.00001   0.00005   0.00243  -0.00049
  57        7PX         0.00000   0.00000   0.00000   0.00000   0.00000
  58        7PY         0.00043   0.00001   0.00131  -0.00494  -0.01029
  59        7PZ        -0.00055   0.00001  -0.00281  -0.00173  -0.00129
  60        8D 0        0.00006   0.00000   0.00015  -0.00035  -0.00092
  61        8D+1        0.00000   0.00000   0.00000   0.00000   0.00000
  62        8D-1       -0.00001   0.00000  -0.00015   0.00050   0.00024
  63        8D+2       -0.00002   0.00000   0.00003  -0.00054  -0.00137
  64        8D-2        0.00000   0.00000   0.00000   0.00000   0.00000
  65        9D 0        0.00008  -0.00001  -0.00009   0.00123   0.00101
  66        9D+1        0.00000   0.00000   0.00000   0.00000   0.00000
  67        9D-1        0.00015   0.00000  -0.00006   0.00004  -0.00038
  68        9D+2        0.00004   0.00000  -0.00100   0.00225   0.00417
  69        9D-2        0.00000   0.00000   0.00000   0.00000   0.00000
  70 3   H  1S         -0.00008   0.00000  -0.00871   0.03708   0.08051
  71        2S          0.00096  -0.00006  -0.01582   0.04376   0.08401
  72        3S          0.00181   0.00004  -0.00116  -0.00486  -0.01182
  73        4S          0.00003   0.00000  -0.00048   0.00051   0.00041
  74        5PX         0.00001   0.00000  -0.00096   0.00345   0.00748
  75        5PY        -0.00001   0.00000   0.00055  -0.00199  -0.00432
  76        5PZ        -0.00004   0.00000   0.00028   0.00096   0.00035
  77        6PX         0.00006   0.00000  -0.00068   0.00070   0.00108
  78        6PY        -0.00003   0.00000   0.00039  -0.00040  -0.00063
  79        6PZ         0.00033  -0.00001   0.00005   0.00243  -0.00049
  80        7PX         0.00037   0.00001   0.00114  -0.00428  -0.00891
  81        7PY        -0.00022   0.00000  -0.00066   0.00247   0.00514
  82        7PZ        -0.00055   0.00001  -0.00281  -0.00173  -0.00129
  83        8D 0        0.00006   0.00000   0.00015  -0.00035  -0.00092
  84        8D+1       -0.00001   0.00000  -0.00013   0.00043   0.00021
  85        8D-1        0.00000   0.00000   0.00008  -0.00025  -0.00012
  86        8D+2        0.00001   0.00000  -0.00002   0.00027   0.00069
  87        8D-2       -0.00001   0.00000   0.00003  -0.00047  -0.00119
  88        9D 0        0.00008  -0.00001  -0.00009   0.00123   0.00101
  89        9D+1        0.00013   0.00000  -0.00005   0.00003  -0.00033
  90        9D-1       -0.00007   0.00000   0.00003  -0.00002   0.00019
  91        9D+2       -0.00002   0.00000   0.00050  -0.00113  -0.00208
  92        9D-2        0.00003   0.00000  -0.00087   0.00195   0.00361
  93 4   H  1S         -0.00008   0.00000  -0.00871   0.03708   0.08051
  94        2S          0.00096  -0.00006  -0.01582   0.04376   0.08401
  95        3S          0.00181   0.00004  -0.00116  -0.00486  -0.01182
  96        4S          0.00003   0.00000  -0.00048   0.00051   0.00041
  97        5PX        -0.00001   0.00000   0.00096  -0.00345  -0.00748
  98        5PY        -0.00001   0.00000   0.00055  -0.00199  -0.00432
  99        5PZ        -0.00004   0.00000   0.00028   0.00096   0.00035
 100        6PX        -0.00006   0.00000   0.00068  -0.00070  -0.00108
 101        6PY        -0.00003   0.00000   0.00039  -0.00040  -0.00063
 102        6PZ         0.00033  -0.00001   0.00005   0.00243  -0.00049
 103        7PX        -0.00037  -0.00001  -0.00114   0.00428   0.00891
 104        7PY        -0.00022   0.00000  -0.00066   0.00247   0.00514
 105        7PZ        -0.00055   0.00001  -0.00281  -0.00173  -0.00130
 106        8D 0        0.00006   0.00000   0.00015  -0.00035  -0.00092
 107        8D+1        0.00001   0.00000   0.00013  -0.00043  -0.00021
 108        8D-1        0.00000   0.00000   0.00008  -0.00025  -0.00012
 109        8D+2        0.00001   0.00000  -0.00002   0.00027   0.00069
 110        8D-2        0.00001   0.00000  -0.00003   0.00047   0.00119
 111        9D 0        0.00008  -0.00001  -0.00009   0.00123   0.00101
 112        9D+1       -0.00013   0.00000   0.00005  -0.00003   0.00033
 113        9D-1       -0.00007   0.00000   0.00003  -0.00002   0.00019
 114        9D+2       -0.00002   0.00000   0.00050  -0.00113  -0.00209
 115        9D-2       -0.00003   0.00000   0.00087  -0.00195  -0.00361
 116 5   Cl 1S          0.00007   0.99708  -0.00064   0.06651  -0.03472
 117        2S         -0.00007   0.01040   0.00294  -0.25205   0.13048
 118        3S          0.00005   0.00017  -0.00394   0.52492  -0.27762
 119        4S          0.00008   0.00026  -0.00025   0.06430  -0.03739
 120        5S         -0.00180  -0.00020  -0.01241   0.35117  -0.17008
 121        6S         -0.00050  -0.00012  -0.00471   0.02464   0.01139
 122        7PX         0.00000   0.00000   0.00000   0.00000   0.00001
 123        7PY         0.00000   0.00000   0.00000   0.00000   0.00001
 124        7PZ         0.00743   0.00016   0.00154   0.00459   0.02879
 125        8PX         0.00000   0.00000   0.00000   0.00000  -0.00001
 126        8PY         0.00000   0.00000   0.00000   0.00000  -0.00003
 127        8PZ         0.00051  -0.00003  -0.00230  -0.00609  -0.07206
 128        9PX         0.00000   0.00000   0.00000   0.00000  -0.00001
 129        9PY         0.00000   0.00000   0.00000   0.00000  -0.00001
 130        9PZ         0.00032   0.00003  -0.00266   0.00065  -0.03140
 131       10PX         0.00000   0.00000   0.00000   0.00000  -0.00001
 132       10PY         0.00000   0.00000   0.00000   0.00000  -0.00002
 133       10PZ         0.00094   0.00015   0.00273   0.00301  -0.05249
 134       11PX         0.00000   0.00000   0.00000   0.00000   0.00000
 135       11PY         0.00000   0.00000   0.00000   0.00000   0.00000
 136       11PZ         0.00002   0.00002  -0.00042   0.00263  -0.00879
 137       12D 0       -0.00003   0.00001  -0.00036   0.00448   0.00453
 138       12D+1        0.00000   0.00000   0.00000   0.00000   0.00000
 139       12D-1        0.00000   0.00000   0.00000   0.00000   0.00000
 140       12D+2        0.00000   0.00000   0.00000   0.00000   0.00000
 141       12D-2        0.00000   0.00000   0.00000   0.00000   0.00000
 142       13D 0       -0.00021   0.00000  -0.00163   0.00818   0.00969
 143       13D+1        0.00000   0.00000   0.00000   0.00000   0.00000
 144       13D-1        0.00000   0.00000   0.00000   0.00001   0.00001
 145       13D+2        0.00000   0.00000   0.00000   0.00000   0.00000
 146       13D-2        0.00000   0.00000   0.00000   0.00000   0.00000
 147       14D 0       -0.00014  -0.00004  -0.00185  -0.00020   0.00540
 148       14D+1        0.00000   0.00000   0.00000   0.00000   0.00000
 149       14D-1        0.00000   0.00000   0.00000   0.00000   0.00000
 150       14D+2        0.00000   0.00000   0.00000   0.00000   0.00000
 151       14D-2        0.00000   0.00000   0.00000   0.00000   0.00000
 152       15F 0        0.00005   0.00000   0.00023  -0.00180  -0.00191
 153       15F+1        0.00000   0.00000   0.00000   0.00000   0.00000
 154       15F-1        0.00000   0.00000   0.00000   0.00000   0.00000
 155       15F+2        0.00000   0.00000   0.00000   0.00000   0.00000
 156       15F-2        0.00000   0.00000   0.00000   0.00000   0.00000
 157       15F+3        0.00000   0.00000   0.00000   0.00000   0.00000
 158       15F-3       -0.00001   0.00000  -0.00002   0.00002   0.00009
 159       16F 0       -0.00005   0.00001   0.00004  -0.00092  -0.00170
 160       16F+1        0.00000   0.00000   0.00000   0.00000   0.00000
 161       16F-1        0.00000   0.00000   0.00000   0.00000   0.00000
 162       16F+2        0.00000   0.00000   0.00000   0.00000   0.00000
 163       16F-2        0.00000   0.00000   0.00000   0.00000   0.00000
 164       16F+3        0.00000   0.00000   0.00000   0.00000   0.00000
 165       16F-3        0.00003   0.00000   0.00002  -0.00001  -0.00021
 166 6   F  1S          0.97736  -0.00002   0.21183   0.01332   0.02198
 167        2S         -0.01504   0.00000  -0.53148  -0.03446  -0.05825
 168        3S          0.04206   0.00000  -0.16465  -0.01095  -0.01884
 169        4S          0.00197  -0.00001  -0.36859  -0.02397  -0.04477
 170        5S         -0.00081  -0.00006  -0.04517   0.00418   0.00776
 171        6PX         0.00000   0.00000   0.00000   0.00000   0.00002
 172        6PY         0.00000   0.00000   0.00001   0.00001   0.00004
 173        6PZ         0.00048   0.00000   0.01357   0.01282   0.08789
 174        7PX         0.00000   0.00000   0.00000   0.00000   0.00002
 175        7PY         0.00000   0.00000   0.00001   0.00001   0.00004
 176        7PZ        -0.00012   0.00000   0.01478   0.01567   0.10579
 177        8PX         0.00000   0.00000   0.00000   0.00000   0.00002
 178        8PY         0.00000   0.00000   0.00001   0.00001   0.00004
 179        8PZ         0.00244  -0.00001   0.01260   0.01228   0.08392
 180        9PX         0.00000   0.00000   0.00000   0.00000   0.00000
 181        9PY         0.00000   0.00000   0.00000   0.00000   0.00001
 182        9PZ        -0.00007  -0.00002   0.00225   0.00314   0.02414
 183       10D 0       -0.00002   0.00000  -0.00013   0.00018   0.00062
 184       10D+1        0.00000   0.00000   0.00000   0.00000   0.00000
 185       10D-1        0.00000   0.00000   0.00000   0.00000   0.00000
 186       10D+2        0.00000   0.00000   0.00000   0.00000   0.00000
 187       10D-2        0.00000   0.00000   0.00000   0.00000   0.00000
 188       11D 0       -0.00003   0.00000  -0.00107   0.00091   0.00280
 189       11D+1        0.00000   0.00000   0.00000   0.00000   0.00000
 190       11D-1        0.00000   0.00000   0.00000   0.00000   0.00000
 191       11D+2        0.00000   0.00000   0.00000   0.00000   0.00000
 192       11D-2        0.00000   0.00000   0.00000   0.00000   0.00000
 193       12D 0        0.00081   0.00000  -0.00052   0.00033   0.00386
 194       12D+1        0.00000   0.00000   0.00000   0.00000   0.00000
 195       12D-1        0.00000   0.00000   0.00000   0.00000   0.00000
 196       12D+2        0.00000   0.00000   0.00000   0.00000   0.00000
 197       12D-2        0.00000   0.00000   0.00000   0.00000   0.00000
 198       13F 0       -0.00006   0.00000  -0.00002   0.00013   0.00028
 199       13F+1        0.00000   0.00000   0.00000   0.00000   0.00000
 200       13F-1        0.00000   0.00000   0.00000   0.00000   0.00000
 201       13F+2        0.00000   0.00000   0.00000   0.00000   0.00000
 202       13F-2        0.00000   0.00000   0.00000   0.00000   0.00000
 203       13F+3        0.00000   0.00000   0.00000   0.00000   0.00000
 204       13F-3        0.00001   0.00000   0.00001   0.00002   0.00003
 205       14F 0        0.00020   0.00000  -0.00040  -0.00007   0.00061
 206       14F+1        0.00000   0.00000   0.00000   0.00000   0.00000
 207       14F-1        0.00000   0.00000   0.00000   0.00000   0.00000
 208       14F+2        0.00000   0.00000   0.00000   0.00000   0.00000
 209       14F-2        0.00000   0.00000   0.00000   0.00000   0.00000
 210       14F+3        0.00000   0.00000   0.00000   0.00000   0.00000
 211       14F-3       -0.00001   0.00000  -0.00007  -0.00006  -0.00009
                          11        12        13        14        15
     Eigenvalues --     1.96443   1.96443   1.95922   1.95922   1.94910
   1 1   C  1S          0.00000   0.00000   0.00000   0.00000   0.00000
   2        2S          0.00000   0.00000   0.00000   0.00000   0.00001
   3        3S          0.00000   0.00000   0.00000   0.00000   0.00000
   4        4S          0.00000   0.00000   0.00000   0.00001   0.00001
   5        5S          0.00000   0.00000   0.00000   0.00000   0.00000
   6        6PX         0.01772   0.09586   0.21704  -0.07961   0.05849
   7        6PY         0.09586  -0.01772   0.07961   0.21704   0.03470
   8        6PZ        -0.00004  -0.00001  -0.00007  -0.00008  -0.00002
   9        7PX         0.02374   0.12843   0.28771  -0.10554   0.08131
  10        7PY         0.12843  -0.02373   0.10554   0.28771   0.04823
  11        7PZ        -0.00006  -0.00001  -0.00010  -0.00011  -0.00003
  12        8PX         0.01742   0.09423   0.22223  -0.08152   0.06265
  13        8PY         0.09424  -0.01741   0.08152   0.22223   0.03716
  14        8PZ        -0.00004  -0.00001  -0.00007  -0.00008  -0.00002
  15        9PX        -0.00042  -0.00227   0.01790  -0.00657   0.01060
  16        9PY        -0.00227   0.00042   0.00657   0.01790   0.00629
  17        9PZ         0.00000   0.00000  -0.00001  -0.00001   0.00000
  18       10D 0        0.00000   0.00000   0.00000   0.00000   0.00000
  19       10D+1       -0.00050  -0.00269  -0.00118   0.00043  -0.00321
  20       10D-1       -0.00268   0.00049  -0.00043  -0.00117  -0.00190
  21       10D+2        0.00610  -0.00113   0.00512   0.01393   0.00257
  22       10D-2        0.00112   0.00610   0.01393  -0.00512   0.00432
  23       11D 0        0.00001   0.00000   0.00000  -0.00001   0.00001
  24       11D+1       -0.00238  -0.01285   0.00717  -0.00264  -0.01331
  25       11D-1       -0.01283   0.00237   0.00264   0.00721  -0.00789
  26       11D+2        0.02031  -0.00375   0.01565   0.04261   0.00873
  27       11D-2        0.00374   0.02030   0.04262  -0.01565   0.01470
  28       12D 0        0.00000   0.00000   0.00000   0.00000   0.00000
  29       12D+1       -0.00111  -0.00600   0.00532  -0.00196   0.00102
  30       12D-1       -0.00598   0.00110   0.00196   0.00535   0.00061
  31       12D+2        0.01990  -0.00367   0.01241   0.03379   0.00518
  32       12D-2        0.00367   0.01989   0.03379  -0.01241   0.00873
  33       13F 0        0.00000   0.00000   0.00000   0.00000   0.00000
  34       13F+1        0.00005   0.00029  -0.00191   0.00070  -0.00192
  35       13F-1        0.00028  -0.00005  -0.00070  -0.00191  -0.00114
  36       13F+2       -0.00064   0.00012  -0.00004  -0.00011  -0.00017
  37       13F-2       -0.00012  -0.00064  -0.00011   0.00004  -0.00029
  38       13F+3        0.00000   0.00000   0.00000   0.00000   0.00000
  39       13F-3        0.00000   0.00000   0.00000   0.00000   0.00000
  40       14F 0        0.00000   0.00000   0.00000   0.00001   0.00001
  41       14F+1        0.00009   0.00046  -0.00544   0.00199  -0.00624
  42       14F-1        0.00046  -0.00008  -0.00199  -0.00544  -0.00370
  43       14F+2       -0.00391   0.00072  -0.00005  -0.00014  -0.00166
  44       14F-2       -0.00072  -0.00390  -0.00015   0.00005  -0.00281
  45       14F+3        0.00000   0.00000   0.00000   0.00000   0.00000
  46       14F-3        0.00000   0.00000   0.00000   0.00000   0.00000
  47 2   H  1S         -0.06598   0.01218  -0.05225  -0.14238  -0.02388
  48        2S         -0.05933   0.01096  -0.05322  -0.14504  -0.02350
  49        3S          0.05748  -0.01061   0.04106   0.11190   0.00280
  50        4S         -0.00559   0.00103   0.00599   0.01632   0.00056
  51        5PX         0.00038   0.00205   0.00410  -0.00151   0.00091
  52        5PY        -0.00517   0.00095  -0.00427  -0.01163  -0.00184
  53        5PZ         0.00004  -0.00001  -0.00097  -0.00263   0.00009
  54        6PX         0.00146   0.00793   0.01281  -0.00470   0.00322
  55        6PY         0.00710  -0.00131   0.00389   0.01061   0.00287
  56        6PZ        -0.00289   0.00053   0.00013   0.00036  -0.00060
  57        7PX         0.00170   0.00922   0.01254  -0.00460   0.00246
  58        7PY         0.01384  -0.00256   0.01573   0.04288   0.00501
  59        7PZ         0.00059  -0.00011   0.00263   0.00718   0.00152
  60        8D 0        0.00041  -0.00007   0.00047   0.00128   0.00021
  61        8D+1        0.00000   0.00002   0.00030  -0.00011  -0.00003
  62        8D-1       -0.00075   0.00014  -0.00008  -0.00023  -0.00015
  63        8D+2        0.00059  -0.00011   0.00066   0.00180   0.00027
  64        8D-2        0.00019   0.00103   0.00211  -0.00077   0.00052
  65        9D 0       -0.00050   0.00009   0.00049   0.00135  -0.00008
  66        9D+1       -0.00028  -0.00153   0.00093  -0.00034  -0.00102
  67        9D-1       -0.00336   0.00062   0.00119   0.00323  -0.00023
  68        9D+2       -0.00158   0.00029  -0.00092  -0.00252  -0.00055
  69        9D-2        0.00030   0.00163   0.00271  -0.00099   0.00097
  70 3   H  1S          0.02244  -0.06323  -0.09719   0.11644  -0.02292
  71        2S          0.02018  -0.05686  -0.09899   0.11861  -0.02255
  72        3S         -0.01955   0.05508   0.07638  -0.09151   0.00268
  73        4S          0.00190  -0.00536   0.01114  -0.01334   0.00054
  74        5PX         0.00251  -0.00394  -0.00520   0.00964  -0.00107
  75        5PY         0.00082   0.00308   0.00688  -0.00233   0.00168
  76        5PZ        -0.00002   0.00004  -0.00180   0.00215   0.00009
  77        6PX         0.00171   0.00724   0.01151  -0.00314   0.00402
  78        6PY         0.00779  -0.00107   0.00545   0.01191   0.00145
  79        6PZ         0.00098  -0.00276   0.00025  -0.00031  -0.00058
  80        7PX         0.00034   0.01305   0.03047  -0.02609   0.00541
  81        7PY         0.01001  -0.00392  -0.00575   0.02495  -0.00024
  82        7PZ        -0.00021   0.00057   0.00491  -0.00589   0.00146
  83        8D 0       -0.00014   0.00039   0.00087  -0.00105   0.00020
  84        8D+1        0.00023  -0.00062  -0.00001   0.00026  -0.00014
  85        8D-1       -0.00011   0.00037   0.00029   0.00008   0.00005
  86        8D+2        0.00096   0.00002   0.00088   0.00198   0.00033
  87        8D-2        0.00032   0.00067   0.00193  -0.00056   0.00048
  88        9D 0        0.00017  -0.00048   0.00092  -0.00111  -0.00008
  89        9D+1        0.00026  -0.00305   0.00229  -0.00197  -0.00071
  90        9D-1       -0.00184   0.00116  -0.00044   0.00187  -0.00078
  91        9D+2        0.00108   0.00124   0.00278   0.00057   0.00112
  92        9D-2        0.00125  -0.00104  -0.00038   0.00271   0.00003
  93 4   H  1S          0.04354   0.05105   0.14943   0.02594   0.04680
  94        2S          0.03916   0.04590   0.15221   0.02642   0.04605
  95        3S         -0.03793  -0.04447  -0.11744  -0.02039  -0.00548
  96        4S          0.00369   0.00433  -0.01713  -0.00297  -0.00110
  97        5PX        -0.00375  -0.00279  -0.01020  -0.00399  -0.00313
  98        5PY        -0.00033  -0.00317  -0.00675   0.00267  -0.00179
  99        5PZ        -0.00003  -0.00003   0.00277   0.00048  -0.00018
 100        6PX         0.00099   0.00737   0.01081  -0.00504   0.00485
 101        6PY         0.00766  -0.00179   0.00355   0.01261   0.00285
 102        6PZ         0.00190   0.00223  -0.00039  -0.00007   0.00117
 103        7PX         0.00434   0.01232   0.04011   0.00019   0.00848
 104        7PY         0.01075   0.00008   0.02051   0.01530   0.00493
 105        7PZ        -0.00040  -0.00047  -0.00757  -0.00132  -0.00300
 106        8D 0       -0.00027  -0.00031  -0.00134  -0.00023  -0.00041
 107        8D+1       -0.00044  -0.00050  -0.00018  -0.00019  -0.00025
 108        8D-1       -0.00024  -0.00030  -0.00017   0.00025  -0.00015
 109        8D+2        0.00089  -0.00036   0.00061   0.00208   0.00027
 110        8D-2       -0.00006   0.00074   0.00183  -0.00082   0.00045
 111        9D 0        0.00033   0.00039  -0.00142  -0.00025   0.00016
 112        9D+1       -0.00133  -0.00275   0.00302   0.00002  -0.00039
 113        9D-1       -0.00213  -0.00043   0.00155   0.00114  -0.00024
 114        9D+2        0.00057  -0.00154  -0.00175   0.00224  -0.00053
 115        9D-2       -0.00154  -0.00053  -0.00204  -0.00182  -0.00095
 116 5   Cl 1S          0.00000   0.00000   0.00000   0.00000   0.00000
 117        2S          0.00000   0.00000   0.00000   0.00000   0.00000
 118        3S          0.00000   0.00000   0.00000   0.00000   0.00000
 119        4S          0.00000   0.00000   0.00000   0.00000   0.00000
 120        5S          0.00000   0.00000   0.00000   0.00000   0.00000
 121        6S          0.00000   0.00000   0.00000   0.00000   0.00000
 122        7PX        -0.00158  -0.00853  -0.04097   0.01503   0.19227
 123        7PY        -0.00853   0.00158  -0.01503  -0.04097   0.11404
 124        7PZ         0.00000   0.00000   0.00001   0.00001  -0.00008
 125        8PX         0.00373   0.02020   0.09679  -0.03550  -0.43979
 126        8PY         0.02020  -0.00373   0.03550   0.09679  -0.26086
 127        8PZ        -0.00001   0.00000  -0.00003  -0.00004   0.00019
 128        9PX         0.00173   0.00937   0.04477  -0.01642  -0.21245
 129        9PY         0.00937  -0.00173   0.01642   0.04477  -0.12601
 130        9PZ         0.00000   0.00000  -0.00001  -0.00002   0.00009
 131       10PX         0.00185   0.01002   0.05239  -0.01922  -0.31631
 132       10PY         0.01002  -0.00185   0.01922   0.05239  -0.18762
 133       10PZ         0.00000   0.00000  -0.00002  -0.00002   0.00014
 134       11PX         0.00039   0.00213   0.00319  -0.00117  -0.05371
 135       11PY         0.00213  -0.00039   0.00117   0.00319  -0.03186
 136       11PZ         0.00000   0.00000   0.00000   0.00000   0.00002
 137       12D 0        0.00000   0.00000   0.00000   0.00000   0.00000
 138       12D+1       -0.00034  -0.00184  -0.00581   0.00213   0.00018
 139       12D-1       -0.00184   0.00034  -0.00213  -0.00581   0.00011
 140       12D+2        0.00011  -0.00002   0.00019   0.00051   0.00013
 141       12D-2        0.00002   0.00011   0.00051  -0.00019   0.00021
 142       13D 0        0.00000   0.00000   0.00001   0.00001   0.00000
 143       13D+1       -0.00052  -0.00282  -0.01028   0.00377   0.00059
 144       13D-1       -0.00282   0.00052  -0.00377  -0.01028   0.00035
 145       13D+2        0.00032  -0.00006   0.00022   0.00061   0.00029
 146       13D-2        0.00006   0.00032   0.00060  -0.00022   0.00048
 147       14D 0        0.00000   0.00000   0.00000   0.00000   0.00000
 148       14D+1        0.00002   0.00010   0.00008  -0.00003   0.00289
 149       14D-1        0.00010  -0.00002   0.00003   0.00008   0.00171
 150       14D+2       -0.00064   0.00012  -0.00003  -0.00007   0.00004
 151       14D-2       -0.00012  -0.00064  -0.00007   0.00003   0.00006
 152       15F 0        0.00000   0.00000   0.00000   0.00000   0.00000
 153       15F+1        0.00016   0.00086   0.00247  -0.00091  -0.00120
 154       15F-1        0.00086  -0.00016   0.00091   0.00247  -0.00071
 155       15F+2       -0.00010   0.00002  -0.00012  -0.00032  -0.00005
 156       15F-2       -0.00002  -0.00010  -0.00032   0.00012  -0.00009
 157       15F+3        0.00000   0.00000   0.00000   0.00000   0.00000
 158       15F-3        0.00000   0.00000   0.00000   0.00000   0.00000
 159       16F 0        0.00000   0.00000   0.00000   0.00000   0.00000
 160       16F+1        0.00011   0.00057   0.00186  -0.00068  -0.00154
 161       16F-1        0.00057  -0.00011   0.00068   0.00186  -0.00091
 162       16F+2        0.00000   0.00000   0.00006   0.00017  -0.00010
 163       16F-2        0.00000   0.00000   0.00018  -0.00006  -0.00018
 164       16F+3        0.00000   0.00000   0.00000   0.00000   0.00000
 165       16F-3        0.00000   0.00000   0.00000   0.00000   0.00000
 166 6   F  1S          0.00000   0.00000   0.00000   0.00000   0.00000
 167        2S          0.00000   0.00000   0.00000   0.00000   0.00000
 168        3S          0.00000   0.00000   0.00000   0.00000   0.00000
 169        4S          0.00000   0.00000   0.00000   0.00000   0.00000
 170        5S          0.00000   0.00000   0.00000   0.00000   0.00000
 171        6PX         0.06041   0.32687  -0.15182   0.05569  -0.01966
 172        6PY         0.32686  -0.06041  -0.05569  -0.15182  -0.01166
 173        6PZ        -0.00016  -0.00003   0.00005   0.00006  -0.00001
 174        7PX         0.07206   0.38994  -0.18001   0.06603  -0.02326
 175        7PY         0.38993  -0.07206  -0.06603  -0.18001  -0.01380
 176        7PZ        -0.00019  -0.00003   0.00006   0.00007  -0.00001
 177        8PX         0.05825   0.31520  -0.15157   0.05560  -0.01995
 178        8PY         0.31520  -0.05825  -0.05560  -0.15157  -0.01183
 179        8PZ        -0.00016  -0.00003   0.00005   0.00006   0.00000
 180        9PX         0.01825   0.09874  -0.05340   0.01959  -0.00971
 181        9PY         0.09874  -0.01825  -0.01959  -0.05340  -0.00576
 182        9PZ        -0.00005  -0.00001   0.00002   0.00002   0.00000
 183       10D 0        0.00000   0.00000   0.00000   0.00000   0.00000
 184       10D+1        0.00011   0.00060   0.00010  -0.00004   0.00011
 185       10D-1        0.00060  -0.00011   0.00004   0.00010   0.00006
 186       10D+2        0.00002   0.00000   0.00001   0.00004   0.00001
 187       10D-2        0.00000   0.00002   0.00004  -0.00001   0.00001
 188       11D 0        0.00000   0.00000   0.00000   0.00000   0.00000
 189       11D+1        0.00045   0.00243   0.00116  -0.00042   0.00052
 190       11D-1        0.00243  -0.00045   0.00042   0.00116   0.00031
 191       11D+2        0.00004  -0.00001   0.00009   0.00024   0.00009
 192       11D-2        0.00001   0.00005   0.00024  -0.00009   0.00015
 193       12D 0        0.00000   0.00000   0.00000   0.00000   0.00000
 194       12D+1        0.00109   0.00589  -0.00336   0.00123   0.00027
 195       12D-1        0.00589  -0.00109  -0.00123  -0.00336   0.00016
 196       12D+2        0.00004  -0.00001  -0.00010  -0.00027  -0.00019
 197       12D-2        0.00001   0.00004  -0.00027   0.00010  -0.00032
 198       13F 0        0.00000   0.00000   0.00000   0.00000   0.00000
 199       13F+1        0.00004   0.00022   0.00024  -0.00009   0.00005
 200       13F-1        0.00022  -0.00004   0.00009   0.00024   0.00003
 201       13F+2        0.00005  -0.00001   0.00004   0.00011   0.00003
 202       13F-2        0.00001   0.00005   0.00011  -0.00004   0.00006
 203       13F+3        0.00000   0.00000   0.00000   0.00000   0.00000
 204       13F-3        0.00000   0.00000   0.00000   0.00000   0.00000
 205       14F 0        0.00000   0.00000   0.00000   0.00000   0.00000
 206       14F+1        0.00027   0.00145  -0.00084   0.00031   0.00000
 207       14F-1        0.00145  -0.00027  -0.00031  -0.00084   0.00000
 208       14F+2       -0.00013   0.00002  -0.00009  -0.00023  -0.00008
 209       14F-2       -0.00002  -0.00013  -0.00023   0.00009  -0.00014
 210       14F+3        0.00000   0.00000   0.00000   0.00000   0.00000
 211       14F-3        0.00000   0.00000   0.00000   0.00000   0.00000
                          16        17        18        19        20
     Eigenvalues --     1.94910   1.94870   1.93552   0.06010   0.02490
   1 1   C  1S         -0.00001   0.05345  -0.01601  -0.02383   0.00000
   2        2S          0.00001  -0.15225   0.05158   0.06616  -0.00002
   3        3S          0.00000  -0.03593   0.01689   0.02407  -0.00001
   4        4S          0.00003  -0.29608   0.08815  -0.21591   0.00004
   5        5S          0.00001  -0.05814   0.03980  -0.02825   0.00001
   6        6PX        -0.03470  -0.00001  -0.00002   0.00005   0.01373
   7        6PY         0.05849  -0.00001  -0.00006   0.00012   0.15505
   8        6PZ        -0.00001  -0.04692  -0.12815   0.27958  -0.00007
   9        7PX        -0.04823  -0.00001  -0.00003   0.00008   0.02542
  10        7PY         0.08131  -0.00002  -0.00008   0.00019   0.28718
  11        7PZ        -0.00002  -0.06644  -0.17976   0.44310  -0.00013
  12        8PX        -0.03716  -0.00001  -0.00001   0.00004   0.01158
  13        8PY         0.06265  -0.00002  -0.00003   0.00009   0.13079
  14        8PZ        -0.00001  -0.06492  -0.07574   0.20350  -0.00006
  15        9PX        -0.00629   0.00000   0.00000   0.00000   0.00264
  16        9PY         0.01060   0.00000   0.00000   0.00000   0.02977
  17        9PZ         0.00000  -0.00124  -0.00158   0.00002  -0.00001
  18       10D 0        0.00000   0.00945  -0.01109  -0.00869  -0.00002
  19       10D+1        0.00190   0.00000   0.00000   0.00000   0.00229
  20       10D-1       -0.00320   0.00001  -0.00001  -0.00001   0.02584
  21       10D+2        0.00433   0.00000   0.00000   0.00000   0.00386
  22       10D-2       -0.00257   0.00000   0.00000   0.00000   0.00035
  23       11D 0        0.00000   0.05042  -0.04590   0.06615  -0.00006
  24       11D+1        0.00789   0.00002  -0.00001   0.00002   0.00538
  25       11D-1       -0.01329   0.00004  -0.00003   0.00005   0.06097
  26       11D+2        0.01471   0.00000   0.00000   0.00000   0.06957
  27       11D-2       -0.00873   0.00000   0.00000   0.00000   0.00615
  28       12D 0        0.00000   0.02862  -0.00380  -0.01786  -0.00001
  29       12D+1       -0.00061   0.00001   0.00000  -0.00001   0.00167
  30       12D-1        0.00103   0.00002   0.00000  -0.00001   0.01893
  31       12D+2        0.00873   0.00000   0.00000   0.00000   0.01404
  32       12D-2       -0.00518   0.00000   0.00000   0.00000   0.00124
  33       13F 0        0.00000  -0.00220  -0.00327  -0.00601   0.00001
  34       13F+1        0.00114   0.00000   0.00000   0.00000  -0.00085
  35       13F-1       -0.00192   0.00000   0.00000  -0.00001  -0.00960
  36       13F+2       -0.00028   0.00000   0.00000   0.00000   0.00322
  37       13F-2        0.00017   0.00000   0.00000   0.00000   0.00028
  38       13F+3        0.00000   0.00000   0.00000   0.00000   0.00000
  39       13F-3        0.00000  -0.00310   0.00116  -0.00050   0.00000
  40       14F 0        0.00001  -0.00559  -0.00085   0.01213   0.00000
  41       14F+1        0.00370   0.00000   0.00000   0.00001  -0.00022
  42       14F-1       -0.00624  -0.00001   0.00000   0.00001  -0.00254
  43       14F+2       -0.00279   0.00001   0.00000   0.00002  -0.00193
  44       14F-2        0.00166   0.00000   0.00000   0.00001  -0.00017
  45       14F+3        0.00000  -0.00001   0.00000  -0.00001   0.00000
  46       14F-3        0.00000  -0.01526   0.00925  -0.03747   0.00000
  47 2   H  1S         -0.04025  -0.03391   0.02897  -0.00709   0.04096
  48        2S         -0.03961  -0.00273   0.02283   0.07885   0.25813
  49        3S          0.00471   0.02268   0.02052   0.06759   0.16149
  50        4S          0.00095   0.00012   0.00197   0.00723   0.07099
  51        5PX        -0.00054   0.00000   0.00000   0.00000   0.00024
  52        5PY        -0.00310  -0.00213   0.00249  -0.00207  -0.00877
  53        5PZ         0.00015  -0.00270  -0.00320   0.01433  -0.01235
  54        6PX        -0.00191   0.00000   0.00000   0.00001   0.00066
  55        6PY         0.00484   0.00565  -0.00157   0.00969   0.05880
  56        6PZ        -0.00101  -0.00100  -0.01024   0.02807  -0.00535
  57        7PX        -0.00146   0.00000   0.00000   0.00000  -0.00018
  58        7PY         0.00844   0.01133  -0.00167   0.01246   0.04995
  59        7PZ         0.00257   0.00817   0.00309  -0.01425   0.00547
  60        8D 0        0.00035   0.00012  -0.00085   0.00063   0.00255
  61        8D+1        0.00002   0.00000   0.00000   0.00000   0.00016
  62        8D-1       -0.00025  -0.00021  -0.00170   0.00669  -0.00397
  63        8D+2        0.00045   0.00052  -0.00061   0.00185   0.00262
  64        8D-2       -0.00031   0.00000   0.00000   0.00000   0.00018
  65        9D 0       -0.00014   0.00080  -0.00284   0.00609  -0.00353
  66        9D+1        0.00060   0.00000   0.00000   0.00000   0.00039
  67        9D-1       -0.00039   0.00203  -0.00055  -0.00593   0.01572
  68        9D+2       -0.00093   0.00111   0.00035  -0.00122  -0.00942
  69        9D-2       -0.00058   0.00000   0.00000   0.00000   0.00010
  70 3   H  1S          0.04081  -0.03390   0.02897  -0.00709  -0.01734
  71        2S          0.04016  -0.00272   0.02283   0.07885  -0.10931
  72        3S         -0.00478   0.02269   0.02052   0.06759  -0.06839
  73        4S         -0.00096   0.00012   0.00197   0.00723  -0.03006
  74        5PX         0.00298  -0.00185   0.00216  -0.00179   0.00449
  75        5PY        -0.00112   0.00106  -0.00125   0.00104   0.00035
  76        5PZ        -0.00015  -0.00271  -0.00319   0.01433   0.00523
  77        6PX        -0.00333   0.00489  -0.00136   0.00839  -0.01822
  78        6PY         0.00405  -0.00282   0.00078  -0.00483   0.01824
  79        6PZ         0.00102  -0.00100  -0.01025   0.02808   0.00225
  80        7PX        -0.00671   0.00981  -0.00144   0.01079  -0.01928
  81        7PY         0.00549  -0.00566   0.00084  -0.00624   0.00890
  82        7PZ        -0.00261   0.00817   0.00309  -0.01424  -0.00233
  83        8D 0       -0.00035   0.00012  -0.00085   0.00064  -0.00108
  84        8D+1        0.00021  -0.00019  -0.00147   0.00579   0.00229
  85        8D-1       -0.00014   0.00011   0.00085  -0.00334   0.00060
  86        8D+2        0.00048  -0.00026   0.00030  -0.00092   0.00221
  87        8D-2       -0.00025   0.00045  -0.00053   0.00161   0.00000
  88        9D 0        0.00014   0.00080  -0.00284   0.00609   0.00149
  89        9D+1        0.00005   0.00176  -0.00047  -0.00514  -0.00376
  90        9D-1       -0.00070  -0.00102   0.00027   0.00297   0.00681
  91        9D+2        0.00001  -0.00056  -0.00018   0.00061  -0.00112
  92        9D-2        0.00110   0.00096   0.00030  -0.00106   0.00396
  93 4   H  1S         -0.00055  -0.03391   0.02897  -0.00709  -0.02361
  94        2S         -0.00055  -0.00272   0.02283   0.07885  -0.14883
  95        3S          0.00006   0.02269   0.02052   0.06759  -0.09312
  96        4S          0.00001   0.00012   0.00197   0.00723  -0.04093
  97        5PX        -0.00049   0.00185  -0.00216   0.00180  -0.00552
  98        5PY         0.00094   0.00106  -0.00125   0.00104  -0.00053
  99        5PZ         0.00000  -0.00271  -0.00319   0.01433   0.00712
 100        6PX        -0.00193  -0.00489   0.00135  -0.00838   0.02635
 101        6PY         0.00321  -0.00282   0.00078  -0.00483   0.02217
 102        6PZ        -0.00001  -0.00099  -0.01025   0.02808   0.00305
 103        7PX        -0.00153  -0.00980   0.00144  -0.01080   0.02581
 104        7PY         0.00242  -0.00566   0.00083  -0.00624   0.01288
 105        7PZ         0.00003   0.00817   0.00309  -0.01424  -0.00318
 106        8D 0        0.00000   0.00012  -0.00085   0.00064  -0.00147
 107        8D+1        0.00002   0.00019   0.00147  -0.00579  -0.00273
 108        8D-1       -0.00003   0.00011   0.00085  -0.00334   0.00016
 109        8D+2        0.00052  -0.00026   0.00030  -0.00093   0.00225
 110        8D-2       -0.00031  -0.00045   0.00053  -0.00161   0.00044
 111        9D 0        0.00000   0.00080  -0.00284   0.00609   0.00202
 112        9D+1        0.00059  -0.00176   0.00047   0.00514   0.00604
 113        9D-1       -0.00102  -0.00102   0.00027   0.00297   0.00768
 114        9D+2        0.00099  -0.00056  -0.00018   0.00061  -0.00193
 115        9D-2       -0.00056  -0.00096  -0.00030   0.00106  -0.00515
 116 5   Cl 1S          0.00000   0.01025   0.00046  -0.01678   0.00000
 117        2S          0.00000  -0.03912  -0.00151   0.05634   0.00000
 118        3S         -0.00001   0.08090   0.01089  -0.15651   0.00000
 119        4S          0.00000   0.01250   0.00445  -0.03990   0.00000
 120        5S         -0.00001   0.06936   0.01167  -0.04642   0.00000
 121        6S          0.00000   0.02044  -0.01281   0.01527   0.00000
 122        7PX        -0.11404   0.00000  -0.00004  -0.00003   0.00188
 123        7PY         0.19227   0.00003  -0.00009  -0.00007   0.02126
 124        7PZ        -0.00007   0.02607  -0.21031  -0.16292  -0.00001
 125        8PX         0.26086   0.00000   0.00008   0.00006  -0.00294
 126        8PY        -0.43979  -0.00008   0.00020   0.00016  -0.03316
 127        8PZ         0.00015  -0.06097   0.46514   0.35965   0.00001
 128        9PX         0.12601   0.00000   0.00004   0.00004  -0.00313
 129        9PY        -0.21245  -0.00004   0.00009   0.00009  -0.03533
 130        9PZ         0.00007  -0.03045   0.21857   0.20592   0.00001
 131       10PX         0.18762  -0.00001   0.00006   0.00001   0.00151
 132       10PY        -0.31631  -0.00007   0.00014   0.00001   0.01707
 133       10PZ         0.00011  -0.07154   0.31860   0.03011  -0.00001
 134       11PX         0.03186   0.00000   0.00001   0.00000   0.00050
 135       11PY        -0.05371  -0.00002   0.00002   0.00000   0.00567
 136       11PZ         0.00002  -0.02401   0.04663   0.00740   0.00000
 137       12D 0        0.00000  -0.00482  -0.01233   0.06754   0.00004
 138       12D+1       -0.00011   0.00000   0.00000   0.00002  -0.00522
 139       12D-1        0.00018   0.00000  -0.00001   0.00005  -0.05891
 140       12D+2        0.00021   0.00000   0.00000   0.00000   0.00104
 141       12D-2       -0.00013   0.00000   0.00000   0.00000   0.00008
 142       13D 0        0.00000  -0.00767  -0.01934   0.09776   0.00006
 143       13D+1       -0.00035   0.00000  -0.00001   0.00003  -0.00779
 144       13D-1        0.00059  -0.00001  -0.00001   0.00007  -0.08795
 145       13D+2        0.00048   0.00000   0.00000   0.00000   0.00162
 146       13D-2       -0.00029   0.00000   0.00000   0.00000   0.00012
 147       14D 0        0.00000   0.00149  -0.01320   0.02978   0.00001
 148       14D+1       -0.00171   0.00000   0.00000   0.00001  -0.00085
 149       14D-1        0.00289   0.00000  -0.00001   0.00002  -0.00962
 150       14D+2        0.00006   0.00000   0.00000   0.00000   0.00030
 151       14D-2       -0.00004   0.00000   0.00000   0.00000   0.00002
 152       15F 0        0.00000   0.00101   0.00457  -0.00362  -0.00001
 153       15F+1        0.00071   0.00000   0.00000   0.00000   0.00044
 154       15F-1       -0.00120   0.00000   0.00000   0.00000   0.00502
 155       15F+2       -0.00009   0.00000   0.00000   0.00000  -0.00024
 156       15F-2        0.00005   0.00000   0.00000   0.00000  -0.00002
 157       15F+3        0.00000   0.00000   0.00000   0.00000   0.00000
 158       15F-3        0.00000  -0.00007   0.00004   0.00005   0.00000
[...]
  79        6PZ        -0.32927  -0.02491   0.00786  -0.16356  -0.07498
  80        7PX         1.07868  -9.44831  -2.81976  -1.71129  -4.50600
  81        7PY        -0.63014   2.16390 -10.08527   0.98867  -0.96224
  82        7PZ        -1.54061  -3.17930   0.89907  -0.00705  -0.37519
  83        8D 0       -0.03881   0.01000  -0.00275   0.02421   0.00858
  84        8D+1        0.01053  -0.02704  -0.01457   0.00860   0.00875
  85        8D-1       -0.00607   0.00233  -0.03891  -0.00491   0.00086
  86        8D+2        0.06529   0.02488   0.10117   0.02526   0.01306
  87        8D-2       -0.11302   0.02194   0.05630  -0.04378   0.02911
  88        9D 0       -0.50243   0.47154  -0.13253  -0.14913   0.12230
  89        9D+1       -0.22235  -0.10747   0.23292  -0.04068  -0.14901
  90        9D-1        0.12804   0.18317   0.29756   0.02296  -0.00914
  91        9D+2       -0.12041  -1.09089  -1.34936  -0.35874  -0.50023
  92        9D-2        0.20659   0.89439  -1.20662   0.62177  -0.14154
  93 4   H  1S         -0.03719  -0.00695  -0.00675  -0.00993   0.01453
  94        2S          0.25740   2.47333   2.41420  -0.48773  -1.20926
  95        3S          7.51338  19.94820  19.46499  -3.10978 -14.07721
  96        4S          1.55696  -1.38262  -1.35088  -1.95751  -6.04871
  97        5PX        -0.02679   0.10444   0.02754  -0.08119  -0.07648
  98        5PY        -0.01536  -0.02564   0.10393  -0.04685   0.00577
  99        5PZ         0.05918   0.00767   0.00739   0.03096   0.00558
 100        6PX        -0.58745  -2.01300  -0.93450   0.59563   0.83760
 101        6PY        -0.34026   0.02716  -1.75754   0.34380  -0.01317
 102        6PZ        -0.32907   0.01873   0.01913  -0.16376  -0.08903
 103        7PX        -1.07679  -9.64340  -2.05136   1.71134   4.96316
 104        7PY        -0.63011   2.93259  -9.88925   0.98823  -0.50586
 105        7PZ        -1.54105   2.36339   2.31247  -0.00758  -0.44584
 106        8D 0       -0.03881  -0.00746  -0.00721   0.02421   0.01016
 107        8D+1       -0.01057  -0.03070  -0.00021  -0.00859  -0.00974
 108        8D-1       -0.00611   0.01658  -0.03526  -0.00493  -0.00002
 109        8D+2        0.06536  -0.07026   0.07688   0.02528   0.01012
 110        8D-2        0.11298   0.04630  -0.03895   0.04377  -0.03137
 111        9D 0       -0.50247  -0.35063  -0.34204  -0.14916   0.14453
 112        9D+1        0.22213   0.01641  -0.25584   0.04071   0.16677
 113        9D-1        0.12813  -0.30335   0.17304   0.02316   0.00606
 114        9D+2       -0.12081   1.60394  -0.66144  -0.35902  -0.48807
 115        9D-2       -0.20663   0.20631   1.48796  -0.62157   0.10795
 116 5   Cl 1S          0.02060   0.00001  -0.00001   0.01182   0.00000
 117        2S          0.28592   0.00009  -0.00018   0.16445   0.00000
 118        3S          0.79527   0.00025  -0.00050   0.46192   0.00000
 119        4S         -0.04566  -0.00002   0.00003  -0.01498   0.00000
 120        5S         -4.41504  -0.00135   0.00274  -3.04587   0.00002
 121        6S         -9.88007  -0.00280   0.00571 -13.26875   0.00001
 122        7PX         0.00000   0.00069   0.00018   0.00000  -0.00014
 123        7PY         0.00000  -0.00018   0.00069  -0.00001  -0.00293
 124        7PZ        -0.00458   0.00000   0.00000  -0.02270   0.00000
 125        8PX        -0.00001   0.01680   0.00429  -0.00005  -0.00284
 126        8PY        -0.00002  -0.00429   0.01680  -0.00014  -0.05869
 127        8PZ        -0.06480  -0.00001   0.00002  -0.31646   0.00003
 128        9PX         0.00000  -0.00350  -0.00089   0.00001   0.00048
 129        9PY         0.00000   0.00089  -0.00350   0.00004   0.00980
 130        9PZ         0.00189   0.00000   0.00000   0.07947   0.00000
 131       10PX         0.00106  -0.06390  -0.01630   0.00090   0.02037
 132       10PY         0.00259   0.01630  -0.06388   0.00220   0.42037
 133       10PZ         5.95688   0.00176  -0.00353   5.08872  -0.00020
 134       11PX         0.00031  -1.11659  -0.28491   0.00059  -0.01186
 135       11PY        -0.00043   0.28491  -1.11653   0.00148  -0.24469
 136       11PZ         0.80065   0.00027   0.00014   3.35355   0.00012
 137       12D 0        0.06818   0.00002  -0.00007   0.00208   0.00000
 138       12D+1        0.00002   0.02976   0.00760   0.00000  -0.00018
 139       12D-1        0.00007  -0.00759   0.02976   0.00000  -0.00370
 140       12D+2       -0.00001   0.00180  -0.00706   0.00000   0.01222
 141       12D-2        0.00000  -0.00703  -0.00179   0.00000   0.00059
 142       13D 0       -0.38882  -0.00011   0.00033  -0.07194  -0.00002
 143       13D+1       -0.00010  -0.10927  -0.02789  -0.00002   0.00125
 144       13D-1       -0.00037   0.02788  -0.10926  -0.00005   0.02569
 145       13D+2        0.00002  -0.00402   0.01572   0.00000  -0.04400
 146       13D-2        0.00000   0.01563   0.00396   0.00000  -0.00211
 147       14D 0       -1.40020  -0.00044   0.00058  -1.23806   0.00025
 148       14D+1       -0.00047   0.29471   0.07521  -0.00038  -0.01575
 149       14D-1       -0.00086  -0.07517   0.29463  -0.00093  -0.32405
 150       14D+2       -0.00004   0.01569  -0.06135   0.00000   0.20163
 151       14D-2        0.00001  -0.06115  -0.01552   0.00000   0.00962
 152       15F 0       -0.04251  -0.00001   0.00002   0.00151   0.00002
 153       15F+1       -0.00002   0.00412   0.00106   0.00000  -0.00090
 154       15F-1       -0.00004  -0.00105   0.00411   0.00000  -0.01844
 155       15F+2        0.00000   0.00241  -0.00947  -0.00001   0.01035
 156       15F-2        0.00000  -0.00947  -0.00241  -0.00001   0.00049
 157       15F+3        0.00000   0.00000   0.00000   0.00001   0.00000
 158       15F-3       -0.00960   0.00000   0.00000   0.02271   0.00001
 159       16F 0        0.23202   0.00007  -0.00012   0.08837  -0.00007
 160       16F+1        0.00010  -0.01356  -0.00347   0.00004   0.00305
 161       16F-1        0.00023   0.00343  -0.01351   0.00009   0.06268
 162       16F+2        0.00002  -0.01135   0.04453   0.00002  -0.04241
 163       16F-2       -0.00001   0.04453   0.01134   0.00001  -0.00202
 164       16F+3        0.00001  -0.00002   0.00001  -0.00002  -0.00001
 165       16F-3        0.01991   0.00001   0.00001  -0.04235  -0.00002
 166 6   F  1S          0.03967   0.00001  -0.00003  -0.02344   0.00000
 167        2S          0.13897   0.00004  -0.00009  -0.08936   0.00000
 168        3S         -0.07193  -0.00002   0.00005   0.03762   0.00000
 169        4S         -0.36382  -0.00012   0.00025  -0.01459   0.00001
 170        5S         -0.13445  -0.00001   0.00002  -6.02445   0.00002
 171        6PX         0.00000  -0.00705  -0.00180   0.00000   0.00008
 172        6PY         0.00000   0.00180  -0.00705   0.00000   0.00171
 173        6PZ         0.00537   0.00000   0.00000   0.00222   0.00000
 174        7PX        -0.00002   0.03649   0.00931   0.00000  -0.00030
 175        7PY         0.00000  -0.00931   0.03649   0.00000  -0.00614
 176        7PZ        -0.06356  -0.00002   0.00002   0.00236   0.00000
 177        8PX         0.00015  -0.25635  -0.06541  -0.00004   0.00002
 178        8PY         0.00011   0.06541  -0.25633  -0.00012   0.00033
 179        8PZ         0.64398   0.00022  -0.00028  -0.24122   0.00001
 180        9PX        -0.00004  -0.82657  -0.21091  -0.00044  -0.01108
 181        9PY        -0.00094   0.21091  -0.82653  -0.00115  -0.22871
 182        9PZ        -0.91264  -0.00019   0.00091  -2.52029   0.00011
 183       10D 0        0.01095   0.00000   0.00001  -0.00799   0.00000
 184       10D+1        0.00001  -0.01430  -0.00365   0.00000   0.00011
 185       10D-1        0.00000   0.00365  -0.01429  -0.00001   0.00227
 186       10D+2        0.00000  -0.00117   0.00458   0.00000   0.00282
 187       10D-2        0.00000   0.00456   0.00116   0.00000   0.00014
 188       11D 0       -0.04061  -0.00002  -0.00001   0.01562   0.00000
 189       11D+1       -0.00002   0.04598   0.01174   0.00000  -0.00019
 190       11D-1        0.00000  -0.01173   0.04597   0.00001  -0.00399
 191       11D+2       -0.00001   0.00396  -0.01552   0.00000  -0.01006
 192       11D-2        0.00000  -0.01547  -0.00393   0.00000  -0.00048
 193       12D 0        0.41740   0.00014  -0.00015  -0.00899   0.00003
 194       12D+1        0.00015  -0.13189  -0.03366   0.00000  -0.00156
 195       12D-1        0.00023   0.03363  -0.13183  -0.00001  -0.03204
 196       12D+2        0.00005  -0.01517   0.05947   0.00000   0.01886
 197       12D-2       -0.00001   0.05933   0.01509   0.00000   0.00090
 198       13F 0       -0.02647  -0.00001   0.00004  -0.00716  -0.00001
 199       13F+1       -0.00001  -0.01853  -0.00473   0.00000   0.00039
 200       13F-1       -0.00004   0.00473  -0.01854  -0.00001   0.00817
 201       13F+2       -0.00001   0.00222  -0.00873   0.00000   0.00265
 202       13F-2        0.00000  -0.00875  -0.00223   0.00000   0.00013
 203       13F+3        0.00000   0.00001   0.00000   0.00000   0.00000
 204       13F-3        0.01286   0.00000  -0.00001  -0.00112   0.00000
 205       14F 0        0.06628   0.00001  -0.00009   0.01092   0.00002
 206       14F+1        0.00002   0.04015   0.01024   0.00000  -0.00087
 207       14F-1        0.00010  -0.01026   0.04019   0.00001  -0.01798
 208       14F+2        0.00003  -0.00623   0.02450   0.00000  -0.00650
 209       14F-2        0.00000   0.02455   0.00627   0.00000  -0.00032
 210       14F+3       -0.00001  -0.00002   0.00000   0.00000   0.00000
 211       14F-3       -0.01737   0.00000   0.00002   0.00220   0.00000
                         211
     Eigenvalues --     0.00000
   1 1   C  1S          0.00000
   2        2S          0.00000
   3        3S          0.00000
   4        4S          0.00000
   5        5S          0.00004
   6        6PX         0.00761
   7        6PY        -0.00037
   8        6PZ         0.00000
   9        7PX        -1.53910
  10        7PY         0.07456
  11        7PZ         0.00024
  12        8PX       -17.33400
  13        8PY         0.83987
  14        8PZ         0.00272
  15        9PX        -7.86646
  16        9PY         0.38116
  17        9PZ         0.00123
  18       10D 0        0.00000
  19       10D+1        0.00144
  20       10D-1       -0.00006
  21       10D+2        0.00105
  22       10D-2       -0.02178
  23       11D 0       -0.00006
  24       11D+1        0.21274
  25       11D-1       -0.01021
  26       11D+2        0.02038
  27       11D-2       -0.42309
  28       12D 0       -0.00036
  29       12D+1        1.27848
  30       12D-1       -0.06206
  31       12D+2       -0.02615
  32       12D-2        0.54990
  33       13F 0        0.00001
  34       13F+1       -0.03834
  35       13F-1        0.00186
  36       13F+2        0.00042
  37       13F-2       -0.00901
  38       13F+3        0.00000
  39       13F-3        0.00000
  40       14F 0       -0.00015
  41       14F+1        0.40311
  42       14F-1       -0.01956
  43       14F+2       -0.00376
  44       14F-2        0.08104
  45       14F+3       -0.00005
  46       14F-3        0.00001
  47 2   H  1S         -0.00130
  48        2S          0.10784
  49        3S          1.25540
  50        4S          0.53945
  51        5PX        -0.05134
  52        5PY        -0.00564
  53        5PZ        -0.00048
  54        6PX         0.51088
  55        6PY         0.06404
  56        6PZ         0.00781
  57        7PX         3.46726
  58        7PY         0.36038
  59        7PZ         0.03894
  60        8D 0       -0.00090
  61        8D+1       -0.00574
  62        8D-1       -0.00075
  63        8D+2       -0.00198
  64        8D-2       -0.02905
  65        9D 0       -0.01293
  66        9D+1        0.09238
  67        9D-1        0.01302
  68        9D+2       -0.01329
  69        9D-2        0.56617
  70 3   H  1S          0.02387
  71        2S         -1.98661
  72        3S        -23.12673
  73        4S         -9.93721
  74        5PX         0.07837
  75        5PY        -0.07242
  76        5PZ         0.00916
  77        6PX        -0.90565
  78        6PY         0.79324
  79        6PZ        -0.14621
  80        7PX        -4.96143
  81        7PY         4.69931
  82        7PZ        -0.73257
  83        8D 0        0.01669
  84        8D+1        0.01073
  85        8D-1       -0.00924
  86        8D+2       -0.02966
  87        8D-2        0.02479
  88        9D 0        0.23744
  89        9D+1       -0.18865
  90        9D-1        0.15806
  91        9D+2        0.10078
  92        9D-2        0.34407
  93 4   H  1S         -0.02257
  94        2S          1.87879
  95        3S         21.87128
  96        4S          9.39774
  97        5PX         0.07135
  98        5PY         0.07330
  99        5PZ        -0.00869
 100        6PX        -0.82890
 101        6PY        -0.79801
 102        6PZ         0.13860
 103        7PX        -4.50480
 104        7PY        -4.76905
 105        7PZ         0.69458
 106        8D 0       -0.01579
 107        8D+1        0.00982
 108        8D-1        0.00927
 109        8D+2        0.03080
 110        8D-2        0.02186
 111        9D 0       -0.22443
 112        9D+1       -0.17353
 113        9D-1       -0.15828
 114        9D+2       -0.14843
 115        9D-2        0.35614
 116 5   Cl 1S          0.00000
 117        2S          0.00000
 118        3S          0.00000
 119        4S          0.00000
 120        5S          0.00001
 121        6S          0.00001
 122        7PX         0.00293
 123        7PY        -0.00014
 124        7PZ         0.00000
 125        8PX         0.05869
 126        8PY        -0.00284
 127        8PZ        -0.00001
 128        9PX        -0.00980
 129        9PY         0.00047
 130        9PZ         0.00000
 131       10PX        -0.42037
 132       10PY         0.02037
 133       10PZ         0.00006
 134       11PX         0.24467
 135       11PY        -0.01186
 136       11PZ        -0.00004
 137       12D 0        0.00000
 138       12D+1        0.00371
 139       12D-1       -0.00018
 140       12D+2        0.00059
 141       12D-2       -0.01221
 142       13D 0        0.00001
 143       13D+1       -0.02572
 144       13D-1        0.00124
 145       13D+2       -0.00212
 146       13D-2        0.04398
 147       14D 0       -0.00009
 148       14D+1        0.32423
 149       14D-1       -0.01567
 150       14D+2        0.00975
 151       14D-2       -0.20135
 152       15F 0       -0.00001
 153       15F+1        0.01846
 154       15F-1       -0.00089
 155       15F+2        0.00050
 156       15F-2       -0.01032
 157       15F+3        0.00001
 158       15F-3        0.00000
 159       16F 0        0.00002
 160       16F+1       -0.06274
 161       16F-1        0.00303
 162       16F+2       -0.00206
 163       16F-2        0.04233
 164       16F+3       -0.00002
 165       16F-3        0.00001
 166 6   F  1S          0.00000
 167        2S          0.00000
 168        3S          0.00000
 169        4S          0.00000
 170        5S          0.00001
 171        6PX        -0.00171
 172        6PY         0.00008
 173        6PZ         0.00000
 174        7PX         0.00614
 175        7PY        -0.00030
 176        7PZ         0.00000
 177        8PX        -0.00033
 178        8PY         0.00002
 179        8PZ         0.00000
 180        9PX         0.22871
 181        9PY        -0.01108
 182        9PZ        -0.00003
 183       10D 0        0.00000
 184       10D+1       -0.00227
 185       10D-1        0.00011
 186       10D+2        0.00014
 187       10D-2       -0.00282
 188       11D 0        0.00000
 189       11D+1        0.00398
 190       11D-1       -0.00020
 191       11D+2       -0.00048
 192       11D-2        0.01006
 193       12D 0       -0.00001
 194       12D+1        0.03205
 195       12D-1       -0.00155
 196       12D+2        0.00091
 197       12D-2       -0.01883
 198       13F 0        0.00000
 199       13F+1       -0.00816
 200       13F-1        0.00040
 201       13F+2        0.00013
 202       13F-2       -0.00267
 203       13F+3        0.00000
 204       13F-3        0.00000
 205       14F 0       -0.00001
 206       14F+1        0.01797
 207       14F-1       -0.00087
 208       14F+2       -0.00031
 209       14F-2        0.00653
 210       14F+3        0.00000
 211       14F-3        0.00000
          Condensed to atoms (all electrons):
              1          2          3          4          5          6
     1  C    7.023023  -0.011096  -0.011101  -0.011102  -0.053870  -0.102466
     2  H   -0.011096   0.548128   0.020533   0.020533  -0.018695   0.004458
     3  H   -0.011101   0.020533   0.548131   0.020534  -0.018693   0.004463
     4  H   -0.011102   0.020533   0.020534   0.548130  -0.018694   0.004462
     5  Cl  -0.053870  -0.018695  -0.018693  -0.018694  17.714096   0.026891
     6  F   -0.102466   0.004458   0.004463   0.004462   0.026891   9.906179
 Mulliken atomic charges:
              1
     1  C   -0.833387
     2  H    0.436139
     3  H    0.436134
     4  H    0.436136
     5  Cl  -0.631035
     6  F   -0.843986
 Sum of Mulliken atomic charges =  -1.00000
 Mulliken charges with hydrogens summed into heavy atoms:
              1
     1  C    0.475022
     5  Cl  -0.631035
     6  F   -0.843986
 Sum of Mulliken charges with hydrogens summed into heavy atoms =  -1.00000
 Electronic spatial extent (au):  <R**2>=            488.4800
 Charge=             -1.0000 electrons
 Dipole moment (field-independent basis, Debye):
    X=             -0.0006    Y=              0.0007    Z=              3.9696  Tot=              3.9696
 Quadrupole moment (field-independent basis, Debye-Ang):
   XX=            -28.1845   YY=            -28.1845   ZZ=            -62.5864
   XY=              0.0000   XZ=             -0.0050   YZ=             -0.0144
 Traceless Quadrupole moment (field-independent basis, Debye-Ang):
   XX=             11.4673   YY=             11.4673   ZZ=            -22.9346
   XY=              0.0000   XZ=             -0.0050   YZ=             -0.0144
 Octapole moment (field-independent basis, Debye-Ang**2):
  XXX=             -0.0244  YYY=             -0.9728  ZZZ=             48.2369  XYY=             -0.0086
  XXY=              0.9386  XXZ=             -4.3573  XZZ=             -0.0067  YZZ=              0.0107
  YYZ=             -4.3565  XYZ=             -0.0002
 Hexadecapole moment (field-independent basis, Debye-Ang**3):
 XXXX=            -41.2875 YYYY=            -41.2874 ZZZZ=           -756.3875 XXXY=              0.0004
 XXXZ=             -0.0507 YYYX=             -0.0002 YYYZ=              0.5139 ZZZX=             -0.0656
 ZZZY=             -0.1880 XXYY=            -13.7626 XXZZ=           -103.0037 YYZZ=           -103.0048
 XXYZ=             -0.6766 YYXZ=             -0.0166 ZZXY=              0.0002
 N-N= 8.512024910608D+01 E-N=-1.604466603611D+03  KE= 5.991997086749D+02
 1\1\GINC-TRAPISTA\SP\RQCISD-FC\Aug-CC-pVTZ\C1H3Cl1F1(1-)\BRUNS\10-Aug-
 2021\0\\# QCISD aug-cc-pvtz nosymm density=current output=wfn\\title l
 ine\\-1,1\C,0,0.000175,0.000029,-0.497709\H,0,0.000019,-1.05257,-0.620
 726\H,0,-0.911312,0.526365,-0.621245\H,0,0.91175,0.526132,-0.62157\Cl,
 0,0.000555,0.000962,1.644718\F,0,-0.000186,-0.000921,-2.58346\\Version
 =EM64L-G09RevB.01\HF=-598.6171179\MP2=-599.2913703\MP3=-599.310059\MP4
 D=-599.3249425\MP4DQ=-599.3104926\MP4SDQ=-599.3198612\QCISD=-599.31923
 67\RMSD=9.387e-09\Dipole=0.0002675,0.0007137,1.5541719\Quadrupole=8.52
 56719,8.5256711,-17.051343,-0.0000022,-0.0036938,-0.0107204\PG=C01 [X(
 C1H3Cl1F1)]\\@

 Writing a WFN file to GAUSSIAN+ZF_6.wfn.


 HONESTY IN A LAWYER IS LIKE A HEN'S HIND LEGS.
  -- MAGNUS OLESON, LAKE WOBEGON PATRIARCH, C.1875
 Job cpu time:  0 days  7 hours  1 minutes 41.0 seconds.
 File lengths (MBytes):  RWF=  29002 Int=      0 D2E=      0 Chk=      4 Scr=      1
 Normal termination of Gaussian 09 at Tue Aug 10 20:52:46 2021.
