 title line
GAUSSIAN            211 MOL ORBITALS    339 PRIMITIVES        6 NUCLEI
  C    1    (CENTRE  1)   0.00033070  0.00005480 -0.94053370  CHARGE =  6.0
  H    2    (CENTRE  2)  -0.01886136 -1.98906904 -1.17300214  CHARGE =  1.0
  H    3    (CENTRE  3)  -1.72213010  0.99468570 -1.17398291  CHARGE =  1.0
  H    4    (CENTRE  4)   1.72295780  0.99424539 -1.17459707  CHARGE =  1.0
  Cl   5    (CENTRE  5)   0.00104880  0.00181792  3.10806659  CHARGE = 17.0
  F    6    (CENTRE  6)  -0.00035149 -0.00174044 -4.90092914  CHARGE =  9.0
CENTRE ASSIGNMENTS    1  1  1  1  1  1  1  1  1  1  1  1  1  1  1  1  1  1  1  1
CENTRE ASSIGNMENTS    1  1  1  1  1  1  1  1  1  1  1  1  1  1  1  1  1  1  1  1
CENTRE ASSIGNMENTS    1  1  1  1  1  1  1  1  1  1  1  1  1  1  1  1  1  1  1  1
CENTRE ASSIGNMENTS    1  1  1  1  1  1  1  1  1  1  1  1  2  2  2  2  2  2  2  2
CENTRE ASSIGNMENTS    2  2  2  2  2  2  2  2  2  2  2  2  2  2  2  2  2  2  2  3
CENTRE ASSIGNMENTS    3  3  3  3  3  3  3  3  3  3  3  3  3  3  3  3  3  3  3  3
CENTRE ASSIGNMENTS    3  3  3  3  3  3  4  4  4  4  4  4  4  4  4  4  4  4  4  4
CENTRE ASSIGNMENTS    4  4  4  4  4  4  4  4  4  4  4  4  4  5  5  5  5  5  5  5
CENTRE ASSIGNMENTS    5  5  5  5  5  5  5  5  5  5  5  5  5  5  5  5  5  5  5  5
CENTRE ASSIGNMENTS    5  5  5  5  5  5  5  5  5  5  5  5  5  5  5  5  5  5  5  5
CENTRE ASSIGNMENTS    5  5  5  5  5  5  5  5  5  5  5  5  5  5  5  5  5  5  5  5
CENTRE ASSIGNMENTS    5  5  5  5  5  5  5  5  5  5  5  5  5  5  5  5  5  5  5  5
CENTRE ASSIGNMENTS    5  5  5  5  5  5  5  5  5  5  5  5  5  5  5  5  5  5  5  5
CENTRE ASSIGNMENTS    5  5  5  5  5  5  5  6  6  6  6  6  6  6  6  6  6  6  6  6
CENTRE ASSIGNMENTS    6  6  6  6  6  6  6  6  6  6  6  6  6  6  6  6  6  6  6  6
CENTRE ASSIGNMENTS    6  6  6  6  6  6  6  6  6  6  6  6  6  6  6  6  6  6  6  6
CENTRE ASSIGNMENTS    6  6  6  6  6  6  6  6  6  6  6  6  6  6  6  6  6  6  6
TYPE ASSIGNMENTS      1  1  1  1  1  1  1  1  1  1  1  1  1  1  1  1  2  2  2  3
TYPE ASSIGNMENTS      3  3  4  4  4  2  3  4  2  3  4  2  3  4  5  6  7  8  9 10
TYPE ASSIGNMENTS      5  6  7  8  9 10  5  6  7  8  9 10 11 12 13 17 14 15 18 19
TYPE ASSIGNMENTS     16 20 11 12 13 17 14 15 18 19 16 20  1  1  1  1  1  1  2  3
TYPE ASSIGNMENTS      4  2  3  4  2  3  4  5  6  7  8  9 10  5  6  7  8  9 10  1
TYPE ASSIGNMENTS      1  1  1  1  1  2  3  4  2  3  4  2  3  4  5  6  7  8  9 10
TYPE ASSIGNMENTS      5  6  7  8  9 10  1  1  1  1  1  1  2  3  4  2  3  4  2  3
TYPE ASSIGNMENTS      4  5  6  7  8  9 10  5  6  7  8  9 10  1  1  1  1  1  1  1
TYPE ASSIGNMENTS      1  1  1  1  1  1  1  1  1  1  1  1  1  1  1  1  1  1  1  1
TYPE ASSIGNMENTS      1  1  1  1  2  2  2  2  2  2  3  3  3  3  3  3  4  4  4  4
TYPE ASSIGNMENTS      4  4  2  2  2  2  2  2  3  3  3  3  3  3  4  4  4  4  4  4
TYPE ASSIGNMENTS      2  3  4  2  3  4  2  3  4  5  6  7  8  9 10  5  6  7  8  9
TYPE ASSIGNMENTS     10  5  6  7  8  9 10 11 12 13 17 14 15 18 19 16 20 11 12 13
TYPE ASSIGNMENTS     17 14 15 18 19 16 20  1  1  1  1  1  1  1  1  1  1  1  1  1
TYPE ASSIGNMENTS      1  1  1  2  2  2  3  3  3  4  4  4  2  3  4  2  3  4  2  3
TYPE ASSIGNMENTS      4  5  6  7  8  9 10  5  6  7  8  9 10  5  6  7  8  9 10 11
TYPE ASSIGNMENTS     12 13 17 14 15 18 19 16 20 11 12 13 17 14 15 18 19 16 20
EXPONENTS  0.8236000D+04 0.1235000D+04 0.2808000D+03 0.7927000D+02 0.2559000D+02
EXPONENTS  0.8997000D+01 0.3319000D+01 0.2808000D+03 0.7927000D+02 0.2559000D+02
EXPONENTS  0.8997000D+01 0.3319000D+01 0.3643000D+00 0.9059000D+00 0.1285000D+00
EXPONENTS  0.4402000D-01 0.1871000D+02 0.4133000D+01 0.1200000D+01 0.1871000D+02
EXPONENTS  0.4133000D+01 0.1200000D+01 0.1871000D+02 0.4133000D+01 0.1200000D+01
EXPONENTS  0.3827000D+00 0.3827000D+00 0.3827000D+00 0.1209000D+00 0.1209000D+00
EXPONENTS  0.1209000D+00 0.3569000D-01 0.3569000D-01 0.3569000D-01 0.1097000D+01
EXPONENTS  0.1097000D+01 0.1097000D+01 0.1097000D+01 0.1097000D+01 0.1097000D+01
EXPONENTS  0.3180000D+00 0.3180000D+00 0.3180000D+00 0.3180000D+00 0.3180000D+00
EXPONENTS  0.3180000D+00 0.1000000D+00 0.1000000D+00 0.1000000D+00 0.1000000D+00
EXPONENTS  0.1000000D+00 0.1000000D+00 0.7610000D+00 0.7610000D+00 0.7610000D+00
EXPONENTS  0.7610000D+00 0.7610000D+00 0.7610000D+00 0.7610000D+00 0.7610000D+00
EXPONENTS  0.7610000D+00 0.7610000D+00 0.2680000D+00 0.2680000D+00 0.2680000D+00
EXPONENTS  0.2680000D+00 0.2680000D+00 0.2680000D+00 0.2680000D+00 0.2680000D+00
EXPONENTS  0.2680000D+00 0.2680000D+00 0.3387000D+02 0.5095000D+01 0.1159000D+01
EXPONENTS  0.3258000D+00 0.1027000D+00 0.2526000D-01 0.1407000D+01 0.1407000D+01
EXPONENTS  0.1407000D+01 0.3880000D+00 0.3880000D+00 0.3880000D+00 0.1020000D+00
EXPONENTS  0.1020000D+00 0.1020000D+00 0.1057000D+01 0.1057000D+01 0.1057000D+01
EXPONENTS  0.1057000D+01 0.1057000D+01 0.1057000D+01 0.2470000D+00 0.2470000D+00
EXPONENTS  0.2470000D+00 0.2470000D+00 0.2470000D+00 0.2470000D+00 0.3387000D+02
EXPONENTS  0.5095000D+01 0.1159000D+01 0.3258000D+00 0.1027000D+00 0.2526000D-01
EXPONENTS  0.1407000D+01 0.1407000D+01 0.1407000D+01 0.3880000D+00 0.3880000D+00
EXPONENTS  0.3880000D+00 0.1020000D+00 0.1020000D+00 0.1020000D+00 0.1057000D+01
EXPONENTS  0.1057000D+01 0.1057000D+01 0.1057000D+01 0.1057000D+01 0.1057000D+01
EXPONENTS  0.2470000D+00 0.2470000D+00 0.2470000D+00 0.2470000D+00 0.2470000D+00
EXPONENTS  0.2470000D+00 0.3387000D+02 0.5095000D+01 0.1159000D+01 0.3258000D+00
EXPONENTS  0.1027000D+00 0.2526000D-01 0.1407000D+01 0.1407000D+01 0.1407000D+01
EXPONENTS  0.3880000D+00 0.3880000D+00 0.3880000D+00 0.1020000D+00 0.1020000D+00
EXPONENTS  0.1020000D+00 0.1057000D+01 0.1057000D+01 0.1057000D+01 0.1057000D+01
EXPONENTS  0.1057000D+01 0.1057000D+01 0.2470000D+00 0.2470000D+00 0.2470000D+00
EXPONENTS  0.2470000D+00 0.2470000D+00 0.2470000D+00 0.4561000D+06 0.6833000D+05
EXPONENTS  0.1555000D+05 0.4405000D+04 0.1439000D+04 0.5204000D+03 0.2031000D+03
EXPONENTS  0.8396000D+02 0.3620000D+02 0.1583000D+02 0.6334000D+01 0.4405000D+04
EXPONENTS  0.1439000D+04 0.5204000D+03 0.2031000D+03 0.8396000D+02 0.3620000D+02
EXPONENTS  0.1583000D+02 0.6334000D+01 0.2694000D+01 0.1439000D+04 0.2031000D+03
EXPONENTS  0.8396000D+02 0.3620000D+02 0.1583000D+02 0.6334000D+01 0.2694000D+01
EXPONENTS  0.4313000D+00 0.9768000D+00 0.1625000D+00 0.5910000D-01 0.6633000D+03
EXPONENTS  0.1568000D+03 0.4998000D+02 0.1842000D+02 0.7240000D+01 0.2922000D+01
EXPONENTS  0.6633000D+03 0.1568000D+03 0.4998000D+02 0.1842000D+02 0.7240000D+01
EXPONENTS  0.2922000D+01 0.6633000D+03 0.1568000D+03 0.4998000D+02 0.1842000D+02
EXPONENTS  0.7240000D+01 0.2922000D+01 0.1568000D+03 0.4998000D+02 0.1842000D+02
EXPONENTS  0.7240000D+01 0.2922000D+01 0.3818000D+00 0.1568000D+03 0.4998000D+02
EXPONENTS  0.1842000D+02 0.7240000D+01 0.2922000D+01 0.3818000D+00 0.1568000D+03
EXPONENTS  0.4998000D+02 0.1842000D+02 0.7240000D+01 0.2922000D+01 0.3818000D+00
EXPONENTS  0.1022000D+01 0.1022000D+01 0.1022000D+01 0.1301000D+00 0.1301000D+00
EXPONENTS  0.1301000D+00 0.4190000D-01 0.4190000D-01 0.4190000D-01 0.1046000D+01
EXPONENTS  0.1046000D+01 0.1046000D+01 0.1046000D+01 0.1046000D+01 0.1046000D+01
EXPONENTS  0.3440000D+00 0.3440000D+00 0.3440000D+00 0.3440000D+00 0.3440000D+00
EXPONENTS  0.3440000D+00 0.1350000D+00 0.1350000D+00 0.1350000D+00 0.1350000D+00
EXPONENTS  0.1350000D+00 0.1350000D+00 0.7060000D+00 0.7060000D+00 0.7060000D+00
EXPONENTS  0.7060000D+00 0.7060000D+00 0.7060000D+00 0.7060000D+00 0.7060000D+00
EXPONENTS  0.7060000D+00 0.7060000D+00 0.3120000D+00 0.3120000D+00 0.3120000D+00
EXPONENTS  0.3120000D+00 0.3120000D+00 0.3120000D+00 0.3120000D+00 0.3120000D+00
EXPONENTS  0.3120000D+00 0.3120000D+00 0.1950000D+05 0.2923000D+04 0.6645000D+03
EXPONENTS  0.1875000D+03 0.6062000D+02 0.2142000D+02 0.7950000D+01 0.6645000D+03
EXPONENTS  0.1875000D+03 0.6062000D+02 0.2142000D+02 0.7950000D+01 0.8815000D+00
EXPONENTS  0.2257000D+01 0.3041000D+00 0.9158000D-01 0.4388000D+02 0.9926000D+01
EXPONENTS  0.2930000D+01 0.4388000D+02 0.9926000D+01 0.2930000D+01 0.4388000D+02
EXPONENTS  0.9926000D+01 0.2930000D+01 0.9132000D+00 0.9132000D+00 0.9132000D+00
EXPONENTS  0.2672000D+00 0.2672000D+00 0.2672000D+00 0.7361000D-01 0.7361000D-01
EXPONENTS  0.7361000D-01 0.3107000D+01 0.3107000D+01 0.3107000D+01 0.3107000D+01
EXPONENTS  0.3107000D+01 0.3107000D+01 0.8550000D+00 0.8550000D+00 0.8550000D+00
EXPONENTS  0.8550000D+00 0.8550000D+00 0.8550000D+00 0.2920000D+00 0.2920000D+00
EXPONENTS  0.2920000D+00 0.2920000D+00 0.2920000D+00 0.2920000D+00 0.1917000D+01
EXPONENTS  0.1917000D+01 0.1917000D+01 0.1917000D+01 0.1917000D+01 0.1917000D+01
EXPONENTS  0.1917000D+01 0.1917000D+01 0.1917000D+01 0.1917000D+01 0.7240000D+00
EXPONENTS  0.7240000D+00 0.7240000D+00 0.7240000D+00 0.7240000D+00 0.7240000D+00
EXPONENTS  0.7240000D+00 0.7240000D+00 0.7240000D+00 0.7240000D+00
MO    1     MO 0.0        OCC NO =    2.0000300  ORB. ENERGY =    0.000000
  0.11997768D-04  0.22366257D-04  0.37802022D-04  0.56823489D-04  0.69797479D-04
  0.58906610D-04  0.22150424D-04 -0.76085173D-08 -0.56868953D-07 -0.21253226D-06
 -0.59293192D-06 -0.79436530D-06  0.93799730D-06  0.32295102D-05 -0.20042705D-04
 -0.59683127D-06  0.77406048D-04  0.72573090D-04  0.51676364D-04 -0.78674632D-04
 -0.73762469D-04 -0.52523272D-04 -0.35699012D-06 -0.33470093D-06 -0.23832700D-06
  0.25157632D-03 -0.25573558D-03  0.17901576D-06  0.32327342D-03 -0.32866362D-03
  0.99585524D-06  0.66680534D-05 -0.67782235D-05  0.11971452D-07 -0.44844957D-04
  0.46157906D-04 -0.13129485D-05  0.91051219D-04 -0.35728161D-03  0.36315160D-03
 -0.13773628D-03  0.13490442D-03  0.28318562D-05  0.27362777D-03  0.68901448D-04
 -0.70277061D-04 -0.28490887D-04  0.29200883D-04 -0.70999550D-06  0.57823423D-04
 -0.46138806D-04  0.46851257D-04  0.65763184D-04 -0.65801219D-04 -0.14653478D-06
  0.61502465D-04 -0.65663951D-04 -0.18590313D-04 -0.25879202D-03  0.26306761D-03
  0.19029918D-04  0.37221292D-04 -0.18089974D-04  0.20189515D-04  0.51265229D-08
 -0.20359904D-04  0.15354357D-04 -0.35607962D-04  0.74629826D-04 -0.75922903D-04
  0.35592582D-04  0.71586403D-04  0.28498466D-04  0.51398157D-04  0.75786553D-04
 -0.24858554D-03 -0.79390844D-03  0.84474416D-05  0.30505664D-05 -0.49751715D-04
 -0.16581979D-04  0.57708903D-04 -0.20224521D-03 -0.19229826D-03  0.51177881D-04
 -0.12141752D-03 -0.16143389D-04  0.77885621D-04 -0.29945546D-04 -0.47940075D-04
  0.19844440D-04 -0.35482822D-04 -0.21097646D-03  0.30215333D-04  0.81353166D-05
 -0.38350650D-04  0.19876563D-04  0.42569551D-04 -0.22570925D-04 -0.38501499D-04
 -0.69439040D-04 -0.10238782D-03  0.36099353D-03  0.10820896D-02 -0.11401740D-04
  0.58941844D-04 -0.35556546D-04  0.23248915D-04  0.22837209D-03 -0.15916763D-03
  0.26271988D-03  0.13409193D-03 -0.10012171D-03  0.21495337D-04 -0.42708996D-06
 -0.65525437D-04  0.65952527D-04 -0.13104075D-03  0.25555078D-03 -0.13284106D-03
 -0.22810986D-04 -0.31349044D-04  0.54160031D-04 -0.30164433D-04  0.17985207D-04
 -0.28841267D-04  0.10242025D-04  0.18471915D-04  0.27236827D-04 -0.82454335D-04
 -0.28260259D-03  0.30362490D-05  0.17531993D-04  0.43974670D-05 -0.57596978D-05
  0.99730488D-04 -0.30621976D-04 -0.68349852D-04  0.72902460D-04 -0.40969395D-04
 -0.59135580D-05 -0.12406955D-04  0.29423106D-04 -0.17016151D-04 -0.20024374D-04
  0.42415402D-04  0.77080541D-04 -0.72055340D-05  0.20328383D-04 -0.13122849D-04
  0.72928237D-05  0.36233659D-04 -0.46987160D-04 -0.19285604D-04 -0.36081308D-04
 -0.62340497D-04 -0.10106127D-03 -0.15347124D-03 -0.21331058D-03 -0.25360994D-03
 -0.22592454D-03 -0.11219891D-03 -0.18063075D-04 -0.19057611D-06 -0.89590298D-07
 -0.29885824D-05 -0.10414611D-04 -0.37504701D-04 -0.82674447D-04 -0.11637894D-03
  0.55516546D-05  0.15230205D-03  0.90055249D-04 -0.35080000D-08 -0.42490446D-07
 -0.88609346D-07 -0.25411618D-06 -0.13195899D-07  0.10958722D-05  0.28315233D-05
 -0.23069919D-05  0.58442585D-05  0.27545542D-05  0.67362924D-06  0.81420641D+01
  0.10725003D+02  0.11831357D+02  0.98268686D+01  0.52183399D+01  0.13463590D+01
 -0.82774562D+01 -0.10903346D+02 -0.12028098D+02 -0.99902768D+01 -0.53051142D+01
 -0.13687472D+01  0.13423698D-02  0.17682151D-02  0.19506180D-02  0.16201410D-02
  0.86033982D-03  0.22197217D-03 -0.32221804D-03  0.31149967D-02  0.43924706D-02
  0.62823948D-02 -0.31813163D-04 -0.57615486D-02  0.32757584D-03 -0.31667925D-02
 -0.44655080D-02 -0.63868577D-02  0.32342148D-04  0.58573509D-02 -0.89508533D-07
  0.86531090D-06  0.12201787D-05  0.17451783D-05 -0.88373374D-08 -0.16004931D-05
  0.53751342D-01 -0.54645156D-01  0.93137112D-05 -0.45172775D-03  0.45924140D-03
 -0.84983961D-06 -0.40680843D-04  0.41357194D-04 -0.50465662D-07 -0.93094149D-05
  0.90416555D-05  0.26775938D-06  0.17820705D-04 -0.68747096D-03  0.69888731D-03
  0.32467925D-05 -0.31451397D-05 -0.10165283D-06 -0.61959672D-05  0.24933180D-03
 -0.25346962D-03 -0.92936953D-06  0.92233117D-06  0.70383549D-08  0.18208095D-05
 -0.42632276D-04  0.43338528D-04  0.15030318D-05 -0.16830957D-05 -0.30023070D-07
  0.16379148D-05 -0.11519327D-05 -0.24735369D-04 -0.61470101D-05  0.62012198D-05
  0.24825438D-04  0.49702222D-04  0.10303722D-04 -0.10431415D-04  0.10300949D-06
  0.10299702D-04 -0.10610933D-04  0.48818275D-05 -0.41210867D-04  0.41905178D-04
 -0.51908560D-05 -0.10194110D-04 -0.56627079D-06 -0.10555297D-05 -0.17893580D-05
 -0.27093301D-05 -0.33872593D-05 -0.29136504D-05 -0.11174476D-05  0.48103337D-08
  0.63679812D-07  0.23129666D-06  0.68613719D-06  0.79063453D-06 -0.96034340D-06
  0.95759254D-07  0.23042088D-05  0.11795639D-05 -0.20389559D-03 -0.19940543D-03
 -0.13175560D-03  0.20730958D-03  0.20274424D-03  0.13396169D-03  0.81862771D-06
  0.80060002D-06  0.52899028D-06 -0.57795392D-05  0.58881312D-05  0.59966469D-06
 -0.46726863D-04  0.47499359D-04  0.70743849D-06 -0.13760489D-04  0.13989425D-04
  0.10005949D-06 -0.49832265D-04  0.50298875D-04 -0.46660983D-06  0.10036123D-03
 -0.94092782D-04  0.95567031D-04  0.24936699D-04 -0.25301785D-04  0.36508640D-06
 -0.50329611D-04  0.71969653D-04 -0.73119899D-04 -0.12618809D-04  0.12858393D-04
 -0.23958427D-06  0.25508540D-04 -0.51968103D-04  0.52803208D-04 -0.50036638D-04
  0.50241936D-04  0.11512108D-05 -0.49365567D-04  0.51793911D-04  0.13194407D-03
  0.19947548D-03 -0.20251972D-03 -0.13539771D-03 -0.26769154D-03  0.17748774D-04
 -0.17855290D-04 -0.41082649D-06  0.17549027D-04 -0.18317969D-04 -0.41831842D-04
 -0.70795348D-04  0.71883838D-04  0.43064322D-04  0.84989995D-04
MO    2     MO 0.0        OCC NO =    2.0000300  ORB. ENERGY =    0.000000
  0.11955109D-04  0.22286731D-04  0.37667612D-04  0.56621446D-04  0.69549305D-04
  0.58697160D-04  0.22071665D-04 -0.77434756D-08 -0.57877683D-07 -0.21630212D-06
 -0.60344922D-06 -0.80845559D-06  0.95463531D-06  0.32323456D-05 -0.19922759D-04
 -0.57458989D-06  0.79679006D-04  0.74704133D-04  0.53193793D-04  0.78357626D-04
  0.73465255D-04  0.52311638D-04 -0.41836476D-06 -0.39224356D-06 -0.27930078D-06
  0.26192393D-03  0.25761521D-03 -0.38548094D-07  0.33244155D-03  0.32701864D-03
  0.73415646D-06  0.65325137D-05  0.64249825D-05  0.69907780D-08  0.46136442D-04
 -0.45142450D-04 -0.99399266D-06  0.90731511D-04 -0.36367470D-03 -0.35765907D-03
  0.13672514D-03 -0.13949133D-03  0.27661855D-05  0.27540864D-03  0.69209698D-04
  0.68313449D-04  0.29656540D-04 -0.28972206D-04 -0.68433361D-06  0.58379533D-04
 -0.47488683D-04 -0.46659255D-04  0.65383403D-04  0.65317722D-04  0.75928971D-07
  0.69747569D-04  0.65572062D-04  0.16573961D-04 -0.26589778D-03 -0.26152523D-03
 -0.16801748D-04  0.32734277D-04 -0.19866813D-04 -0.17756436D-04 -0.60143315D-07
 -0.17378743D-04 -0.22501511D-04  0.35693389D-04  0.76979183D-04  0.75770819D-04
 -0.35512959D-04  0.71118648D-04 -0.28204141D-04 -0.50867331D-04 -0.75003849D-04
  0.27096913D-03  0.79728649D-03 -0.86929516D-05  0.33429729D-05  0.51763125D-04
  0.17507603D-04  0.60472590D-04  0.20574034D-03  0.19060648D-03  0.55606187D-04
  0.12256099D-03  0.15262338D-04 -0.78156358D-04  0.30387886D-04  0.47768472D-04
  0.23363464D-04 -0.30833315D-04  0.20999459D-03 -0.31315042D-04 -0.88390956D-05
  0.40154137D-04  0.21152444D-04  0.44049685D-04  0.21570039D-04 -0.10521373D-04
 -0.18975730D-04 -0.27979702D-04  0.10773777D-03  0.29980452D-03 -0.32390732D-05
  0.18971803D-04 -0.66032489D-05  0.67610280D-05  0.11031616D-03  0.34514353D-04
  0.71805613D-04  0.77404470D-04  0.40718932D-04  0.55732485D-05  0.15399414D-04
 -0.33544885D-04  0.18145471D-04 -0.18987715D-04  0.45773888D-04 -0.78252341D-04
  0.67408868D-05 -0.22316383D-04  0.15575497D-04  0.66076797D-05  0.36929496D-04
  0.47532841D-04  0.38955804D-04  0.70258396D-04  0.10359596D-03 -0.34888269D-03
 -0.10917102D-02  0.12011188D-04  0.59956878D-04  0.35829851D-04 -0.23432064D-04
  0.23266741D-03  0.15641398D-03 -0.26074459D-03  0.13498104D-03  0.10036968D-03
 -0.21639495D-04 -0.19685980D-05  0.67129975D-04 -0.65161377D-04 -0.13234291D-03
  0.25471948D-03  0.13340258D-03  0.22097877D-04  0.31020679D-04 -0.53118556D-04
 -0.29994482D-04  0.18313562D-04  0.28574568D-04 -0.18746264D-04 -0.35072260D-04
 -0.60597086D-04 -0.98234996D-04 -0.14917927D-03 -0.20734515D-03 -0.24651749D-03
 -0.21960635D-03 -0.10906116D-03 -0.17557923D-04 -0.18524646D-06 -0.87060786D-07
 -0.29042021D-05 -0.10120563D-04 -0.36445785D-04 -0.80340198D-04 -0.11309307D-03
  0.53949080D-05  0.14800192D-03  0.87512609D-04 -0.34570168D-08 -0.41872916D-07
 -0.87321552D-07 -0.25042301D-06 -0.13004118D-07  0.10799455D-05  0.27903717D-05
 -0.22734635D-05  0.56880752D-05  0.27972761D-05  0.67108236D-06  0.82774428D+01
  0.10903328D+02  0.12028078D+02  0.99902606D+01  0.53051056D+01  0.13687450D+01
  0.81420501D+01  0.10724985D+02  0.11831337D+02  0.98268517D+01  0.52183309D+01
  0.13463567D+01 -0.58159821D-02 -0.76610089D-02 -0.84512921D-02 -0.70194598D-02
 -0.37275279D-02 -0.96172169D-03 -0.32762690D-03  0.31672861D-02  0.44662040D-02
  0.63878532D-02 -0.32347189D-04 -0.58582639D-02 -0.32226772D-03  0.31154770D-02
  0.43931478D-02  0.62833635D-02 -0.31818068D-04 -0.57624369D-02  0.19343323D-06
 -0.18699880D-05 -0.26368783D-05 -0.37714335D-05  0.19098008D-07  0.34587602D-05
  0.54648538D-01  0.53754660D-01 -0.37941673D-04 -0.45834510D-03 -0.45085072D-03
 -0.45198090D-06 -0.41282226D-04 -0.40606906D-04 -0.14972534D-07  0.82183891D-05
 -0.90956924D-05  0.87730330D-06  0.16667927D-04 -0.69989725D-03 -0.68843368D-03
 -0.29001653D-05  0.32248820D-05 -0.32471673D-06 -0.58878150D-05  0.25460587D-03
  0.25043297D-03  0.85256192D-06 -0.89546812D-06  0.42906201D-07  0.17051379D-05
 -0.43745719D-04 -0.43027556D-04  0.18341896D-05  0.16232674D-05 -0.26734337D-07
  0.17322128D-05  0.21997736D-05  0.24724337D-04 -0.72347816D-05 -0.70695758D-05
 -0.24644134D-04  0.49185206D-04  0.10450813D-04  0.10329056D-04  0.14083342D-06
  0.10449245D-04  0.10139001D-04 -0.52219626D-05 -0.41801685D-04 -0.41126168D-04
  0.47994623D-05 -0.10076952D-04 -0.60755245D-06 -0.11324788D-05 -0.19198039D-05
 -0.29068427D-05 -0.36341936D-05 -0.31260582D-05 -0.11989106D-05  0.49528806D-08
  0.65566866D-07  0.23815079D-06  0.70646982D-06  0.81406378D-06 -0.98880171D-06
  0.96525666D-07  0.23535037D-05  0.12139459D-05 -0.20775861D-03 -0.20318338D-03
 -0.13425185D-03 -0.20438232D-03 -0.19988144D-03 -0.13207012D-03  0.10331471D-05
  0.10103953D-05  0.66761091D-06 -0.63578299D-05 -0.62655589D-05  0.60261820D-06
 -0.47720641D-04 -0.46934952D-04  0.77838679D-06 -0.13893053D-04 -0.13665814D-04
  0.11663896D-06  0.50378824D-04 -0.49972971D-04 -0.40585344D-06  0.99928464D-04
 -0.92932598D-04 -0.91324724D-04 -0.25330871D-04  0.25019343D-04  0.31152733D-06
 -0.50113418D-04  0.71986835D-04  0.70764485D-04  0.12822377D-04 -0.12630237D-04
 -0.19214074D-06  0.25317446D-04 -0.52814496D-04 -0.51922686D-04 -0.51054308D-04
 -0.50704317D-04  0.97025611D-06 -0.51979401D-04 -0.49413389D-04 -0.13437839D-03
  0.20514232D-03  0.20152634D-03  0.13146763D-03 -0.26444456D-03  0.18156677D-04
  0.18002366D-04 -0.34519053D-06  0.18436358D-04  0.17622229D-04  0.42706022D-04
 -0.72906390D-04 -0.71629327D-04 -0.41670450D-04  0.83914019D-04
MO    3     MO 0.0        OCC NO =    2.0000210  ORB. ENERGY =    0.000000
 -0.14454380D-01 -0.26945877D-01 -0.45542203D-01 -0.68458425D-01 -0.84088913D-01
 -0.70968076D-01 -0.26685850D-01 -0.38141751D-05 -0.28508596D-04 -0.10654313D-03
 -0.29723875D-03 -0.39821798D-03  0.47022118D-03 -0.87196476D-03 -0.19343282D-02
 -0.82063983D-04  0.51695094D-06  0.48467436D-06  0.34511702D-06  0.53461217D-06
  0.50123289D-06  0.35690768D-06  0.11672764D-02  0.10943958D-02  0.77927501D-03
  0.18389423D-05  0.18864726D-06  0.60720500D-03  0.39150023D-05 -0.21447186D-06
 -0.37925176D-03 -0.72528343D-07  0.98536474D-09  0.46679246D-05 -0.10557287D-03
 -0.10556385D-03  0.21113672D-03 -0.44497094D-06  0.66366632D-06  0.27691975D-06
 -0.24095212D-04 -0.24038833D-04  0.48134044D-04 -0.55154783D-06 -0.11492782D-05
  0.76022031D-07  0.11425862D-04  0.11431258D-04 -0.22857120D-04  0.68045779D-06
  0.52200660D-06 -0.28980643D-07 -0.23720904D-06  0.36267044D-04  0.77244304D-05
  0.11974080D-05 -0.10883371D-03 -0.11531038D-04 -0.48578088D-06  0.32572906D-07
 -0.11642253D-04  0.64093945D-06 -0.55508003D-06  0.51873056D-04 -0.85675308D-04
  0.14934680D-05 -0.15539190D-03  0.12858126D-03  0.17177205D-06 -0.22726594D-06
  0.12844466D-03  0.34179705D-07 -0.48385859D-05 -0.87265889D-05 -0.12867350D-04
  0.75258246D-03  0.23578998D-03  0.50607956D-05 -0.32897448D-06  0.95841850D-04
  0.28410016D-04  0.65749004D-05  0.19927554D-03 -0.42635696D-05  0.15389287D-05
  0.44013641D-04  0.38736477D-04 -0.73885724D-04  0.54223884D-04  0.19661840D-04
  0.41059558D-05  0.24271443D-05  0.75975945D-04 -0.96428974D-05 -0.12049388D-04
  0.21692286D-04  0.56708591D-06 -0.34336643D-06 -0.34558210D-04 -0.49342718D-05
 -0.88991624D-05 -0.13121810D-04  0.75474060D-03  0.24292811D-03  0.49651366D-05
  0.82969246D-04 -0.48628883D-04  0.28344901D-04  0.17428187D-03 -0.97972342D-04
 -0.43268079D-05  0.39266546D-04 -0.22024350D-04  0.39429671D-04  0.22614143D-04
 -0.42261918D-04  0.19647775D-04 -0.11073493D-03  0.66182383D-04 -0.37164897D-04
 -0.11349706D-04 -0.10433669D-04  0.21783375D-04  0.21654729D-05 -0.30083368D-04
  0.17394019D-04 -0.47232020D-05 -0.85184894D-05 -0.12560508D-04  0.75072955D-03
  0.22902203D-03  0.51657927D-05 -0.83051321D-04 -0.47202900D-04  0.28643238D-04
 -0.17100612D-03 -0.10140067D-03 -0.39498736D-05 -0.36983853D-04 -0.21982073D-04
  0.38098810D-04  0.21749046D-04 -0.41552701D-04  0.19803655D-04  0.11115527D-03
 -0.65610104D-04 -0.38772716D-04 -0.11519483D-04 -0.10041900D-04  0.21561383D-04
 -0.19097345D-05  0.29835135D-04  0.17251667D-04 -0.15460167D+00 -0.28924323D+00
 -0.49974814D+00 -0.81015046D+00 -0.12302912D+01 -0.17099890D+01 -0.20330459D+01
 -0.18111080D+01 -0.89943451D+00 -0.14480135D+00 -0.15277397D-02 -0.72283774D-03
 -0.24112657D-01 -0.84027782D-01 -0.30259765D+00 -0.66703886D+00 -0.93897542D+00
  0.44792188D-01  0.12288124D+01  0.72658908D+00 -0.15531658D-04 -0.18812631D-03
 -0.39231758D-03 -0.11250985D-02 -0.58424799D-04  0.48519705D-02  0.12536560D-01
 -0.10214199D-01  0.46599765D-01 -0.38425609D-03 -0.13194812D-03  0.18727223D-03
  0.24668134D-03  0.27212813D-03  0.22602372D-03  0.12002487D-03  0.30967043D-04
  0.26097010D-02  0.34375867D-02  0.37921962D-02  0.31497159D-02  0.16725865D-02
  0.43153607D-03  0.59414907D+01  0.78263332D+01  0.86336706D+01  0.71709394D+01
  0.38079678D+01  0.98247560D+00 -0.19429411D-07  0.18783104D-06  0.26486138D-06
  0.37882184D-06 -0.19183005D-08 -0.34741535D-06 -0.92532925D-07  0.89454878D-06
  0.12614072D-05  0.18041459D-05 -0.91359410D-08 -0.16545720D-05 -0.21080121D-03
  0.20378905D-02  0.28736383D-02  0.41100629D-02 -0.20812780D-04 -0.37693154D-02
  0.19984785D-05  0.18286964D-04  0.41654682D-01 -0.30515921D-06 -0.21136821D-06
 -0.48397206D-03  0.42377337D-07 -0.43763113D-08 -0.98427149D-05 -0.71235305D-05
 -0.71273795D-05  0.14250910D-04  0.15574911D-06 -0.69657457D-06  0.19592633D-07
 -0.11142767D-03 -0.11142710D-03  0.22285477D-03 -0.57088945D-07  0.62215759D-06
  0.28871330D-06 -0.14325520D-04 -0.14325011D-04  0.28650531D-04 -0.55050475D-07
  0.67327552D-07  0.36747806D-07  0.57263197D-07 -0.72119426D-05  0.54411165D-05
 -0.22793510D-06  0.21622282D-04 -0.81765919D-05  0.56145510D-07  0.13545348D-07
 -0.81467576D-05 -0.68172828D-06  0.19998319D-07  0.20724577D-05 -0.33741495D-04
  0.10115715D-06 -0.61306032D-05  0.50616895D-04 -0.16115210D-06 -0.86769992D-07
  0.50607589D-04  0.26680185D-06 -0.87949998D-03 -0.16393895D-02 -0.27791304D-02
 -0.42079793D-02 -0.52609009D-02 -0.45253182D-02 -0.17355569D-02 -0.68426922D-06
 -0.90584433D-05 -0.32901914D-04 -0.97602908D-04 -0.11246764D-03  0.13660870D-03
 -0.95968584D-04 -0.15941904D-03  0.12429234D-04  0.28699091D-06  0.28067084D-06
  0.18545109D-06  0.17849624D-05  0.17456542D-05  0.11534275D-05  0.39019221D-02
  0.38159945D-02  0.25213889D-02 -0.50362816D-06  0.40317772D-06  0.87919964D-03
  0.18901839D-06  0.95809587D-08  0.21375076D-04  0.46516599D-07  0.41986381D-08
  0.93390729D-05 -0.35646437D-04 -0.35642638D-04  0.71289075D-04 -0.37633857D-06
  0.11274022D-05  0.97674117D-07  0.21097842D-04  0.21095678D-04 -0.42193520D-04
  0.18234281D-06 -0.51877904D-06 -0.56770847D-07  0.18118265D-04  0.18119457D-04
 -0.36237722D-04 -0.10040085D-06  0.60817134D-07 -0.50675425D-07 -0.26186264D-06
 -0.30031877D-05  0.46411756D-04 -0.37820967D-06  0.88701141D-05 -0.69609744D-04
  0.11637976D-05  0.13944902D-06 -0.69625523D-04  0.16679461D-05  0.10006530D-06
  0.95394083D-06 -0.25391864D-04  0.13675541D-06 -0.27882166D-05  0.38085537D-04
 -0.43695131D-06 -0.73605938D-07  0.38090057D-04 -0.49299250D-06
MO    4     MO 0.0        OCC NO =    2.0000123  ORB. ENERGY =    0.000000
  0.26821970D-01  0.50001556D-01  0.84509441D-01  0.12703345D+00  0.15603784D+00
  0.13169043D+00  0.49519042D-01 -0.14576515D-05 -0.10895042D-04 -0.40717258D-04
 -0.11359481D-03 -0.15218573D-03  0.17970297D-03  0.26459340D-02 -0.36106619D-02
 -0.42273387D-04  0.11538227D-05  0.10817822D-05  0.77029334D-06  0.15601781D-05
  0.14627661D-05  0.10415766D-05  0.36696809D-02  0.34405591D-02  0.24498830D-02
  0.25704221D-06  0.46947452D-06  0.13052661D-02  0.44908006D-05 -0.26969501D-06
 -0.41708136D-03 -0.70653617D-07  0.89122505D-09  0.37028406D-05 -0.31920061D-03
 -0.31921857D-03  0.63841918D-03  0.35351817D-06  0.13977986D-05  0.83470268D-06
  0.95622416D-05  0.96739446D-05 -0.19236186D-04 -0.49093888D-05 -0.15317147D-05
 -0.76134947D-08 -0.17872782D-04 -0.17849254D-04  0.35722036D-04 -0.42988975D-06
  0.62767215D-06  0.46036541D-07  0.45926957D-06 -0.42193088D-04  0.22570895D-04
 -0.12077995D-05  0.12651769D-03 -0.33907015D-04 -0.17000917D-06  0.61569467D-07
 -0.33805671D-04  0.39064701D-06 -0.91968744D-06  0.82066567D-04 -0.16374467D-03
  0.23209539D-05 -0.24576629D-03  0.24573246D-03  0.43810844D-06 -0.43341397D-06
  0.24550155D-03  0.14972124D-05 -0.90316747D-04 -0.16288997D-03 -0.24018117D-03
  0.10227809D-02  0.68404820D-03  0.42650387D-05 -0.27002485D-05 -0.57757063D-04
  0.33525826D-04  0.78645109D-05  0.30459161D-03 -0.43260567D-04  0.12396214D-05
  0.11102013D-03  0.75807342D-04 -0.14236524D-03  0.24253770D-04  0.11811147D-03
  0.22236417D-05  0.39911212D-05  0.14259644D-03 -0.14779049D-04 -0.21042533D-04
  0.35821583D-04  0.20107307D-06 -0.17725670D-06 -0.62800320D-04 -0.90286064D-04
 -0.16283463D-03 -0.24009957D-03  0.10224686D-02  0.68805524D-03  0.41908404D-05
 -0.50328061D-04  0.27840498D-04  0.33134556D-04  0.26446520D-03 -0.14993408D-03
 -0.42805296D-04  0.96896137D-04 -0.55849801D-04  0.76540228D-04 -0.17579219D-04
 -0.10061787D-03  0.11819708D-03 -0.14481623D-03  0.12401115D-03 -0.69880780D-04
 -0.19509741D-04 -0.16452507D-04  0.35962248D-04  0.55562610D-05 -0.54479314D-04
  0.31755724D-04 -0.90346600D-04 -0.16294381D-03 -0.24026056D-03  0.10235042D-02
  0.68069669D-03  0.43483503D-05  0.49707851D-04  0.29941761D-04  0.33917201D-04
 -0.26325466D-03 -0.15484222D-03 -0.43327010D-04 -0.95394685D-04 -0.55148546D-04
  0.75236242D-04 -0.17310312D-04 -0.10092624D-03  0.11823656D-03  0.14367555D-03
 -0.12307568D-03 -0.72324373D-04 -0.19406216D-04 -0.16202181D-04  0.35608397D-04
 -0.51627033D-05  0.54389976D-04  0.31191002D-04  0.91315364D-01  0.17084130D+00
  0.29517588D+00  0.47851478D+00  0.72667060D+00  0.10100038D+01  0.12008171D+01
  0.10697296D+01  0.53125034D+00  0.85526810D-01  0.90235836D-03  0.42753726D-03
  0.14261927D-01  0.49699961D-01  0.17897761D+00  0.39453386D+00  0.55537634D+00
 -0.26493262D-01 -0.72680639D+00 -0.42975607D+00  0.62781106D-05  0.76043251D-04
  0.15858018D-03  0.45478036D-03  0.23616111D-04 -0.19612335D-02 -0.50674506D-02
  0.41287202D-02 -0.28545593D-01  0.14182889D-02 -0.18172075D-03  0.35595420D-02
  0.46887495D-02  0.51724247D-02  0.42961037D-02  0.22813503D-02  0.58860029D-03
  0.42807163D-02  0.56387048D-02  0.62203740D-02  0.51665077D-02  0.27435589D-02
  0.70785255D-03  0.99145996D+01  0.13059847D+02  0.14407056D+02  0.11966188D+02
  0.63543777D+01  0.16394627D+01 -0.14113417D-06  0.13643944D-05  0.19239385D-05
  0.27517410D-05 -0.13934429D-07 -0.25236060D-05 -0.14527804D-06  0.14044546D-05
  0.19804276D-05  0.28325354D-05 -0.14343560D-07 -0.25977021D-05 -0.33686853D-03
  0.32566282D-02  0.45921857D-02  0.65680404D-02 -0.33259632D-04 -0.60235125D-02
  0.26588628D-04  0.31324479D-04  0.72557049D-01 -0.35669995D-06 -0.13294935D-06
 -0.30643071D-03  0.46157530D-07 -0.18808780D-08 -0.39580254D-05  0.45444146D-03
  0.45444082D-03 -0.90888228D-03 -0.75444370D-07 -0.20731030D-05 -0.11705151D-05
 -0.30967224D-03 -0.30967222D-03  0.61934447D-03 -0.49085862D-07  0.13152986D-05
  0.79921358D-06  0.43303452D-05  0.43307233D-05 -0.86610685D-05 -0.32219005D-07
  0.11490602D-07 -0.11044366D-07  0.15705462D-06 -0.14491172D-04 -0.46954148D-04
 -0.41731152D-06  0.43596208D-04  0.70404779D-04 -0.53852350D-07 -0.12269313D-06
  0.70457666D-04 -0.91889096D-06  0.28051204D-07  0.42120071D-05 -0.62584113D-04
  0.19310121D-06 -0.12474720D-04  0.93884543D-04 -0.27725482D-06 -0.16130168D-06
  0.93867796D-04  0.41046816D-06 -0.63569788D-02 -0.11849419D-01 -0.20087406D-01