 title line
GAUSSIAN            211 MOL ORBITALS    339 PRIMITIVES        6 NUCLEI
  C    1    (CENTRE  1)   0.00033070  0.00005480 -0.94053370  CHARGE =  6.0
  H    2    (CENTRE  2)   0.00003590 -1.98906904 -1.17300214  CHARGE =  1.0
  H    3    (CENTRE  3)  -1.72213010  0.99468570 -1.17398291  CHARGE =  1.0
  H    4    (CENTRE  4)   1.72295780  0.99424539 -1.17459707  CHARGE =  1.0
  Cl   5    (CENTRE  5)   0.00104880  0.00181792  3.12696385  CHARGE = 17.0
  F    6    (CENTRE  6)  -0.00035149 -0.00174044 -4.90092914  CHARGE =  9.0
CENTRE ASSIGNMENTS    1  1  1  1  1  1  1  1  1  1  1  1  1  1  1  1  1  1  1  1
CENTRE ASSIGNMENTS    1  1  1  1  1  1  1  1  1  1  1  1  1  1  1  1  1  1  1  1
CENTRE ASSIGNMENTS    1  1  1  1  1  1  1  1  1  1  1  1  1  1  1  1  1  1  1  1
CENTRE ASSIGNMENTS    1  1  1  1  1  1  1  1  1  1  1  1  2  2  2  2  2  2  2  2
CENTRE ASSIGNMENTS    2  2  2  2  2  2  2  2  2  2  2  2  2  2  2  2  2  2  2  3
CENTRE ASSIGNMENTS    3  3  3  3  3  3  3  3  3  3  3  3  3  3  3  3  3  3  3  3
CENTRE ASSIGNMENTS    3  3  3  3  3  3  4  4  4  4  4  4  4  4  4  4  4  4  4  4
CENTRE ASSIGNMENTS    4  4  4  4  4  4  4  4  4  4  4  4  4  5  5  5  5  5  5  5
CENTRE ASSIGNMENTS    5  5  5  5  5  5  5  5  5  5  5  5  5  5  5  5  5  5  5  5
CENTRE ASSIGNMENTS    5  5  5  5  5  5  5  5  5  5  5  5  5  5  5  5  5  5  5  5
CENTRE ASSIGNMENTS    5  5  5  5  5  5  5  5  5  5  5  5  5  5  5  5  5  5  5  5
CENTRE ASSIGNMENTS    5  5  5  5  5  5  5  5  5  5  5  5  5  5  5  5  5  5  5  5
CENTRE ASSIGNMENTS    5  5  5  5  5  5  5  5  5  5  5  5  5  5  5  5  5  5  5  5
CENTRE ASSIGNMENTS    5  5  5  5  5  5  5  6  6  6  6  6  6  6  6  6  6  6  6  6
CENTRE ASSIGNMENTS    6  6  6  6  6  6  6  6  6  6  6  6  6  6  6  6  6  6  6  6
CENTRE ASSIGNMENTS    6  6  6  6  6  6  6  6  6  6  6  6  6  6  6  6  6  6  6  6
CENTRE ASSIGNMENTS    6  6  6  6  6  6  6  6  6  6  6  6  6  6  6  6  6  6  6
TYPE ASSIGNMENTS      1  1  1  1  1  1  1  1  1  1  1  1  1  1  1  1  2  2  2  3
TYPE ASSIGNMENTS      3  3  4  4  4  2  3  4  2  3  4  2  3  4  5  6  7  8  9 10
TYPE ASSIGNMENTS      5  6  7  8  9 10  5  6  7  8  9 10 11 12 13 17 14 15 18 19
TYPE ASSIGNMENTS     16 20 11 12 13 17 14 15 18 19 16 20  1  1  1  1  1  1  2  3
TYPE ASSIGNMENTS      4  2  3  4  2  3  4  5  6  7  8  9 10  5  6  7  8  9 10  1
TYPE ASSIGNMENTS      1  1  1  1  1  2  3  4  2  3  4  2  3  4  5  6  7  8  9 10
TYPE ASSIGNMENTS      5  6  7  8  9 10  1  1  1  1  1  1  2  3  4  2  3  4  2  3
TYPE ASSIGNMENTS      4  5  6  7  8  9 10  5  6  7  8  9 10  1  1  1  1  1  1  1
TYPE ASSIGNMENTS      1  1  1  1  1  1  1  1  1  1  1  1  1  1  1  1  1  1  1  1
TYPE ASSIGNMENTS      1  1  1  1  2  2  2  2  2  2  3  3  3  3  3  3  4  4  4  4
TYPE ASSIGNMENTS      4  4  2  2  2  2  2  2  3  3  3  3  3  3  4  4  4  4  4  4
TYPE ASSIGNMENTS      2  3  4  2  3  4  2  3  4  5  6  7  8  9 10  5  6  7  8  9
TYPE ASSIGNMENTS     10  5  6  7  8  9 10 11 12 13 17 14 15 18 19 16 20 11 12 13
TYPE ASSIGNMENTS     17 14 15 18 19 16 20  1  1  1  1  1  1  1  1  1  1  1  1  1
TYPE ASSIGNMENTS      1  1  1  2  2  2  3  3  3  4  4  4  2  3  4  2  3  4  2  3
TYPE ASSIGNMENTS      4  5  6  7  8  9 10  5  6  7  8  9 10  5  6  7  8  9 10 11
TYPE ASSIGNMENTS     12 13 17 14 15 18 19 16 20 11 12 13 17 14 15 18 19 16 20
EXPONENTS  0.8236000D+04 0.1235000D+04 0.2808000D+03 0.7927000D+02 0.2559000D+02
EXPONENTS  0.8997000D+01 0.3319000D+01 0.2808000D+03 0.7927000D+02 0.2559000D+02
EXPONENTS  0.8997000D+01 0.3319000D+01 0.3643000D+00 0.9059000D+00 0.1285000D+00
EXPONENTS  0.4402000D-01 0.1871000D+02 0.4133000D+01 0.1200000D+01 0.1871000D+02
EXPONENTS  0.4133000D+01 0.1200000D+01 0.1871000D+02 0.4133000D+01 0.1200000D+01
EXPONENTS  0.3827000D+00 0.3827000D+00 0.3827000D+00 0.1209000D+00 0.1209000D+00
EXPONENTS  0.1209000D+00 0.3569000D-01 0.3569000D-01 0.3569000D-01 0.1097000D+01
EXPONENTS  0.1097000D+01 0.1097000D+01 0.1097000D+01 0.1097000D+01 0.1097000D+01
EXPONENTS  0.3180000D+00 0.3180000D+00 0.3180000D+00 0.3180000D+00 0.3180000D+00
EXPONENTS  0.3180000D+00 0.1000000D+00 0.1000000D+00 0.1000000D+00 0.1000000D+00
EXPONENTS  0.1000000D+00 0.1000000D+00 0.7610000D+00 0.7610000D+00 0.7610000D+00
EXPONENTS  0.7610000D+00 0.7610000D+00 0.7610000D+00 0.7610000D+00 0.7610000D+00
EXPONENTS  0.7610000D+00 0.7610000D+00 0.2680000D+00 0.2680000D+00 0.2680000D+00
EXPONENTS  0.2680000D+00 0.2680000D+00 0.2680000D+00 0.2680000D+00 0.2680000D+00
EXPONENTS  0.2680000D+00 0.2680000D+00 0.3387000D+02 0.5095000D+01 0.1159000D+01
EXPONENTS  0.3258000D+00 0.1027000D+00 0.2526000D-01 0.1407000D+01 0.1407000D+01
EXPONENTS  0.1407000D+01 0.3880000D+00 0.3880000D+00 0.3880000D+00 0.1020000D+00
EXPONENTS  0.1020000D+00 0.1020000D+00 0.1057000D+01 0.1057000D+01 0.1057000D+01
EXPONENTS  0.1057000D+01 0.1057000D+01 0.1057000D+01 0.2470000D+00 0.2470000D+00
EXPONENTS  0.2470000D+00 0.2470000D+00 0.2470000D+00 0.2470000D+00 0.3387000D+02
EXPONENTS  0.5095000D+01 0.1159000D+01 0.3258000D+00 0.1027000D+00 0.2526000D-01
EXPONENTS  0.1407000D+01 0.1407000D+01 0.1407000D+01 0.3880000D+00 0.3880000D+00
EXPONENTS  0.3880000D+00 0.1020000D+00 0.1020000D+00 0.1020000D+00 0.1057000D+01
EXPONENTS  0.1057000D+01 0.1057000D+01 0.1057000D+01 0.1057000D+01 0.1057000D+01
EXPONENTS  0.2470000D+00 0.2470000D+00 0.2470000D+00 0.2470000D+00 0.2470000D+00
EXPONENTS  0.2470000D+00 0.3387000D+02 0.5095000D+01 0.1159000D+01 0.3258000D+00
EXPONENTS  0.1027000D+00 0.2526000D-01 0.1407000D+01 0.1407000D+01 0.1407000D+01
EXPONENTS  0.3880000D+00 0.3880000D+00 0.3880000D+00 0.1020000D+00 0.1020000D+00
EXPONENTS  0.1020000D+00 0.1057000D+01 0.1057000D+01 0.1057000D+01 0.1057000D+01
EXPONENTS  0.1057000D+01 0.1057000D+01 0.2470000D+00 0.2470000D+00 0.2470000D+00
EXPONENTS  0.2470000D+00 0.2470000D+00 0.2470000D+00 0.4561000D+06 0.6833000D+05
EXPONENTS  0.1555000D+05 0.4405000D+04 0.1439000D+04 0.5204000D+03 0.2031000D+03
EXPONENTS  0.8396000D+02 0.3620000D+02 0.1583000D+02 0.6334000D+01 0.4405000D+04
EXPONENTS  0.1439000D+04 0.5204000D+03 0.2031000D+03 0.8396000D+02 0.3620000D+02
EXPONENTS  0.1583000D+02 0.6334000D+01 0.2694000D+01 0.1439000D+04 0.2031000D+03
EXPONENTS  0.8396000D+02 0.3620000D+02 0.1583000D+02 0.6334000D+01 0.2694000D+01
EXPONENTS  0.4313000D+00 0.9768000D+00 0.1625000D+00 0.5910000D-01 0.6633000D+03
EXPONENTS  0.1568000D+03 0.4998000D+02 0.1842000D+02 0.7240000D+01 0.2922000D+01
EXPONENTS  0.6633000D+03 0.1568000D+03 0.4998000D+02 0.1842000D+02 0.7240000D+01
EXPONENTS  0.2922000D+01 0.6633000D+03 0.1568000D+03 0.4998000D+02 0.1842000D+02
EXPONENTS  0.7240000D+01 0.2922000D+01 0.1568000D+03 0.4998000D+02 0.1842000D+02
EXPONENTS  0.7240000D+01 0.2922000D+01 0.3818000D+00 0.1568000D+03 0.4998000D+02
EXPONENTS  0.1842000D+02 0.7240000D+01 0.2922000D+01 0.3818000D+00 0.1568000D+03
EXPONENTS  0.4998000D+02 0.1842000D+02 0.7240000D+01 0.2922000D+01 0.3818000D+00
EXPONENTS  0.1022000D+01 0.1022000D+01 0.1022000D+01 0.1301000D+00 0.1301000D+00
EXPONENTS  0.1301000D+00 0.4190000D-01 0.4190000D-01 0.4190000D-01 0.1046000D+01
EXPONENTS  0.1046000D+01 0.1046000D+01 0.1046000D+01 0.1046000D+01 0.1046000D+01
EXPONENTS  0.3440000D+00 0.3440000D+00 0.3440000D+00 0.3440000D+00 0.3440000D+00
EXPONENTS  0.3440000D+00 0.1350000D+00 0.1350000D+00 0.1350000D+00 0.1350000D+00
EXPONENTS  0.1350000D+00 0.1350000D+00 0.7060000D+00 0.7060000D+00 0.7060000D+00
EXPONENTS  0.7060000D+00 0.7060000D+00 0.7060000D+00 0.7060000D+00 0.7060000D+00
EXPONENTS  0.7060000D+00 0.7060000D+00 0.3120000D+00 0.3120000D+00 0.3120000D+00
EXPONENTS  0.3120000D+00 0.3120000D+00 0.3120000D+00 0.3120000D+00 0.3120000D+00
EXPONENTS  0.3120000D+00 0.3120000D+00 0.1950000D+05 0.2923000D+04 0.6645000D+03
EXPONENTS  0.1875000D+03 0.6062000D+02 0.2142000D+02 0.7950000D+01 0.6645000D+03
EXPONENTS  0.1875000D+03 0.6062000D+02 0.2142000D+02 0.7950000D+01 0.8815000D+00
EXPONENTS  0.2257000D+01 0.3041000D+00 0.9158000D-01 0.4388000D+02 0.9926000D+01
EXPONENTS  0.2930000D+01 0.4388000D+02 0.9926000D+01 0.2930000D+01 0.4388000D+02
EXPONENTS  0.9926000D+01 0.2930000D+01 0.9132000D+00 0.9132000D+00 0.9132000D+00
EXPONENTS  0.2672000D+00 0.2672000D+00 0.2672000D+00 0.7361000D-01 0.7361000D-01
EXPONENTS  0.7361000D-01 0.3107000D+01 0.3107000D+01 0.3107000D+01 0.3107000D+01
EXPONENTS  0.3107000D+01 0.3107000D+01 0.8550000D+00 0.8550000D+00 0.8550000D+00
EXPONENTS  0.8550000D+00 0.8550000D+00 0.8550000D+00 0.2920000D+00 0.2920000D+00
EXPONENTS  0.2920000D+00 0.2920000D+00 0.2920000D+00 0.2920000D+00 0.1917000D+01
EXPONENTS  0.1917000D+01 0.1917000D+01 0.1917000D+01 0.1917000D+01 0.1917000D+01
EXPONENTS  0.1917000D+01 0.1917000D+01 0.1917000D+01 0.1917000D+01 0.7240000D+00
EXPONENTS  0.7240000D+00 0.7240000D+00 0.7240000D+00 0.7240000D+00 0.7240000D+00
EXPONENTS  0.7240000D+00 0.7240000D+00 0.7240000D+00 0.7240000D+00
MO    1     MO 0.0        OCC NO =    2.0000299  ORB. ENERGY =    0.000000
  0.59500881D-08  0.11092163D-07  0.18747266D-07  0.28180638D-07  0.34614866D-07
  0.29213726D-07  0.10985124D-07  0.15728987D-10  0.11756443D-09  0.43936513D-09
  0.12257603D-08  0.16421809D-08 -0.19391094D-08 -0.12654507D-08  0.82543653D-08
  0.82690931D-08  0.43457374D-04  0.40744051D-04  0.29012191D-04 -0.10212130D-03
 -0.95745213D-04 -0.68176295D-04  0.27058527D-07  0.25369089D-07  0.18064303D-07
  0.14495436D-03 -0.34062985D-03  0.12890326D-06  0.17921101D-03 -0.42112955D-03
  0.14066946D-06  0.35505823D-05 -0.83431188D-05  0.28900730D-08 -0.60298721D-04
  0.60467328D-04 -0.16860704D-06  0.51344979D-04 -0.19535688D-03  0.45901742D-03
 -0.17879302D-03  0.17876452D-03  0.28504164D-07  0.15233750D-03  0.36056854D-04
 -0.84925473D-04 -0.37467828D-04  0.37487847D-04 -0.20018474D-07  0.31916752D-04
 -0.25825655D-04  0.60646652D-04  0.36233869D-04 -0.85145555D-04 -0.11928166D-06
  0.36250013D-04 -0.85158469D-04 -0.21606993D-04 -0.14495162D-03  0.34059513D-03
  0.21964838D-04  0.18366662D-04 -0.10206739D-04  0.23983778D-04  0.32474629D-07
 -0.10173162D-04  0.23953204D-04 -0.45679535D-04  0.40793379D-04 -0.95904539D-04
  0.45582111D-04  0.38931197D-04  0.36183434D-04  0.65258314D-04  0.96223345D-04
 -0.34306908D-03 -0.10256031D-02  0.11581328D-04  0.15283169D-05 -0.65970783D-04
 -0.18895728D-04  0.32558563D-04 -0.26867606D-03 -0.24649839D-03  0.29412683D-04
 -0.15747397D-03 -0.20110015D-04  0.10040895D-03 -0.42306079D-04 -0.58102870D-04
  0.11619008D-04 -0.17763968D-04 -0.27090616D-03  0.40050570D-04  0.10693686D-04
 -0.50744256D-04  0.11280805D-04  0.23844428D-04 -0.28985563D-04 -0.31430423D-04
 -0.56686063D-04 -0.83583567D-04  0.29799808D-03  0.89090402D-03 -0.10060445D-04
  0.48439703D-04 -0.30693958D-04  0.16446575D-04  0.17701304D-03 -0.15994360D-03
  0.21424975D-03  0.95861505D-04 -0.10751190D-03  0.17551030D-04 -0.20793296D-05
 -0.48498997D-04  0.50578327D-04 -0.11619264D-03  0.21740010D-03 -0.94095008D-04
 -0.23171407D-04 -0.20932592D-04  0.44103999D-04 -0.30732236D-04  0.34664932D-05
 -0.44239255D-04 -0.47515312D-05 -0.85695822D-05 -0.12635844D-04  0.45045506D-04
  0.13470260D-03 -0.15219209D-05 -0.55500923D-05 -0.77077829D-05  0.24897745D-05
  0.10810405D-04 -0.89256363D-04  0.32425554D-04  0.19382230D-04 -0.74951639D-04
  0.26791034D-05 -0.12001241D-04  0.43549263D-05  0.76463145D-05  0.31041005D-04
 -0.53210698D-04  0.20995903D-04 -0.14744156D-04  0.80607137D-05  0.66834420D-05
  0.17643055D-04  0.26971059D-04 -0.54330350D-04 -0.18214231D-06 -0.34076883D-06
 -0.58877296D-06 -0.95447014D-06 -0.14494545D-05 -0.20146054D-05 -0.23952114D-05
 -0.21337376D-05 -0.10596592D-05 -0.17059617D-06 -0.17998903D-08 -0.85427743D-09
 -0.28497265D-07 -0.99307263D-07 -0.35762153D-06 -0.78833216D-06 -0.11097173D-05
  0.52937130D-07  0.14522577D-05  0.85871091D-06 -0.17349171D-10 -0.21014083D-09
 -0.43822654D-09 -0.12567574D-08 -0.65261663D-10  0.54197475D-08  0.14003587D-07
 -0.11409463D-07  0.51609653D-07 -0.29912668D-08 -0.15016323D-08  0.45462874D+01
  0.59885241D+01  0.66062795D+01  0.54870323D+01  0.29137664D+01  0.75176697D+00
 -0.10683536D+02 -0.14072716D+02 -0.15524409D+02 -0.12894237D+02 -0.68471978D+01
 -0.17666128D+01  0.38117793D-02  0.50210050D-02  0.55389545D-02  0.46005354D-02
  0.24430119D-02  0.63030985D-03 -0.17958078D-03  0.17360715D-02  0.24480420D-02
  0.35013476D-02 -0.17730331D-04 -0.32110660D-02  0.42200516D-03 -0.40796743D-02
 -0.57527667D-02 -0.82279781D-02  0.41665323D-04  0.75458320D-02 -0.15078700D-06
  0.14577117D-05  0.20555256D-05  0.29399454D-05 -0.14887469D-07 -0.26962072D-05
  0.30018376D-01 -0.70541600D-01  0.25171290D-04 -0.25160882D-03  0.59126885D-03
 -0.21190074D-06 -0.22761323D-04  0.53487928D-04 -0.18909163D-07 -0.11066833D-04
  0.11382769D-04 -0.31593556D-06  0.93651312D-05 -0.37708704D-03  0.88611660D-03
  0.38772964D-05 -0.39930353D-05  0.11573897D-06 -0.32809103D-05  0.13632165D-03
 -0.32034013D-03 -0.11106977D-05  0.11303249D-05 -0.19627163D-07  0.94190662D-06
 -0.23746298D-04  0.55800667D-04  0.91704305D-06 -0.21542424D-05 -0.33993388D-08
  0.93972293D-06 -0.21767782D-05 -0.31318434D-04 -0.36908521D-05  0.86395053D-05
  0.31328632D-04  0.26681551D-04  0.55119097D-05 -0.12952521D-04 -0.18749830D-07
  0.55072428D-05 -0.12947878D-04  0.64235250D-05 -0.22042972D-04  0.51805440D-04
 -0.63672755D-05 -0.54775194D-05  0.21534883D-07  0.40141059D-07  0.68048039D-07
  0.10303393D-06  0.12881511D-06  0.11080409D-06  0.42495755D-07 -0.41941669D-10
 -0.55522917D-09 -0.20166934D-08 -0.59824828D-08 -0.68936031D-08  0.83733078D-08
  0.81310620D-09 -0.14184611D-07 -0.15358173D-07 -0.11223491D-03 -0.10976329D-03
 -0.72525248D-04  0.26374697D-03  0.25793878D-03  0.17043106D-03 -0.11640770D-06
 -0.11384418D-06 -0.75221665D-07 -0.37940527D-05  0.89273701D-05  0.17492160D-08
 -0.25523098D-04  0.59968953D-04 -0.38668861D-07 -0.76208846D-05  0.17908394D-04
 -0.85562422D-08 -0.65093320D-04  0.65131847D-04 -0.38526728D-07  0.55445178D-04
 -0.50992883D-04  0.11975483D-03  0.32662004D-04 -0.32694158D-04  0.32153118D-07
 -0.27818225D-04  0.39147288D-04 -0.91954107D-04 -0.16482199D-04  0.16510004D-04
 -0.27805695D-07  0.14037355D-04 -0.28352649D-04  0.66600833D-04 -0.27138662D-04
  0.63760398D-04  0.99124992D-07 -0.27265433D-04  0.63885454D-04  0.17218776D-03
  0.10868142D-03 -0.25516665D-03 -0.17248513D-03 -0.14666200D-03  0.96460325D-05
 -0.22662770D-04 -0.36030119D-07  0.96862302D-05 -0.22702340D-04 -0.54623986D-04
 -0.38624328D-04  0.90690650D-04  0.54732076D-04  0.46525861D-04
MO    2     MO 0.0        OCC NO =    2.0000299  ORB. ENERGY =    0.000000
  0.85404234D-08  0.15921070D-07  0.26908777D-07  0.40448910D-07  0.49684242D-07
  0.41931747D-07  0.15767432D-07 -0.10919744D-10 -0.81618317D-10 -0.30502629D-09
 -0.85097585D-09 -0.11400730D-08  0.13462137D-08  0.23971650D-08 -0.43911465D-08
 -0.17291066D-08  0.10212194D-03  0.95745809D-04  0.68176720D-04  0.43456575D-04
  0.40743301D-04  0.29011657D-04 -0.33730536D-07 -0.31624521D-07 -0.22518543D-07
  0.34063675D-03  0.14495277D-03 -0.12315585D-06  0.42113587D-03  0.17920778D-03
 -0.15187538D-06  0.83435269D-05  0.35502759D-05 -0.30033679D-08  0.25591432D-04
 -0.25757958D-04  0.16652575D-06  0.12030490D-03 -0.45913786D-03 -0.19535619D-03
  0.76181991D-04 -0.76152155D-04 -0.29835930D-07  0.35764704D-03  0.84556764D-04
  0.36064849D-04  0.15948167D-04 -0.15969712D-04  0.21544926D-07  0.74893583D-04
 -0.60725239D-04 -0.25823105D-04  0.85157752D-04  0.36232557D-04  0.12256584D-06
  0.85173763D-04  0.36247428D-04  0.90084923D-05 -0.34064702D-03 -0.14494510D-03
 -0.93761898D-05  0.42700508D-04 -0.23962650D-04 -0.10205831D-04 -0.34434250D-07
 -0.23927785D-04 -0.10174033D-04  0.19514691D-04  0.95815735D-04  0.40791526D-04
 -0.19411388D-04  0.91505204D-04 -0.15402799D-04 -0.27779583D-04 -0.40960978D-04
  0.14604129D-03  0.43659196D-03 -0.49302744D-05  0.36225243D-05  0.28082120D-04
  0.80430433D-05  0.76699341D-04  0.11436109D-03  0.10491590D-03  0.69159947D-04
  0.67025493D-04  0.85464458D-05 -0.42747017D-04  0.18004743D-04  0.24742274D-04
  0.27528673D-04 -0.41479536D-04  0.11532392D-03 -0.17033491D-04 -0.45559698D-05
  0.21589461D-04  0.26534984D-04  0.56111733D-04  0.12324499D-04 -0.23634540D-04
 -0.42625866D-04 -0.62851814D-04  0.22409194D-03  0.66990898D-03 -0.75640075D-05
  0.38885535D-04 -0.18822995D-04  0.12365209D-04  0.18524935D-03 -0.29988156D-04
  0.16105391D-03  0.11910791D-03  0.58531596D-06  0.13152913D-04  0.14635665D-04
 -0.52694690D-04  0.38059025D-04 -0.68697601D-04  0.13522488D-03 -0.11962196D-03
 -0.18085149D-05 -0.31320747D-04  0.33129262D-04 -0.50672946D-05  0.40750750D-04
  0.32813804D-04  0.39037113D-04  0.70405042D-04  0.10381219D-03 -0.37012321D-03
 -0.11065020D-02  0.12494496D-04  0.61869968D-04  0.35154946D-04 -0.20446526D-04
  0.25593589D-03  0.13600407D-03 -0.26615550D-03  0.15166833D-03  0.77047163D-04
 -0.21821655D-04 -0.85908151D-05  0.71516214D-04 -0.62925399D-04 -0.13127254D-03
  0.25043168D-03  0.15072265D-03  0.17959346D-04  0.36804899D-04 -0.54764245D-04
 -0.25650466D-04  0.30697595D-04  0.91418083D-05  0.44803331D-07  0.83822252D-07
  0.14482626D-06  0.23478038D-06  0.35653654D-06  0.49555225D-06  0.58917365D-06
  0.52485636D-06  0.26065477D-06  0.41963212D-07  0.44273668D-09  0.21102143D-09
  0.70393216D-08  0.24530626D-07  0.88338758D-07  0.19473180D-06  0.27411952D-06
 -0.13076395D-07 -0.35873300D-06 -0.21211658D-06  0.33061847D-11  0.40045971D-10
  0.83511650D-10  0.23949687D-09  0.12436739D-10 -0.10328267D-08 -0.26686258D-08
  0.21742707D-08 -0.13011379D-07  0.24714821D-08  0.26227328D-09  0.10683537D+02
  0.14072717D+02  0.15524410D+02  0.12894238D+02  0.68471981D+01  0.17666129D+01
  0.45462863D+01  0.59885225D+01  0.66062778D+01  0.54870309D+01  0.29137657D+01
  0.75176678D+00 -0.38470125D-02 -0.50674154D-02 -0.55901524D-02 -0.46430593D-02
 -0.24655933D-02 -0.63613596D-03 -0.42200531D-03  0.40796758D-02  0.57527688D-02
  0.82279812D-02 -0.41665338D-04 -0.75458348D-02 -0.17958060D-03  0.17360697D-02
  0.24480395D-02  0.35013440D-02 -0.17730313D-04 -0.32110627D-02  0.15194260D-06
 -0.14688833D-05 -0.20712787D-05 -0.29624765D-05  0.15001564D-07  0.27168704D-05
  0.70541607D-01  0.30018366D-01 -0.25400180D-04 -0.59126778D-03 -0.25160945D-03
  0.21257596D-06 -0.53487910D-04 -0.22761323D-04  0.19246526D-07  0.45299401D-05
 -0.48486166D-05  0.31867645D-06  0.21550464D-04 -0.88614306D-03 -0.37708278D-03
 -0.15852165D-05  0.17005439D-05 -0.11532739D-06 -0.75446697D-05  0.32035106D-03
  0.13631897D-03  0.46147614D-06 -0.48158481D-06  0.20108672D-07  0.21838642D-05
 -0.55803398D-04 -0.23745850D-04  0.21703375D-05  0.91661015D-06  0.31973624D-08
  0.21925256D-05  0.93950026D-06  0.13336520D-04 -0.87035381D-05 -0.36893307D-05
 -0.13346112D-04  0.62623233D-04  0.12949433D-04  0.55118183D-05  0.18671535D-07
  0.12944900D-04  0.55070815D-05 -0.27659516D-05 -0.51793199D-04 -0.22042536D-04
  0.27099370D-05 -0.12921888D-04 -0.52820858D-08 -0.98458169D-08 -0.16690853D-07
 -0.25272209D-07 -0.31595828D-07 -0.27178078D-07 -0.10423378D-07  0.70936786D-11
  0.93907022D-10  0.34108739D-09  0.10118293D-08  0.11659289D-08 -0.14161943D-08
 -0.25517895D-09  0.24398305D-08  0.32487624D-08 -0.26374575D-03 -0.25793758D-03
 -0.17043026D-03 -0.11223507D-03 -0.10976345D-03 -0.72525352D-04  0.10388536D-06
  0.10159761D-06  0.67129839D-07 -0.89189262D-05 -0.38002831D-05  0.31979534D-08
 -0.59975372D-04 -0.25518181D-04  0.24903739D-07 -0.17908563D-04 -0.76207130D-05
  0.69493415D-08  0.27704183D-04 -0.27746728D-04  0.42545308D-07  0.13009900D-03
 -0.11989240D-03 -0.50986926D-04 -0.13894817D-04  0.13927931D-04 -0.33113744D-07
 -0.65258815D-04  0.92024552D-04  0.39143243D-04  0.70082108D-05 -0.70328954D-05
  0.24684548D-07  0.32920874D-04 -0.66640919D-04 -0.28347232D-04 -0.63853138D-04
 -0.27131422D-04 -0.93320293D-07 -0.63992715D-04 -0.27256291D-04 -0.73210265D-04
  0.25555213D-03  0.10865056D-03  0.73490226D-04 -0.34398395D-03  0.22692544D-04
  0.96434835D-05  0.33291390D-07  0.22736654D-04  0.96830845D-05  0.23219823D-04
 -0.90814287D-04 -0.38613535D-04 -0.23319697D-04  0.10911124D-03
MO    3     MO 0.0        OCC NO =    2.0000210  ORB. ENERGY =    0.000000
 -0.14082829D-01 -0.26253231D-01 -0.44371537D-01 -0.66698695D-01 -0.81927401D-01
 -0.69143836D-01 -0.25999888D-01 -0.37192549D-05 -0.27799126D-04 -0.10389168D-03
 -0.28984161D-03 -0.38830785D-03  0.45851917D-03 -0.85135098D-03 -0.18903330D-02
 -0.78022663D-04  0.20548479D-06  0.19265505D-06  0.13718187D-06  0.49951719D-06
  0.46832912D-06  0.33347823D-06  0.11543723D-02  0.10822974D-02  0.77066025D-03
  0.10450162D-06  0.26375220D-06  0.60752932D-03 -0.64891463D-07 -0.16599558D-06
 -0.37207504D-03  0.85590646D-09  0.21137595D-08  0.48434755D-05 -0.10617200D-03
 -0.10617255D-03  0.21234455D-03 -0.13541432D-08  0.11348916D-06  0.27354485D-06
 -0.24676054D-04 -0.24673976D-04  0.49350030D-04 -0.58120283D-09  0.26410246D-07
  0.68802447D-07  0.11133412D-04  0.11134077D-04 -0.22267489D-04  0.21561423D-09
 -0.11671078D-07 -0.29207392D-07 -0.15759636D-07  0.34787644D-04  0.94072246D-05
  0.37367343D-07 -0.10438873D-03 -0.14064914D-04  0.99115654D-08  0.25795798D-07
 -0.14156760D-04  0.37306925D-07  0.30306200D-08  0.51041734D-04 -0.85148584D-04
  0.80880589D-07 -0.15290164D-03  0.12778988D-03 -0.89972449D-07 -0.22356105D-06
  0.12765587D-03  0.54034109D-07 -0.53361972D-05 -0.96240514D-05 -0.14190658D-04
  0.73834615D-03  0.23139137D-03  0.49461792D-05  0.16489011D-07  0.92296757D-04
  0.25874712D-04  0.24518989D-07  0.19646921D-03 -0.42773896D-05  0.12591258D-07
  0.43416023D-04  0.38552708D-04 -0.72299831D-04  0.53764705D-04  0.18535127D-04
  0.45651143D-07  0.42094265D-07  0.75137971D-04 -0.98858513D-05 -0.11863342D-04
  0.21749193D-04 -0.64135156D-08  0.67916716D-08 -0.33830053D-04 -0.53360294D-05
 -0.96237488D-05 -0.14190212D-04  0.73834839D-03  0.23140782D-03  0.49463849D-05
  0.79921835D-04 -0.46142266D-04  0.25920648D-04  0.17013655D-03 -0.98261031D-04
 -0.41864986D-05  0.37590929D-04 -0.21689594D-04  0.38574454D-04  0.22221322D-04
 -0.40795434D-04  0.18574112D-04 -0.10914315D-03  0.65134777D-04 -0.37520598D-04
 -0.11363010D-04 -0.10369262D-04  0.21732271D-04  0.16898576D-05 -0.29310847D-04
  0.16961886D-04 -0.53358558D-05 -0.96234357D-05 -0.14189750D-04  0.73835184D-03
  0.23140569D-03  0.49463500D-05 -0.79924448D-04 -0.46122136D-04  0.25949030D-04
 -0.17016377D-03 -0.98218458D-04 -0.41246660D-05 -0.37582475D-04 -0.21680122D-04
  0.38587719D-04  0.22226327D-04 -0.40822586D-04  0.18596259D-04  0.10909771D-03
 -0.65147841D-04 -0.37543618D-04 -0.11353034D-04 -0.10368890D-04  0.21721924D-04
 -0.16830542D-05  0.29338353D-04  0.16955000D-04 -0.15479279D+00 -0.28960080D+00
 -0.50036594D+00 -0.81115198D+00 -0.12318121D+01 -0.17121030D+01 -0.20355592D+01
 -0.18133469D+01 -0.90054641D+00 -0.14498035D+00 -0.15296284D-02 -0.72371922D-03
 -0.24142062D-01 -0.84130252D-01 -0.30296666D+00 -0.66785230D+00 -0.94012048D+00
  0.44846811D-01  0.12303109D+01  0.72747514D+00 -0.15526072D-04 -0.18805865D-03
 -0.39217649D-03 -0.11246939D-02 -0.58403788D-04  0.48502255D-02  0.12532051D-01
 -0.10210526D-01  0.46660888D-01 -0.40398936D-03 -0.13596368D-03  0.10426116D-02
  0.13733633D-02  0.15150347D-02  0.12583550D-02  0.66822140D-03  0.17240461D-03
  0.25675611D-02  0.33820786D-02  0.37309621D-02  0.30988562D-02  0.16455786D-02
  0.42456789D-03  0.59221965D+01  0.78009181D+01  0.86056338D+01  0.71476527D+01
  0.37956019D+01  0.97928513D+00 -0.36892381D-07  0.35665180D-06  0.50291627D-06
  0.71930330D-06 -0.36424507D-08 -0.65966897D-06 -0.90837407D-07  0.87815761D-06
  0.12382939D-05  0.17710878D-05 -0.89685395D-08 -0.16242546D-05 -0.20947415D-03
  0.20250613D-02  0.28555478D-02  0.40841887D-02 -0.20681757D-04 -0.37455863D-02
  0.73085683D-05  0.17994333D-04  0.41509335D-01 -0.84007644D-07 -0.20593412D-06
 -0.47619866D-03 -0.16961095D-08 -0.42628642D-08 -0.97434241D-05 -0.65206540D-05
 -0.65210269D-05  0.13041681D-04  0.18278466D-09  0.63323067D-08  0.17009767D-07
 -0.10954331D-03 -0.10954316D-03  0.21908647D-03 -0.19889924D-10  0.11631884D-06
  0.28387211D-06 -0.13938675D-04 -0.13938626D-04  0.27877301D-04  0.35609464D-10
  0.14789795D-07  0.35820158D-07  0.11545402D-08 -0.70812806D-05  0.57957941D-05
 -0.96522769D-08  0.21229879D-04 -0.87033148D-05  0.61886562D-08  0.13962232D-07
 -0.86840676D-05 -0.72713200D-08  0.81137564D-08  0.20515342D-05 -0.33447992D-04
  0.11213263D-07 -0.60684960D-05  0.50174851D-04 -0.35554532D-07 -0.86106649D-07
  0.50169126D-04  0.20479859D-08 -0.84217576D-03 -0.15698171D-02 -0.26611897D-02
 -0.40294011D-02 -0.50376388D-02 -0.43332727D-02 -0.16619034D-02 -0.67837512D-06
 -0.89804164D-05 -0.32618506D-04 -0.96762185D-04 -0.11149887D-03  0.13543199D-03
 -0.93749250D-04 -0.16062649D-03  0.10886434D-04  0.67334677D-06  0.65851844D-06
  0.43511097D-06  0.17963648D-05  0.17568056D-05  0.11607957D-05  0.39305915D-02
  0.38440327D-02  0.25399149D-02  0.15139073D-06  0.40862581D-06  0.88729377D-03
  0.40077053D-08  0.78219276D-08  0.21258141D-04  0.15351698D-08  0.43676398D-08
  0.91423829D-05 -0.35581608D-04 -0.35578790D-04  0.71160398D-04  0.54970258D-09
  0.36600537D-07  0.97487801D-07  0.20906813D-04  0.20905600D-04 -0.41812413D-04
 -0.21460505D-09 -0.21672242D-07 -0.56350231D-07  0.18311812D-04  0.18311973D-04
 -0.36623785D-04 -0.17726299D-10 -0.18387694D-07 -0.52331773D-07 -0.99790991D-08
 -0.32968864D-05  0.46603244D-04 -0.14956312D-07  0.97481551D-05 -0.69912731D-04
  0.44893609D-07  0.14250396D-06 -0.69897000D-04 -0.87580001D-09  0.58706045D-08
  0.10389642D-05 -0.25443039D-04  0.74275692D-08 -0.30418232D-05  0.38167069D-04
 -0.25039383D-07 -0.75069282D-07  0.38162049D-04  0.25242163D-09
MO    4     MO 0.0        OCC NO =    2.0000123  ORB. ENERGY =    0.000000
  0.27307244D-01  0.50906204D-01  0.86038419D-01  0.12933179D+00  0.15886094D+00
  0.13407303D+00  0.50414961D-01 -0.12575056D-05 -0.93990749D-05 -0.35126489D-04
 -0.97997435D-04 -0.13128954D-03  0.15502847D-03  0.26594008D-02 -0.35126215D-02
 -0.32510175D-04  0.63797332D-06  0.59814054D-06  0.42591170D-06  0.15794141D-05
  0.14808012D-05  0.10544186D-05  0.36187531D-02  0.33928110D-02  0.24158836D-02
  0.22780741D-06  0.56268781D-06  0.13114200D-02 -0.71665907D-07 -0.18263126D-06
 -0.40771641D-03  0.73938823D-09  0.16001740D-08  0.39647366D-05 -0.32046482D-03
 -0.32046570D-03  0.64093052D-03 -0.18602175D-08  0.33934246D-06  0.83396105D-06
  0.83936764D-05  0.83997705D-05 -0.16793447D-04 -0.91254198D-09 -0.65156932D-08
 -0.18062618D-07 -0.18595960D-04 -0.18595418D-04  0.37191377D-04  0.10178275D-09
  0.19476869D-07  0.49896968D-07  0.97209600D-08 -0.45102341D-04  0.28647331D-04
 -0.59115127D-07  0.13522892D-03 -0.43029959D-04  0.29952247D-07  0.78102229D-07
 -0.42912035D-04 -0.46212871D-07  0.12935228D-07  0.79611781D-04 -0.16340730D-03
  0.13433133D-06 -0.23840846D-03  0.24521528D-03 -0.17313701D-06 -0.42688010D-06
  0.24500661D-03  0.84838242D-07 -0.90981706D-04 -0.16408925D-03 -0.24194951D-03
  0.98998367D-03  0.67301806D-03  0.39033564D-05 -0.33136550D-08 -0.65572120D-04
  0.27215271D-04  0.30461648D-07  0.29996434D-03 -0.44953989D-04  0.27413849D-07
  0.10954001D-03  0.75805690D-04 -0.13827979D-03  0.25620490D-04  0.11265930D-03
  0.66914006D-07  0.10659204D-06  0.14030984D-03 -0.14956513D-04 -0.20316522D-04
  0.35273035D-04 -0.12173060D-07  0.10125470D-07 -0.61164329D-04 -0.90981212D-04
 -0.16408836D-03 -0.24194819D-03  0.98999910D-03  0.67302964D-03  0.39044464D-05
 -0.56784523D-04  0.32809295D-04  0.27186296D-04  0.25977088D-03 -0.15004932D-03
 -0.44809021D-04  0.94843710D-04 -0.54734082D-04  0.75860821D-04 -0.15399609D-04
 -0.97336642D-04  0.11273625D-03 -0.14187287D-03  0.12154384D-03 -0.69925356D-04
 -0.18965154D-04 -0.16276361D-04  0.35241515D-04  0.46016225D-05 -0.52989181D-04
  0.30656227D-04 -0.90981407D-04 -0.16408872D-03 -0.24194871D-03  0.99000397D-03
  0.67303211D-03  0.39041532D-05  0.56802347D-04  0.32794504D-04  0.27165136D-04
 -0.25982665D-03 -0.14998447D-03 -0.44718098D-04 -0.94831086D-04 -0.54710179D-04
  0.75894346D-04 -0.15404112D-04 -0.97371045D-04  0.11277516D-03  0.14180832D-03
 -0.12147021D-03 -0.69944127D-04 -0.18947509D-04 -0.16275421D-04  0.35222930D-04
 -0.45888900D-05  0.53036180D-04  0.30644690D-04  0.91012199D-01  0.17027411D+00
  0.29419590D+00  0.47692612D+00  0.72425808D+00  0.10066506D+01  0.11968304D+01
  0.10661781D+01  0.52948660D+00  0.85242863D-01  0.89936256D-03  0.42608670D-03
  0.14213539D-01  0.49531338D-01  0.17837037D+00  0.39319528D+00  0.55349205D+00
 -0.26403375D-01 -0.72434047D+00 -0.42829798D+00  0.62728126D-05  0.75979079D-04
  0.15844636D-03  0.45439657D-03  0.23596181D-04 -0.19595784D-02 -0.50631742D-02
  0.41252360D-02 -0.28440720D-01  0.13844102D-02 -0.18927298D-03  0.17509906D-02
  0.23064642D-02  0.25443911D-02  0.21133160D-02  0.11222294D-02  0.28954106D-03
  0.42798313D-02  0.56375391D-02  0.62190880D-02  0.51654396D-02  0.27429917D-02
  0.70770621D-03  0.99249557D+01  0.13073488D+02  0.14422104D+02  0.11978687D+02
  0.63610151D+01  0.16411751D+01 -0.59318827D-07  0.57345625D-06  0.80863318D-06
  0.11565594D-05 -0.58566538D-08 -0.10606740D-05 -0.14490572D-06  0.14008553D-05
  0.19753522D-05  0.28252762D-05 -0.14306801D-07 -0.25910447D-05 -0.33597389D-03
  0.32479794D-02  0.45799900D-02  0.65505973D-02 -0.33171302D-04 -0.60075155D-02
  0.12807129D-04  0.31302225D-04  0.72587255D-01 -0.51407679D-07 -0.12793899D-06
 -0.29365158D-03 -0.62558269D-09 -0.17199038D-08 -0.38005569D-05  0.45086006D-03
  0.45085949D-03 -0.90171955D-03  0.81602090D-10 -0.47863016D-06 -0.11663294D-05
 -0.30511602D-03 -0.30511583D-03  0.61023185D-03 -0.37808358D-10  0.32383043D-06
  0.79023793D-06  0.51861683D-05  0.51861862D-05 -0.10372354D-04  0.38861900D-10
 -0.57345267D-08 -0.12979105D-07  0.17753296D-07 -0.14178294D-04 -0.46244442D-04
 -0.39416047D-08  0.42655697D-04  0.69348153D-04 -0.49318283D-07 -0.12081598D-06
  0.69385173D-04 -0.15074801D-07  0.14719681D-07  0.41588296D-05 -0.61486430D-04
  0.21009057D-07 -0.12317376D-04  0.92235091D-04 -0.65168100D-07 -0.15911262D-06
  0.92224198D-04  0.43821202D-08 -0.62076199D-02 -0.11571014D-01 -0.19615447D-01