 Entering Gaussian System, Link 0=g09
 Input=GAUSSIAN-YH_3.com
 Output=GAUSSIAN-YH_3.log
 Initial command:
 /home/bruns/programas/chemistry/gaussian/g09/l1.exe /home/bruns/programas/chemistry/gaussian/work/Gau-15649.inp -scrdir=/home/bruns/programas/chemistry/gaussian/work/
 Entering Link 1 = /home/bruns/programas/chemistry/gaussian/g09/l1.exe PID=     15651.
  
 Copyright (c) 1988,1990,1992,1993,1995,1998,2003,2009,2010,
            Gaussian, Inc.  All Rights Reserved.
  
 This is part of the Gaussian(R) 09 program.  It is based on
 the Gaussian(R) 03 system (copyright 2003, Gaussian, Inc.),
 the Gaussian(R) 98 system (copyright 1998, Gaussian, Inc.),
 the Gaussian(R) 94 system (copyright 1995, Gaussian, Inc.),
 the Gaussian 92(TM) system (copyright 1992, Gaussian, Inc.),
 the Gaussian 90(TM) system (copyright 1990, Gaussian, Inc.),
 the Gaussian 88(TM) system (copyright 1988, Gaussian, Inc.),
 the Gaussian 86(TM) system (copyright 1986, Carnegie Mellon
 University), and the Gaussian 82(TM) system (copyright 1983,
 Carnegie Mellon University). Gaussian is a federally registered
 trademark of Gaussian, Inc.
  
 This software contains proprietary and confidential information,
 including trade secrets, belonging to Gaussian, Inc.
  
 This software is provided under written license and may be
 used, copied, transmitted, or stored only in accord with that
 written license.
  
 The following legend is applicable only to US Government
 contracts under FAR:
  
                    RESTRICTED RIGHTS LEGEND
  
 Use, reproduction and disclosure by the US Government is
 subject to restrictions as set forth in subparagraphs (a)
 and (c) of the Commercial Computer Software - Restricted
 Rights clause in FAR 52.227-19.
  
 Gaussian, Inc.
 340 Quinnipiac St., Bldg. 40, Wallingford CT 06492
  
  
 ---------------------------------------------------------------
 Warning -- This program may not be used in any manner that
 competes with the business of Gaussian, Inc. or will provide
 assistance to any competitor of Gaussian, Inc.  The licensee
 of this program is prohibited from giving any competitor of
 Gaussian, Inc. access to this program.  By using this program,
 the user acknowledges that Gaussian, Inc. is engaged in the
 business of creating and licensing software in the field of
 computational chemistry and represents and warrants to the
 licensee that it is not a competitor of Gaussian, Inc. and that
 it will not use this program in any manner prohibited above.
 ---------------------------------------------------------------
  

 Cite this work as:
 Gaussian 09, Revision B.01,
 M. J. Frisch, G. W. Trucks, H. B. Schlegel, G. E. Scuseria, 
 M. A. Robb, J. R. Cheeseman, G. Scalmani, V. Barone, B. Mennucci, 
 G. A. Petersson, H. Nakatsuji, M. Caricato, X. Li, H. P. Hratchian, 
 A. F. Izmaylov, J. Bloino, G. Zheng, J. L. Sonnenberg, M. Hada, 
 M. Ehara, K. Toyota, R. Fukuda, J. Hasegawa, M. Ishida, T. Nakajima, 
 Y. Honda, O. Kitao, H. Nakai, T. Vreven, J. A. Montgomery, Jr., 
 J. E. Peralta, F. Ogliaro, M. Bearpark, J. J. Heyd, E. Brothers, 
 K. N. Kudin, V. N. Staroverov, T. Keith, R. Kobayashi, J. Normand, 
 K. Raghavachari, A. Rendell, J. C. Burant, S. S. Iyengar, J. Tomasi, 
 M. Cossi, N. Rega, J. M. Millam, M. Klene, J. E. Knox, J. B. Cross, 
 V. Bakken, C. Adamo, J. Jaramillo, R. Gomperts, R. E. Stratmann, 
 O. Yazyev, A. J. Austin, R. Cammi, C. Pomelli, J. W. Ochterski, 
 R. L. Martin, K. Morokuma, V. G. Zakrzewski, G. A. Voth, 
 P. Salvador, J. J. Dannenberg, S. Dapprich, A. D. Daniels, 
 O. Farkas, J. B. Foresman, J. V. Ortiz, J. Cioslowski, 
 and D. J. Fox, Gaussian, Inc., Wallingford CT, 2010.
 
 ******************************************
 Gaussian 09:  EM64L-G09RevB.01 12-Aug-2010
                10-Aug-2021 
 ******************************************
 %nproc=8
 Will use up to    8 processors via shared memory.
 %mem=8GB
 -----------------------------------------------------
 # QCISD aug-cc-pvtz nosymm density=current output=wfn
 -----------------------------------------------------
 1/30=1,38=1/1;
 2/12=2,15=1,17=6,18=5,40=1/2;
 3/5=16,6=1,7=10,11=9,16=1,25=1,30=1,71=1/1,2,3;
 4//1;
 5/5=2,38=5/2;
 8/6=4,9=120000,10=1/1,4;
 9/5=8,15=1/13;
 11/28=-7,31=1,32=3,42=3/11;
 10/5=6,13=10,31=1/2;
 6/7=2,8=2,9=2,10=2,22=-1,31=1/1;
 99/5=1,6=1100,9=1/99;
 ----------
 title line
 ----------
 Symbolic Z-matrix:
 Charge = -1 Multiplicity = 1
 C                     0.00018   0.00003  -0.49771 
 H                     0.00002  -1.05257  -0.62073 
 H                    -0.91131   0.51637  -0.62125 
 H                     0.91175   0.52613  -0.62157 
 Cl                    0.00056   0.00096   1.64472 
 F                    -0.00019  -0.00092  -2.59346 
 
                          Input orientation:                          
 ---------------------------------------------------------------------
 Center     Atomic      Atomic             Coordinates (Angstroms)
 Number     Number       Type             X           Y           Z
 ---------------------------------------------------------------------
      1          6           0        0.000175    0.000029   -0.497709
      2          1           0        0.000019   -1.052570   -0.620726
      3          1           0       -0.911312    0.516365   -0.621245
      4          1           0        0.911750    0.526132   -0.621570
      5         17           0        0.000555    0.000962    1.644718
      6          9           0       -0.000186   -0.000921   -2.593460
 ---------------------------------------------------------------------
                    Distance matrix (angstroms):
                    1          2          3          4          5
     1  C    0.000000
     2  H    1.059763   0.000000
     3  H    1.054833   1.814409   0.000000
     4  H    1.059762   1.823062   1.823088   0.000000
     5  Cl   2.142427   2.498433   2.496343   2.498428   0.000000
     6  F    2.095751   2.235541   2.233241   2.235568   4.238178
                    6
     6  F    0.000000
 Symmetry turned off by external request.
 Stoichiometry    CH3ClF(1-)
 Framework group  C1[X(CH3ClF)]
 Deg. of freedom    12
 Full point group                 C1      NOp   1
 Rotational constants (GHZ):    151.3540331      2.2148836      2.2146782
 Standard basis: Aug-CC-pVTZ (5D, 7F)
 Integral buffers will be    131072 words long.
 Raffenetti 1 integral format.
 Two-electron integral symmetry is turned off.
   211 basis functions,   339 primitive gaussians,   244 cartesian basis functions
    18 alpha electrons       18 beta electrons
       nuclear repulsion energy        85.0050089478 Hartrees.
 NAtoms=    6 NActive=    6 NUniq=    6 SFac= 1.00D+00 NAtFMM=   50 NAOKFM=F Big=F
 One-electron integrals computed using PRISM.
 NBasis=   211 RedAO= T  NBF=   211
 NBsUse=   211 1.00D-06 NBFU=   211
 Harris functional with IExCor=  205 diagonalized for initial guess.
 ExpMin= 2.53D-02 ExpMax= 4.56D+05 ExpMxC= 1.44D+03 IAcc=3 IRadAn=         0 AccDes= 0.00D+00
 HarFok:  IExCor=  205 AccDes= 0.00D+00 IRadAn=         0 IDoV= 1
 ScaDFX=  1.000000  1.000000  1.000000  1.000000
 FoFCou: FMM=F IPFlag=           0 FMFlag=      100000 FMFlg1=           0
         NFxFlg=           0 DoJE=T BraDBF=F KetDBF=T FulRan=T
         Omega=  0.000000  0.000000  1.000000  0.000000  0.000000 ICntrl=     500 IOpCl=  0
         NMat0=    1 NMatS0=    1 NMatT0=    0 NMatD0=    1 NMtDS0=    0 NMtDT0=    0
         I1Cent=           4 NGrid=           0.
 Symmetry not used in FoFCou.
 Requested convergence on RMS density matrix=1.00D-08 within 128 cycles.
 Requested convergence on MAX density matrix=1.00D-06.
 Requested convergence on             energy=1.00D-06.
 No special actions if energy rises.
 Keep R1 ints in memory in canonical form, NReq=454274131.
 SCF Done:  E(RHF) =  -598.617098234     A.U. after   12 cycles
             Convg  =    0.9438D-08             -V/T =  2.0001
 ExpMin= 2.53D-02 ExpMax= 4.56D+05 ExpMxC= 1.44D+03 IAcc=3 IRadAn=         5 AccDes= 0.00D+00
 HarFok:  IExCor=  205 AccDes= 0.00D+00 IRadAn=         5 IDoV=-2
 ScaDFX=  1.000000  1.000000  1.000000  1.000000
 DSYEVD returned Info=          93 IAlg= 4 N=    46 NDim=    46 NE2=    21472034 trying DSYEV.
 Range of M.O.s used for correlation:     8   211
 NBasis=   211 NAE=    18 NBE=    18 NFC=     7 NFV=     0
 NROrb=    204 NOA=    11 NOB=    11 NVA=   193 NVB=   193

 **** Warning!!: The largest alpha MO coefficient is  0.35153837D+02

 Semi-Direct transformation.
 ModeAB=           2 MOrb=            11 LenV=    1072528222
 LASXX=     44979418 LTotXX=    44979418 LenRXX=    44979418
 LTotAB=    45631872 MaxLAS=    67073160 LenRXY=    67073160
 NonZer=    89958836 LenScr=   135708672 LnRSAI=           0
 LnScr1=           0 LExtra=           0 Total=    247761250
 MaxDsk=          -1 SrtSym=           F ITran=            4
 JobTyp=0 Pass  1:  I=   1 to  11.
 (rs|ai) integrals will be sorted in core.
 Spin components of T(2) and E(2):
     alpha-alpha T2 =       0.2566387176D-01 E2=     -0.8207410090D-01
     alpha-beta  T2 =       0.1451767685D+00 E2=     -0.5099210770D+00
     beta-beta   T2 =       0.2566387176D-01 E2=     -0.8207410090D-01
 ANorm=    0.1093848487D+01
 E2 =    -0.6740692788D+00 EUMP2 =    -0.59929116751248D+03
 R2 and R3 integrals will be kept in memory, NReq=   900794930.
 Iterations=  50 Convergence= 0.100D-07
 Iteration Nr.   1
 **********************
 DD1Dir will call FoFMem   1 times, MxPair=       132
 NAB=    66 NAA=     0 NBB=     0.
 MP4(R+Q)=  0.14432009D-01
 E3=       -0.18707111D-01        EUMP3=      -0.59930987462D+03
 E4(DQ)=   -0.44858292D-03        UMP4(DQ)=   -0.59931032321D+03
 E4(SDQ)=  -0.98089478D-02        UMP4(SDQ)=  -0.59931968357D+03
 DE(Corr)= -0.67834438     E(Corr)=     -599.29544261    
 NORM(A)=   0.10996345D+01
 Iteration Nr.   2
 **********************
 DD1Dir will call FoFMem   1 times, MxPair=       132
 NAB=    66 NAA=     0 NBB=     0.
 DE(Corr)= -0.70053055     E(CORR)=     -599.31762878     Delta=-2.22D-02
 NORM(A)=   0.11069808D+01
 Iteration Nr.   3
 **********************
 DD1Dir will call FoFMem   1 times, MxPair=       132
 NAB=    66 NAA=     0 NBB=     0.
 DE(Corr)= -0.69813391     E(CORR)=     -599.31523215     Delta= 2.40D-03
 NORM(A)=   0.11109623D+01
 Iteration Nr.   4
 **********************
 DD1Dir will call FoFMem   1 times, MxPair=       132
 NAB=    66 NAA=     0 NBB=     0.
 DE(Corr)= -0.70119024     E(CORR)=     -599.31828847     Delta=-3.06D-03
 NORM(A)=   0.11130659D+01
 Iteration Nr.   5
 **********************
 DD1Dir will call FoFMem   1 times, MxPair=       132
 NAB=    66 NAA=     0 NBB=     0.
 DE(Corr)= -0.70178501     E(CORR)=     -599.31888325     Delta=-5.95D-04
 NORM(A)=   0.11140965D+01
 Iteration Nr.   6
 **********************
 DD1Dir will call FoFMem   1 times, MxPair=       132
 NAB=    66 NAA=     0 NBB=     0.
 DE(Corr)= -0.70193172     E(CORR)=     -599.31902995     Delta=-1.47D-04
 NORM(A)=   0.11144219D+01
 Iteration Nr.   7
 **********************
 DD1Dir will call FoFMem   1 times, MxPair=       132
 NAB=    66 NAA=     0 NBB=     0.
 DE(Corr)= -0.70196139     E(CORR)=     -599.31905962     Delta=-2.97D-05
 NORM(A)=   0.11144528D+01
 Iteration Nr.   8
 **********************
 DD1Dir will call FoFMem   1 times, MxPair=       132
 NAB=    66 NAA=     0 NBB=     0.
 DE(Corr)= -0.70197525     E(CORR)=     -599.31907349     Delta=-1.39D-05
 NORM(A)=   0.11144706D+01
 Iteration Nr.   9
 **********************
 DD1Dir will call FoFMem   1 times, MxPair=       132
 NAB=    66 NAA=     0 NBB=     0.
 DE(Corr)= -0.70195206     E(CORR)=     -599.31905030     Delta= 2.32D-05
 NORM(A)=   0.11144738D+01
 Iteration Nr.  10
 **********************
 DD1Dir will call FoFMem   1 times, MxPair=       132
 NAB=    66 NAA=     0 NBB=     0.
 DE(Corr)= -0.70197135     E(CORR)=     -599.31906958     Delta=-1.93D-05
 NORM(A)=   0.11144740D+01
 Iteration Nr.  11
 **********************
 DD1Dir will call FoFMem   1 times, MxPair=       132
 NAB=    66 NAA=     0 NBB=     0.
 DE(Corr)= -0.70196217     E(CORR)=     -599.31906040     Delta= 9.18D-06
 NORM(A)=   0.11144769D+01
 Iteration Nr.  12
 **********************
 DD1Dir will call FoFMem   1 times, MxPair=       132
 NAB=    66 NAA=     0 NBB=     0.
 DE(Corr)= -0.70196591     E(CORR)=     -599.31906415     Delta=-3.75D-06
 NORM(A)=   0.11144773D+01
 Iteration Nr.  13
 **********************
 DD1Dir will call FoFMem   1 times, MxPair=       132
 NAB=    66 NAA=     0 NBB=     0.
 DE(Corr)= -0.70196648     E(CORR)=     -599.31906471     Delta=-5.65D-07
 NORM(A)=   0.11144780D+01
 Iteration Nr.  14
 **********************
 DD1Dir will call FoFMem   1 times, MxPair=       132
 NAB=    66 NAA=     0 NBB=     0.
 DE(Corr)= -0.70196670     E(CORR)=     -599.31906494     Delta=-2.23D-07
 NORM(A)=   0.11144781D+01
 Iteration Nr.  15
 **********************
 DD1Dir will call FoFMem   1 times, MxPair=       132
 NAB=    66 NAA=     0 NBB=     0.
 DE(Corr)= -0.70196661     E(CORR)=     -599.31906485     Delta= 9.04D-08
 NORM(A)=   0.11144781D+01
 Iteration Nr.  16
 **********************
 DD1Dir will call FoFMem   1 times, MxPair=       132
 NAB=    66 NAA=     0 NBB=     0.
 DE(Corr)= -0.70196681     E(CORR)=     -599.31906505     Delta=-2.02D-07
 NORM(A)=   0.11144779D+01
 Iteration Nr.  17
 **********************
 DD1Dir will call FoFMem   1 times, MxPair=       132
 NAB=    66 NAA=     0 NBB=     0.
 DE(Corr)= -0.70196668     E(CORR)=     -599.31906492     Delta= 1.30D-07
 NORM(A)=   0.11144778D+01
 Iteration Nr.  18
 **********************
 DD1Dir will call FoFMem   1 times, MxPair=       132
 NAB=    66 NAA=     0 NBB=     0.
 DE(Corr)= -0.70196672     E(CORR)=     -599.31906495     Delta=-3.67D-08
 NORM(A)=   0.11144777D+01
 Iteration Nr.  19
 **********************
 DD1Dir will call FoFMem   1 times, MxPair=       132
 NAB=    66 NAA=     0 NBB=     0.
 DE(Corr)= -0.70196667     E(CORR)=     -599.31906490     Delta= 5.24D-08
 NORM(A)=   0.11144776D+01
 Iteration Nr.  20
 **********************
 DD1Dir will call FoFMem   1 times, MxPair=       132
 NAB=    66 NAA=     0 NBB=     0.
 DE(Corr)= -0.70196667     E(CORR)=     -599.31906490     Delta=-2.45D-09
 NORM(A)=   0.11144775D+01
 Iteration Nr.  21
 **********************
 DD1Dir will call FoFMem   1 times, MxPair=       132
 NAB=    66 NAA=     0 NBB=     0.
 DE(Corr)= -0.70196665     E(CORR)=     -599.31906489     Delta= 1.88D-08
 NORM(A)=   0.11144775D+01
 Iteration Nr.  22
 **********************
 DD1Dir will call FoFMem   1 times, MxPair=       132
 NAB=    66 NAA=     0 NBB=     0.
 DE(Corr)= -0.70196665     E(CORR)=     -599.31906488     Delta= 3.85D-09
 NORM(A)=   0.11144775D+01
 Iteration Nr.  23
 **********************
 DD1Dir will call FoFMem   1 times, MxPair=       132
 NAB=    66 NAA=     0 NBB=     0.
 DE(Corr)= -0.70196664     E(CORR)=     -599.31906488     Delta= 4.84D-09
 NORM(A)=   0.11144775D+01
 Iteration Nr.  24
 **********************
 DD1Dir will call FoFMem   1 times, MxPair=       132
 NAB=    66 NAA=     0 NBB=     0.
 DE(Corr)= -0.70196664     E(CORR)=     -599.31906488     Delta=-1.51D-09
 NORM(A)=   0.11144774D+01
 Iteration Nr.  25
 **********************
 DD1Dir will call FoFMem   1 times, MxPair=       132
 NAB=    66 NAA=     0 NBB=     0.
 DE(Corr)= -0.70196664     E(CORR)=     -599.31906487     Delta= 4.85D-09
 NORM(A)=   0.11144775D+01
 Iteration Nr.  26
 **********************
 DD1Dir will call FoFMem   1 times, MxPair=       132
 NAB=    66 NAA=     0 NBB=     0.
 DE(Corr)= -0.70196664     E(CORR)=     -599.31906488     Delta=-4.40D-09
 NORM(A)=   0.11144775D+01
 Iteration Nr.  27
 **********************
 DD1Dir will call FoFMem   1 times, MxPair=       132
 NAB=    66 NAA=     0 NBB=     0.
 DE(Corr)= -0.70196664     E(CORR)=     -599.31906487     Delta= 4.04D-09
 NORM(A)=   0.11144775D+01
 Iteration Nr.  28
 **********************
 DD1Dir will call FoFMem   1 times, MxPair=       132
 NAB=    66 NAA=     0 NBB=     0.
 DE(Corr)= -0.70196664     E(CORR)=     -599.31906488     Delta=-4.05D-09
 NORM(A)=   0.11144775D+01
 Largest amplitude= 6.61D-02

 Z-AMPLITUDE ITERATIONS

 Iteration Nr.   1
 **********************
 DD1Dir will call FoFMem   1 times, MxPair=       132
 NAB=    66 NAA=     0 NBB=     0.
 DE(Z)  -0.68258560D+00          E(Z)=    -0.59929968383D+03
 NORM(A)=   0.11136377D+01
 Iteration Nr.   2
 **********************
 DD1Dir will call FoFMem   1 times, MxPair=       132
 NAB=    66 NAA=     0 NBB=     0.
 DE(Z)  -0.68249316D+00          E(Z)=    -0.59929959140D+03
 NORM(A)=   0.11148593D+01
 Iteration Nr.   3
 **********************
 DD1Dir will call FoFMem   1 times, MxPair=       132
 NAB=    66 NAA=     0 NBB=     0.
 DE(Z)  -0.68262188D+00          E(Z)=    -0.59929972011D+03
 NORM(A)=   0.11101085D+01
 Iteration Nr.   4
 **********************
 DD1Dir will call FoFMem   1 times, MxPair=       132
 NAB=    66 NAA=     0 NBB=     0.
 DE(Z)  -0.68214310D+00          E(Z)=    -0.59929924133D+03
 NORM(A)=   0.11113097D+01
 Iteration Nr.   5
 **********************
 DD1Dir will call FoFMem   1 times, MxPair=       132
 NAB=    66 NAA=     0 NBB=     0.
 DE(Z)  -0.68227321D+00          E(Z)=    -0.59929937144D+03
 NORM(A)=   0.11078280D+01
 Iteration Nr.   6
 **********************
 DD1Dir will call FoFMem   1 times, MxPair=       132
 NAB=    66 NAA=     0 NBB=     0.
 DE(Z)  -0.68191681D+00          E(Z)=    -0.59929901505D+03
 NORM(A)=   0.11078213D+01
 Iteration Nr.   7
 **********************
 DD1Dir will call FoFMem   1 times, MxPair=       132
 NAB=    66 NAA=     0 NBB=     0.
 DE(Z)  -0.68191868D+00          E(Z)=    -0.59929901692D+03
 NORM(A)=   0.11078173D+01
 Iteration Nr.   8
 **********************
 DD1Dir will call FoFMem   1 times, MxPair=       132
 NAB=    66 NAA=     0 NBB=     0.
 DE(Z)  -0.68191760D+00          E(Z)=    -0.59929901583D+03
 NORM(A)=   0.11078138D+01
 Iteration Nr.   9
 **********************
 DD1Dir will call FoFMem   1 times, MxPair=       132
 NAB=    66 NAA=     0 NBB=     0.
 DE(Z)  -0.68191699D+00          E(Z)=    -0.59929901522D+03
 NORM(A)=   0.11078129D+01
 Iteration Nr.  10
 **********************
 DD1Dir will call FoFMem   1 times, MxPair=       132
 NAB=    66 NAA=     0 NBB=     0.
 DE(Z)  -0.68191715D+00          E(Z)=    -0.59929901539D+03
 NORM(A)=   0.11078126D+01
 Iteration Nr.  11
 **********************
 DD1Dir will call FoFMem   1 times, MxPair=       132
 NAB=    66 NAA=     0 NBB=     0.
 DE(Z)  -0.68191718D+00          E(Z)=    -0.59929901541D+03
 NORM(A)=   0.11078125D+01
 Iteration Nr.  12
 **********************
 DD1Dir will call FoFMem   1 times, MxPair=       132
 NAB=    66 NAA=     0 NBB=     0.
 DE(Z)  -0.68191700D+00          E(Z)=    -0.59929901524D+03
 NORM(A)=   0.11078125D+01
 Iteration Nr.  13
 **********************
 DD1Dir will call FoFMem   1 times, MxPair=       132
 NAB=    66 NAA=     0 NBB=     0.
 DE(Z)  -0.68191715D+00          E(Z)=    -0.59929901538D+03
 NORM(A)=   0.11078125D+01
 Iteration Nr.  14
 **********************
 DD1Dir will call FoFMem   1 times, MxPair=       132
 NAB=    66 NAA=     0 NBB=     0.
 DE(Z)  -0.68191714D+00          E(Z)=    -0.59929901537D+03
 NORM(A)=   0.11078125D+01
 Iteration Nr.  15
 **********************
 DD1Dir will call FoFMem   1 times, MxPair=       132
 NAB=    66 NAA=     0 NBB=     0.
 DE(Z)  -0.68191714D+00          E(Z)=    -0.59929901538D+03
 NORM(A)=   0.11078125D+01
 Iteration Nr.  16
 **********************
 DD1Dir will call FoFMem   1 times, MxPair=       132
 NAB=    66 NAA=     0 NBB=     0.
 DE(Z)  -0.68191715D+00          E(Z)=    -0.59929901538D+03
 NORM(A)=   0.11078125D+01
 Iteration Nr.  17
 **********************
 DD1Dir will call FoFMem   1 times, MxPair=       132
 NAB=    66 NAA=     0 NBB=     0.
 DE(Z)  -0.68191714D+00          E(Z)=    -0.59929901538D+03
 NORM(A)=   0.11078125D+01
 Iteration Nr.  18
 **********************
 DD1Dir will call FoFMem   1 times, MxPair=       132
 NAB=    66 NAA=     0 NBB=     0.
 DE(Z)  -0.68191715D+00          E(Z)=    -0.59929901538D+03
 NORM(A)=   0.11078125D+01
 Iteration Nr.  19
 **********************
 DD1Dir will call FoFMem   1 times, MxPair=       132
 NAB=    66 NAA=     0 NBB=     0.
 DE(Z)  -0.68191714D+00          E(Z)=    -0.59929901538D+03
 NORM(A)=   0.11078125D+01
 Iteration Nr.  20
 **********************
 DD1Dir will call FoFMem   1 times, MxPair=       132
 NAB=    66 NAA=     0 NBB=     0.
 DE(Z)  -0.68191714D+00          E(Z)=    -0.59929901538D+03
 NORM(A)=   0.11078125D+01
 Iteration Nr.  21
 **********************
 DD1Dir will call FoFMem   1 times, MxPair=       132
 NAB=    66 NAA=     0 NBB=     0.
 DE(Z)  -0.68191714D+00          E(Z)=    -0.59929901538D+03
 NORM(A)=   0.11078125D+01
 Discarding MO integrals.
          Differentiating once with respect to electric field.
                with respect to dipole field.
          Electric field/nuclear overlap derivatives assumed to be zero.
          Keep R1 ints in memory in canonical form, NReq=448662239.
          There are     1 degrees of freedom in the 1st order CPHF.  IDoFFX=0.
 LinEq1:  Iter=  0 NonCon=     1 RMS=3.11D-03 Max=1.20D-01
 AX will form     1 AO Fock derivatives at one time.
 LinEq1:  Iter=  1 NonCon=     1 RMS=6.93D-04 Max=9.16D-03
 LinEq1:  Iter=  2 NonCon=     1 RMS=2.29D-04 Max=5.71D-03
 LinEq1:  Iter=  3 NonCon=     1 RMS=9.49D-05 Max=1.42D-03
 LinEq1:  Iter=  4 NonCon=     1 RMS=3.83D-05 Max=4.08D-04
 LinEq1:  Iter=  5 NonCon=     1 RMS=1.06D-05 Max=2.26D-04
 LinEq1:  Iter=  6 NonCon=     1 RMS=2.41D-06 Max=4.24D-05
 LinEq1:  Iter=  7 NonCon=     1 RMS=6.04D-07 Max=9.13D-06
 LinEq1:  Iter=  8 NonCon=     1 RMS=1.49D-07 Max=1.80D-06
 LinEq1:  Iter=  9 NonCon=     1 RMS=3.03D-08 Max=7.45D-07
 LinEq1:  Iter= 10 NonCon=     1 RMS=6.52D-09 Max=8.70D-08
 LinEq1:  Iter= 11 NonCon=     1 RMS=1.05D-09 Max=1.16D-08
 LinEq1:  Iter= 12 NonCon=     1 RMS=1.68D-10 Max=2.85D-09
 LinEq1:  Iter= 13 NonCon=     0 RMS=2.40D-11 Max=3.20D-10
 Linear equations converged to 1.000D-10 1.000D-09 after    13 iterations.
 End of Minotr Frequency-dependent properties file   721 does not exist.
 End of Minotr Frequency-dependent properties file   722 does not exist.

 **********************************************************************

            Population analysis using the QCI/CC density.

 **********************************************************************

     Natural Orbital Coefficients:
                           1         2         3         4         5
     Eigenvalues --     2.00003   2.00003   2.00002   2.00001   2.00001
   1 1   C  1S          0.00003   0.00004  -0.04326   0.08089   0.97615
   2        2S          0.00000   0.00000   0.00131   0.00049  -0.01332
   3        3S          0.00001   0.00000  -0.00132   0.00402   0.03986
   4        4S         -0.00010  -0.00015  -0.01267  -0.02367   0.00306
   5        5S         -0.00001  -0.00001  -0.00120  -0.00063  -0.00063
   6        6PX         0.00000   0.00005   0.00000   0.00000   0.00002
   7        6PY         0.00005   0.00000   0.00000   0.00000  -0.00001
   8        6PZ         0.00000   0.00000   0.00053   0.00168   0.00087
   9        7PX        -0.00002   0.00087   0.00002   0.00002  -0.00005
  10        7PY         0.00084   0.00002   0.00000  -0.00001  -0.00001
  11        7PZ         0.00000   0.00000   0.00142   0.00305  -0.00092
  12        8PX        -0.00012   0.00460   0.00004   0.00007  -0.00006
  13        8PY         0.00455   0.00011   0.00002   0.00001  -0.00002
  14        8PZ         0.00000   0.00001  -0.00374  -0.00411  -0.00308
  15        9PX        -0.00001   0.00042   0.00000   0.00000   0.00000
  16        9PY         0.00043   0.00001   0.00000   0.00000   0.00000
  17        9PZ         0.00000   0.00000   0.00021   0.00017  -0.00049
  18       10D 0        0.00000   0.00000   0.00011   0.00033  -0.00058
  19       10D+1        0.00000  -0.00015   0.00000   0.00000   0.00000
  20       10D-1       -0.00015   0.00000   0.00000   0.00000   0.00000
  21       10D+2        0.00004   0.00000   0.00000   0.00000   0.00001
  22       10D-2        0.00000   0.00004   0.00000   0.00000   0.00000
  23       11D 0        0.00001   0.00001   0.00021  -0.00009  -0.00028
  24       11D+1       -0.00001   0.00026   0.00000  -0.00001   0.00001
  25       11D-1        0.00026   0.00000   0.00000   0.00000   0.00000
  26       11D+2        0.00101   0.00002  -0.00001  -0.00002  -0.00001
  27       11D-2       -0.00002   0.00102   0.00001   0.00001  -0.00003
  28       12D 0       -0.00002  -0.00001  -0.00078   0.00122  -0.00237
  29       12D+1        0.00003  -0.00131   0.00001   0.00001  -0.00001
  30       12D-1       -0.00130  -0.00004   0.00001   0.00001  -0.00001
  31       12D+2        0.00162   0.00003   0.00001  -0.00001  -0.00001
  32       12D-2       -0.00002   0.00163   0.00001   0.00001  -0.00002
  33       13F 0        0.00000   0.00000   0.00001   0.00003   0.00019
  34       13F+1        0.00000  -0.00019   0.00000   0.00000   0.00000
  35       13F-1       -0.00019  -0.00001   0.00000   0.00000   0.00000
  36       13F+2        0.00002   0.00000   0.00000   0.00000   0.00000
  37       13F-2        0.00000   0.00002   0.00000   0.00000   0.00000
  38       13F+3        0.00000   0.00000   0.00000   0.00000  -0.00001
  39       13F-3        0.00000   0.00000  -0.00006   0.00007   0.00090
  40       14F 0        0.00000   0.00000  -0.00113  -0.00215  -0.00019
  41       14F+1       -0.00001   0.00058   0.00000   0.00000   0.00001
  42       14F-1        0.00057   0.00002   0.00000   0.00000   0.00000
  43       14F+2        0.00034   0.00001   0.00000   0.00001   0.00000
  44       14F-2       -0.00001   0.00034   0.00000   0.00000   0.00001
  45       14F+3       -0.00001   0.00001   0.00001   0.00001   0.00002
  46       14F-3       -0.00002  -0.00002  -0.00086  -0.00136  -0.00192
  47 2   H  1S         -0.00016   0.00000  -0.00002  -0.00035  -0.00134
  48        2S          0.00122   0.00006   0.00244   0.00332  -0.00064
  49        3S          0.00871   0.00022   0.00186   0.00528  -0.00433
  50        4S         -0.00026  -0.00001   0.00011   0.00009  -0.00013
  51        5PX         0.00000   0.00000   0.00000   0.00000   0.00000
  52        5PY         0.00003   0.00000   0.00004  -0.00003  -0.00048
  53        5PZ         0.00001   0.00000   0.00001   0.00001  -0.00009
  54        6PX        -0.00001   0.00020   0.00001   0.00001   0.00000
  55        6PY         0.00066   0.00002   0.00045   0.00069  -0.00079
  56        6PZ         0.00063   0.00001  -0.00001  -0.00010   0.00024
  57        7PX        -0.00002   0.00093   0.00001   0.00001  -0.00002
  58        7PY         0.00211   0.00006   0.00054   0.00135  -0.00101
  59        7PZ         0.00027   0.00000   0.00048   0.00093  -0.00007
  60        8D 0        0.00004   0.00000   0.00001   0.00007   0.00014
  61        8D+1        0.00000  -0.00001   0.00000   0.00000   0.00000
  62        8D-1        0.00009   0.00000   0.00002   0.00005  -0.00004
  63        8D+2       -0.00005   0.00000  -0.00004  -0.00005   0.00028
  64        8D-2        0.00000   0.00001   0.00000   0.00000   0.00000
  65        9D 0        0.00039   0.00001   0.00015   0.00025   0.00063
  66        9D+1        0.00000   0.00025   0.00000   0.00000   0.00000
  67        9D-1        0.00013   0.00000  -0.00014  -0.00025   0.00001
  68        9D+2       -0.00013   0.00000   0.00001   0.00003  -0.00010
  69        9D-2        0.00000   0.00012   0.00000   0.00000  -0.00001
  70 3   H  1S          0.00008  -0.00013  -0.00002  -0.00036  -0.00137
  71        2S         -0.00059   0.00108   0.00247   0.00338  -0.00072
  72        3S         -0.00453   0.00755   0.00189   0.00543  -0.00444
  73        4S          0.00014  -0.00023   0.00012   0.00010  -0.00013
  74        5PX        -0.00001   0.00003   0.00004  -0.00002  -0.00042
  75        5PY         0.00001  -0.00001  -0.00002   0.00001   0.00024
  76        5PZ        -0.00001   0.00001   0.00001   0.00002  -0.00009
  77        6PX        -0.00021   0.00055   0.00040   0.00062  -0.00073
  78        6PY         0.00031  -0.00020  -0.00022  -0.00034   0.00042
  79        6PZ        -0.00033   0.00054  -0.00001  -0.00011   0.00025
  80        7PX        -0.00055   0.00183   0.00048   0.00120  -0.00092
  81        7PY         0.00122  -0.00047  -0.00026  -0.00068   0.00050
  82        7PZ        -0.00015   0.00023   0.00048   0.00094  -0.00007
  83        8D 0       -0.00002   0.00003   0.00001   0.00007   0.00014
  84        8D+1       -0.00005   0.00007   0.00002   0.00004  -0.00003
  85        8D-1        0.00001  -0.00005  -0.00001  -0.00002   0.00002
  86        8D+2       -0.00001   0.00003   0.00002   0.00003  -0.00014
  87        8D-2        0.00003  -0.00003  -0.00003  -0.00005   0.00024
  88        9D 0       -0.00020   0.00034   0.00015   0.00025   0.00064
  89        9D+1        0.00005   0.00016  -0.00012  -0.00022   0.00001
  90        9D-1        0.00022   0.00006   0.00007   0.00013   0.00000
  91        9D+2        0.00005   0.00011   0.00000  -0.00001   0.00004
  92        9D-2        0.00011  -0.00006   0.00001   0.00002  -0.00008
  93 4   H  1S          0.00008   0.00014  -0.00002  -0.00035  -0.00135
  94        2S         -0.00054  -0.00104   0.00243   0.00332  -0.00057
  95        3S         -0.00417  -0.00768   0.00176   0.00523  -0.00424
  96        4S          0.00013   0.00024   0.00011   0.00010  -0.00013
  97        5PX         0.00001   0.00003  -0.00004   0.00002   0.00042
  98        5PY         0.00001   0.00001  -0.00002   0.00001   0.00024
  99        5PZ        -0.00001  -0.00001   0.00001   0.00002  -0.00009
 100        6PX         0.00019   0.00055  -0.00039  -0.00060   0.00066
 101        6PY         0.00029   0.00022  -0.00022  -0.00034   0.00039
 102        6PZ        -0.00030  -0.00054  -0.00001  -0.00010   0.00024
 103        7PX         0.00046   0.00183  -0.00045  -0.00115   0.00086
 104        7PY         0.00119   0.00054  -0.00026  -0.00067   0.00050
 105        7PZ        -0.00013  -0.00024   0.00046   0.00091  -0.00005
 106        8D 0       -0.00002  -0.00003   0.00001   0.00007   0.00014
 107        8D+1        0.00005   0.00007  -0.00002  -0.00004   0.00003
 108        8D-1        0.00001   0.00005  -0.00001  -0.00002   0.00002
 109        8D+2       -0.00001  -0.00003   0.00002   0.00003  -0.00014
 110        8D-2       -0.00002  -0.00004   0.00003   0.00005  -0.00024
 111        9D 0       -0.00018  -0.00034   0.00015   0.00025   0.00063
 112        9D+1       -0.00006   0.00016   0.00012   0.00022  -0.00001
 113        9D-1        0.00022  -0.00005   0.00007   0.00013   0.00000
 114        9D+2        0.00006  -0.00011  -0.00001  -0.00001   0.00005
 115        9D-2       -0.00010  -0.00007  -0.00001  -0.00002   0.00009
 116 5   Cl 1S         -0.00001  -0.00006  -0.25054   0.14807  -0.02291
 117        2S          0.00002   0.00020   0.84574  -0.50052   0.07853
 118        3S          0.00000  -0.00001  -0.02309   0.00934  -0.00239
 119        4S          0.00000   0.00002   0.06653  -0.04078   0.00645
 120        5S          0.00002   0.00000  -0.00210   0.00778   0.00351
 121        6S          0.00001   0.00001  -0.00154  -0.00212   0.00301
 122        7PX        -0.02477   0.97855   0.00003   0.00043  -0.00007
 123        7PY         0.97855   0.02477   0.00018   0.00036  -0.00005
 124        7PZ        -0.00039  -0.00040   0.50115   0.83570  -0.04763
 125        8PX         0.00048  -0.01914   0.00000  -0.00001   0.00000
 126        8PY        -0.01914  -0.00049   0.00000  -0.00001   0.00000
 127        8PZ         0.00001   0.00001  -0.00879  -0.01404   0.00011
 128        9PX        -0.00132   0.05232   0.00000   0.00003   0.00000
 129        9PY         0.05231   0.00132   0.00001   0.00002   0.00000
 130        9PZ        -0.00002  -0.00002   0.02845   0.04953  -0.00270
 131       10PX         0.00015  -0.00577   0.00000   0.00000   0.00000
 132       10PY        -0.00578  -0.00014   0.00000   0.00000   0.00000
 133       10PZ        -0.00001   0.00000  -0.00435  -0.00276  -0.00347
 134       11PX         0.00005  -0.00214   0.00000   0.00000   0.00000
 135       11PY        -0.00215  -0.00005   0.00000   0.00000   0.00000
 136       11PZ         0.00000   0.00000  -0.00036  -0.00015  -0.00053
 137       12D 0        0.00000   0.00000   0.00001  -0.00051  -0.00017
 138       12D+1        0.00001  -0.00032   0.00000   0.00000   0.00000
 139       12D-1       -0.00032  -0.00001   0.00000   0.00000   0.00000
 140       12D+2        0.00001   0.00000   0.00000   0.00000   0.00000
 141       12D-2        0.00000   0.00001   0.00000   0.00000   0.00000
 142       13D 0        0.00000   0.00000   0.00088   0.00244   0.00041
 143       13D+1       -0.00002   0.00081   0.00000   0.00000   0.00000
 144       13D-1        0.00081   0.00002   0.00000   0.00000   0.00000
 145       13D+2       -0.00002   0.00000   0.00000   0.00000   0.00000
 146       13D-2        0.00000  -0.00002   0.00000   0.00000   0.00000
 147       14D 0        0.00000   0.00000   0.00058  -0.00017   0.00080
 148       14D+1        0.00002  -0.00071   0.00000   0.00000   0.00000
 149       14D-1       -0.00071  -0.00002   0.00000   0.00000   0.00000
 150       14D+2        0.00003   0.00000   0.00000   0.00000   0.00000
 151       14D-2        0.00000   0.00003   0.00000   0.00000   0.00000
 152       15F 0        0.00000   0.00000   0.00001  -0.00007  -0.00003
 153       15F+1        0.00000  -0.00001   0.00000   0.00000   0.00000
 154       15F-1       -0.00001   0.00000   0.00000   0.00000   0.00000
 155       15F+2        0.00003   0.00000   0.00000   0.00000   0.00000
 156       15F-2        0.00000   0.00003   0.00000   0.00000   0.00000
 157       15F+3        0.00000   0.00000   0.00000   0.00000   0.00000
 158       15F-3        0.00000   0.00000   0.00001   0.00003   0.00000
 159       16F 0        0.00000   0.00000  -0.00032  -0.00059  -0.00031
 160       16F+1        0.00001  -0.00022   0.00000   0.00000   0.00000
 161       16F-1       -0.00022  -0.00001   0.00000   0.00000   0.00000
 162       16F+2       -0.00003   0.00000   0.00000   0.00000   0.00000
 163       16F-2        0.00000  -0.00003   0.00000   0.00000   0.00000
 164       16F+3        0.00000   0.00000   0.00000   0.00000   0.00000
 165       16F-3        0.00000   0.00000  -0.00002  -0.00005   0.00002
 166 6   F  1S          0.00000   0.00000  -0.00144  -0.01043  -0.04972
 167        2S          0.00000   0.00000   0.00020   0.00043   0.00080
 168        3S          0.00000   0.00000  -0.00007  -0.00045  -0.00202
 169        4S          0.00001   0.00001  -0.00055  -0.00105   0.00057
 170        5S          0.00001   0.00001   0.00010  -0.00168   0.00179
 171        6PX         0.00000  -0.00004   0.00000   0.00000   0.00000
 172        6PY        -0.00004   0.00000   0.00000   0.00000   0.00000
 173        6PZ         0.00000   0.00000   0.00058   0.00111   0.00011
 174        7PX         0.00000  -0.00001   0.00000   0.00000   0.00000
 175        7PY        -0.00001   0.00000   0.00000   0.00000   0.00000
 176        7PZ         0.00000   0.00000   0.00069   0.00132   0.00002
 177        8PX         0.00001  -0.00024   0.00000   0.00000   0.00000
 178        8PY        -0.00024  -0.00001   0.00000   0.00000   0.00000
 179        8PZ         0.00000   0.00000   0.00008   0.00017   0.00048
 180        9PX         0.00001  -0.00036   0.00000   0.00000   0.00000
 181        9PY        -0.00036  -0.00001   0.00000   0.00000   0.00000
 182        9PZ         0.00000   0.00000   0.00017  -0.00009   0.00071
 183       10D 0        0.00000   0.00000   0.00001   0.00001  -0.00002
 184       10D+1        0.00000  -0.00001   0.00000   0.00000   0.00000
 185       10D-1       -0.00001   0.00000   0.00000   0.00000   0.00000
 186       10D+2        0.00001   0.00000   0.00000   0.00000   0.00000
 187       10D-2        0.00000   0.00001   0.00000   0.00000   0.00000
 188       11D 0        0.00000   0.00000  -0.00003  -0.00010   0.00001
 189       11D+1        0.00000   0.00005   0.00000   0.00000   0.00000
 190       11D-1        0.00005   0.00000   0.00000   0.00000   0.00000
 191       11D+2       -0.00003   0.00000   0.00000   0.00000   0.00000
 192       11D-2        0.00000  -0.00003   0.00000   0.00000   0.00000
 193       12D 0        0.00000   0.00000  -0.00019  -0.00012   0.00011
 194       12D+1        0.00001  -0.00022   0.00000   0.00000   0.00000
 195       12D-1       -0.00022  -0.00001   0.00000   0.00000   0.00000
 196       12D+2        0.00011   0.00000   0.00000   0.00000   0.00000
 197       12D-2        0.00000   0.00011   0.00000   0.00000   0.00000
 198       13F 0        0.00000   0.00000   0.00001  -0.00001  -0.00004
 199       13F+1        0.00000   0.00002   0.00000   0.00000   0.00000
 200       13F-1        0.00002   0.00000   0.00000   0.00000   0.00000
 201       13F+2       -0.00002   0.00000   0.00000   0.00000   0.00000
 202       13F-2        0.00000  -0.00002   0.00000   0.00000   0.00000
 203       13F+3        0.00000   0.00000   0.00000   0.00000   0.00000
 204       13F-3        0.00000   0.00000   0.00000   0.00000   0.00000
 205       14F 0        0.00000   0.00000  -0.00004   0.00002   0.00013
 206       14F+1        0.00000  -0.00006   0.00000   0.00000   0.00000
 207       14F-1       -0.00006   0.00000   0.00000   0.00000   0.00000
 208       14F+2        0.00004   0.00000   0.00000   0.00000   0.00000
 209       14F-2        0.00000   0.00004   0.00000   0.00000   0.00000
 210       14F+3        0.00000   0.00000   0.00000   0.00000   0.00000
 211       14F-3        0.00000   0.00000   0.00000   0.00000  -0.00001
                           6         7         8         9        10
     Eigenvalues --     2.00000   2.00000   1.98361   1.97544   1.96953
   1 1   C  1S          0.05035  -0.00046   0.01548  -0.07388  -0.14354
   2        2S         -0.00012  -0.00001  -0.04217   0.20047   0.39673
   3        3S          0.00230  -0.00003  -0.01044   0.04654   0.09604
   4        4S         -0.00700   0.00016   0.00546   0.07966   0.19055
   5        5S         -0.00016   0.00010   0.00786  -0.00703  -0.02888
   6        6PX         0.00000   0.00000   0.00008  -0.00062  -0.00237
   7        6PY         0.00000   0.00000  -0.00002   0.00016   0.00051
   8        6PZ         0.00004   0.00000   0.00647   0.01023  -0.02731
   9        7PX         0.00000   0.00000   0.00013  -0.00080  -0.00306
  10        7PY         0.00000   0.00000  -0.00001   0.00016   0.00056
  11        7PZ        -0.00075   0.00000   0.00707   0.01776  -0.03257
  12        8PX         0.00001   0.00000   0.00001  -0.00033  -0.00176
  13        8PY         0.00002   0.00000  -0.00007   0.00039   0.00082
  14        8PZ         0.00520   0.00009   0.01664   0.00586  -0.02270
  15        9PX         0.00000   0.00000  -0.00001   0.00001  -0.00003
  16        9PY         0.00000   0.00000  -0.00002   0.00004   0.00010
  17        9PZ         0.00011   0.00001  -0.00070   0.00032  -0.00407
  18       10D 0        0.00004   0.00000   0.00051  -0.00218  -0.00957
  19       10D+1        0.00000   0.00000   0.00000   0.00001   0.00004
  20       10D-1        0.00000   0.00000   0.00000   0.00000  -0.00001
  21       10D+2        0.00000   0.00000  -0.00001   0.00005   0.00012
  22       10D-2        0.00000   0.00000   0.00000  -0.00002  -0.00011
  23       11D 0       -0.00023  -0.00002  -0.00528   0.00456  -0.01879
  24       11D+1        0.00000   0.00000  -0.00003   0.00004   0.00007
  25       11D-1        0.00000   0.00000  -0.00001   0.00000  -0.00001
  26       11D+2        0.00000   0.00000   0.00000   0.00015   0.00036
  27       11D-2        0.00000   0.00000   0.00004  -0.00006  -0.00030
  28       12D 0        0.00027   0.00008   0.00206  -0.00847  -0.01666
  29       12D+1       -0.00001   0.00000  -0.00002  -0.00004  -0.00002
  30       12D-1       -0.00001   0.00000   0.00000  -0.00004  -0.00004
  31       12D+2        0.00001   0.00000   0.00007   0.00006   0.00014
  32       12D-2        0.00000   0.00000   0.00007  -0.00010  -0.00033
  33       13F 0       -0.00007   0.00000   0.00000   0.00242   0.00063
  34       13F+1        0.00000   0.00000   0.00000   0.00000   0.00001
  35       13F-1        0.00000   0.00000   0.00000   0.00001   0.00001
  36       13F+2        0.00000   0.00000   0.00000  -0.00001  -0.00001
  37       13F-2        0.00000   0.00000   0.00000   0.00000  -0.00001
  38       13F+3        0.00000   0.00000   0.00000  -0.00002  -0.00003
  39       13F-3        0.00001   0.00000  -0.00014   0.00194   0.00393
  40       14F 0        0.00127  -0.00001   0.00471   0.00261  -0.00198
  41       14F+1        0.00000   0.00000   0.00001   0.00001   0.00004
  42       14F-1        0.00000   0.00000   0.00002  -0.00001  -0.00002
  43       14F+2        0.00000   0.00000  -0.00001  -0.00001  -0.00002
  44       14F-2        0.00000   0.00000  -0.00002   0.00001   0.00002
  45       14F+3        0.00000   0.00000  -0.00001   0.00001  -0.00003
  46       14F-3       -0.00044   0.00003   0.00186  -0.00099   0.00405
  47 2   H  1S         -0.00008   0.00000  -0.00858   0.03731   0.08000
  48        2S          0.00098  -0.00006  -0.01529   0.04400   0.08327
  49        3S          0.00184   0.00004  -0.00085  -0.00451  -0.01129
  50        4S          0.00003   0.00000  -0.00049   0.00055   0.00049
  51        5PX         0.00000   0.00000   0.00000  -0.00001  -0.00004
  52        5PY         0.00001   0.00000  -0.00109   0.00401   0.00859
  53        5PZ        -0.00004   0.00000   0.00028   0.00095   0.00034
  54        6PX         0.00000   0.00000   0.00000   0.00000  -0.00009
  55        6PY         0.00008   0.00000  -0.00072   0.00081   0.00122
  56        6PZ         0.00032  -0.00001   0.00007   0.00243  -0.00052
  57        7PX         0.00000   0.00000   0.00005  -0.00007  -0.00016
  58        7PY         0.00044   0.00001   0.00136  -0.00490  -0.01016
  59        7PZ        -0.00056   0.00001  -0.00281  -0.00174  -0.00129
  60        8D 0        0.00006   0.00000   0.00014  -0.00035  -0.00090
  61        8D+1        0.00000   0.00000   0.00000   0.00000   0.00000
  62        8D-1       -0.00001   0.00000  -0.00015   0.00050   0.00023
  63        8D+2       -0.00002   0.00000   0.00003  -0.00055  -0.00137
  64        8D-2        0.00000   0.00000   0.00000   0.00000  -0.00001
  65        9D 0        0.00009  -0.00001  -0.00006   0.00124   0.00103
  66        9D+1        0.00000   0.00000   0.00000   0.00000   0.00000
  67        9D-1        0.00014   0.00000  -0.00006   0.00004  -0.00038
  68        9D+2        0.00004   0.00000  -0.00099   0.00228   0.00416
  69        9D-2        0.00000   0.00000   0.00000   0.00001   0.00001
  70 3   H  1S         -0.00008   0.00000  -0.00871   0.03803   0.08232
  71        2S          0.00098  -0.00006  -0.01531   0.04425   0.08468
  72        3S          0.00182   0.00004  -0.00083  -0.00540  -0.01342
  73        4S          0.00003   0.00000  -0.00047   0.00051   0.00035
  74        5PX         0.00001   0.00000  -0.00096   0.00355   0.00767
  75        5PY        -0.00001   0.00000   0.00054  -0.00202  -0.00437
  76        5PZ        -0.00004   0.00000   0.00027   0.00098   0.00037
  77        6PX         0.00007   0.00000  -0.00058   0.00059   0.00080
  78        6PY        -0.00003   0.00000   0.00032  -0.00028  -0.00044
  79        6PZ         0.00033  -0.00001   0.00006   0.00244  -0.00052
  80        7PX         0.00038   0.00001   0.00124  -0.00447  -0.00938
  81        7PY        -0.00021   0.00000  -0.00062   0.00251   0.00526
  82        7PZ        -0.00056   0.00001  -0.00283  -0.00179  -0.00139
  83        8D 0        0.00006   0.00000   0.00014  -0.00036  -0.00093
  84        8D+1       -0.00001   0.00000  -0.00013   0.00044   0.00021
  85        8D-1        0.00000   0.00000   0.00007  -0.00025  -0.00012
  86        8D+2        0.00001   0.00000  -0.00002   0.00029   0.00072
  87        8D-2       -0.00001   0.00000   0.00003  -0.00047  -0.00120
  88        9D 0        0.00009  -0.00001  -0.00006   0.00125   0.00104
  89        9D+1        0.00013   0.00000  -0.00006   0.00003  -0.00034
  90        9D-1       -0.00007   0.00000   0.00003  -0.00001   0.00020
  91        9D+2       -0.00002   0.00000   0.00051  -0.00116  -0.00213
  92        9D-2        0.00003   0.00000  -0.00086   0.00199   0.00364
  93 4   H  1S         -0.00008   0.00000  -0.00859   0.03722   0.07940
  94        2S          0.00097  -0.00006  -0.01537   0.04384   0.08256
  95        3S          0.00178   0.00004  -0.00099  -0.00498  -0.01157
  96        4S          0.00003   0.00000  -0.00045   0.00048   0.00035
  97        5PX        -0.00001   0.00000   0.00094  -0.00346  -0.00740
  98        5PY        -0.00001   0.00000   0.00054  -0.00199  -0.00425
  99        5PZ        -0.00004   0.00000   0.00027   0.00096   0.00034
 100        6PX        -0.00007   0.00000   0.00067  -0.00076  -0.00119
 101        6PY        -0.00003   0.00000   0.00037  -0.00038  -0.00056
 102        6PZ         0.00032  -0.00001   0.00010   0.00242  -0.00053
 103        7PX        -0.00037  -0.00001  -0.00118   0.00429   0.00870
 104        7PY        -0.00021   0.00000  -0.00065   0.00253   0.00515
 105        7PZ        -0.00054   0.00001  -0.00279  -0.00172  -0.00128
 106        8D 0        0.00006   0.00000   0.00014  -0.00035  -0.00090
 107        8D+1        0.00001   0.00000   0.00013  -0.00043  -0.00020
 108        8D-1        0.00000   0.00000   0.00007  -0.00025  -0.00011
 109        8D+2        0.00001   0.00000  -0.00002   0.00028   0.00069
 110        8D-2        0.00001   0.00000  -0.00003   0.00047   0.00117
 111        9D 0        0.00009  -0.00001  -0.00006   0.00122   0.00099
 112        9D+1       -0.00012   0.00000   0.00005  -0.00003   0.00034
 113        9D-1       -0.00007   0.00000   0.00002  -0.00002   0.00019
 114        9D+2       -0.00002   0.00000   0.00048  -0.00111  -0.00202
 115        9D-2       -0.00003   0.00000   0.00085  -0.00196  -0.00357
 116 5   Cl 1S          0.00007   0.99708  -0.00064   0.06636  -0.03501
 117        2S         -0.00007   0.01040   0.00294  -0.25149   0.13161
 118        3S          0.00006   0.00017  -0.00394   0.52378  -0.27997
 119        4S          0.00008   0.00026  -0.00025   0.06416  -0.03769
 120        5S         -0.00181  -0.00020  -0.01233   0.35038  -0.17173
 121        6S         -0.00050  -0.00011  -0.00462   0.02456   0.01121
 122        7PX         0.00000   0.00000   0.00000   0.00002   0.00014
 123        7PY         0.00000   0.00000   0.00000   0.00000   0.00000
 124        7PZ         0.00731   0.00016   0.00152   0.00466   0.02869
 125        8PX         0.00000   0.00000   0.00000  -0.00006  -0.00035
 126        8PY         0.00000   0.00000  -0.00001   0.00001   0.00001
 127        8PZ         0.00051  -0.00003  -0.00225  -0.00620  -0.07186
 128        9PX         0.00000   0.00000   0.00000  -0.00002  -0.00015
 129        9PY         0.00000   0.00000   0.00000   0.00001   0.00000
 130        9PZ         0.00031   0.00003  -0.00263   0.00060  -0.03133
 131       10PX         0.00000   0.00000   0.00000  -0.00001  -0.00012
 132       10PY         0.00000   0.00000   0.00001   0.00001  -0.00003
 133       10PZ         0.00096   0.00015   0.00272   0.00289  -0.05224
 134       11PX         0.00000   0.00000   0.00000   0.00000   0.00000
 135       11PY         0.00000   0.00000   0.00000   0.00000  -0.00002
 136       11PZ         0.00002   0.00002  -0.00040   0.00260  -0.00874
 137       12D 0       -0.00003   0.00001  -0.00035   0.00450   0.00451
 138       12D+1        0.00000   0.00000   0.00000   0.00001   0.00005
 139       12D-1        0.00000   0.00000   0.00000   0.00000  -0.00001
 140       12D+2        0.00000   0.00000   0.00000   0.00000   0.00000
 141       12D-2        0.00000   0.00000   0.00000   0.00000   0.00000
 142       13D 0       -0.00022   0.00000  -0.00163   0.00822   0.00965
 143       13D+1        0.00000   0.00000   0.00000   0.00002   0.00008
 144       13D-1        0.00000   0.00000   0.00000   0.00000  -0.00001
 145       13D+2        0.00000   0.00000   0.00000   0.00000   0.00000
 146       13D-2        0.00000   0.00000   0.00000   0.00000  -0.00001
 147       14D 0       -0.00014  -0.00004  -0.00184  -0.00017   0.00537
 148       14D+1        0.00000   0.00000   0.00000   0.00000   0.00000
 149       14D-1        0.00000   0.00000  -0.00001   0.00000   0.00001
 150       14D+2        0.00000   0.00000   0.00000   0.00000   0.00000
 151       14D-2        0.00000   0.00000   0.00000   0.00001   0.00001
 152       15F 0        0.00005   0.00000   0.00023  -0.00181  -0.00191
 153       15F+1        0.00000   0.00000   0.00000  -0.00001  -0.00002
 154       15F-1        0.00000   0.00000   0.00000   0.00000   0.00000
 155       15F+2        0.00000   0.00000   0.00000   0.00000   0.00000
 156       15F-2        0.00000   0.00000   0.00000   0.00000   0.00000
 157       15F+3        0.00000   0.00000   0.00000   0.00000   0.00000
 158       15F-3       -0.00001   0.00000  -0.00001   0.00002   0.00009
 159       16F 0       -0.00005   0.00001   0.00005  -0.00093  -0.00170
 160       16F+1        0.00000   0.00000   0.00000   0.00000  -0.00001
 161       16F-1        0.00000   0.00000   0.00000   0.00000   0.00000
 162       16F+2        0.00000   0.00000   0.00000   0.00000   0.00000
 163       16F-2        0.00000   0.00000   0.00000   0.00000   0.00000
 164       16F+3        0.00000   0.00000   0.00000   0.00000   0.00000
 165       16F-3        0.00003   0.00000   0.00002  -0.00001  -0.00021
 166 6   F  1S          0.97743  -0.00002   0.21188   0.01327   0.02164
 167        2S         -0.01503   0.00000  -0.53158  -0.03435  -0.05737
 168        3S          0.04206   0.00000  -0.16470  -0.01091  -0.01855
 169        4S          0.00193  -0.00001  -0.36873  -0.02385  -0.04394
 170        5S         -0.00083  -0.00006  -0.04529   0.00423   0.00778
 171        6PX         0.00000   0.00000  -0.00002  -0.00009  -0.00081
 172        6PY         0.00000   0.00000   0.00000   0.00002   0.00017
 173        6PZ         0.00048   0.00000   0.01351   0.01291   0.08721
 174        7PX         0.00000   0.00000  -0.00002  -0.00012  -0.00097
 175        7PY         0.00000   0.00000  -0.00001   0.00003   0.00021
 176        7PZ        -0.00012   0.00000   0.01473   0.01576   0.10494
 177        8PX         0.00000   0.00000  -0.00002  -0.00008  -0.00075
 178        8PY         0.00000   0.00000   0.00000   0.00002   0.00015
 179        8PZ         0.00240  -0.00001   0.01247   0.01245   0.08344
 180        9PX         0.00000   0.00000   0.00000  -0.00002  -0.00020
 181        9PY         0.00000   0.00000   0.00000   0.00000   0.00003
 182        9PZ        -0.00008  -0.00002   0.00219   0.00321   0.02415
 183       10D 0       -0.00002   0.00000  -0.00013   0.00017   0.00060
 184       10D+1        0.00000   0.00000   0.00000   0.00000   0.00000
 185       10D-1        0.00000   0.00000   0.00000   0.00000   0.00000
 186       10D+2        0.00000   0.00000   0.00000   0.00000   0.00000
 187       10D-2        0.00000   0.00000   0.00000   0.00000   0.00000
 188       11D 0       -0.00003   0.00000  -0.00104   0.00091   0.00275
 189       11D+1        0.00000   0.00000   0.00000   0.00000  -0.00002
 190       11D-1        0.00000   0.00000   0.00000   0.00000   0.00001
 191       11D+2        0.00000   0.00000   0.00000   0.00000   0.00000
 192       11D-2        0.00000   0.00000   0.00000   0.00000   0.00000
 193       12D 0        0.00080   0.00000  -0.00055   0.00036   0.00385
 194       12D+1        0.00000   0.00000   0.00000   0.00000  -0.00001
 195       12D-1        0.00000   0.00000   0.00000   0.00000   0.00000
 196       12D+2        0.00000   0.00000  -0.00001   0.00000   0.00000
 197       12D-2        0.00000   0.00000   0.00000   0.00000   0.00001
 198       13F 0       -0.00006   0.00000  -0.00002   0.00013   0.00027
 199       13F+1        0.00000   0.00000   0.00000   0.00000   0.00000
 200       13F-1        0.00000   0.00000   0.00000   0.00000   0.00000
 201       13F+2        0.00000   0.00000   0.00000   0.00000   0.00000
 202       13F-2        0.00000   0.00000   0.00000   0.00000   0.00000
 203       13F+3        0.00000   0.00000   0.00000   0.00000   0.00000
 204       13F-3        0.00001   0.00000   0.00001   0.00002   0.00003
 205       14F 0        0.00020   0.00000  -0.00040  -0.00006   0.00062
 206       14F+1        0.00000   0.00000   0.00000   0.00000   0.00000
 207       14F-1        0.00000   0.00000   0.00000   0.00000   0.00000
 208       14F+2        0.00000   0.00000   0.00000   0.00000   0.00000
 209       14F-2        0.00000   0.00000   0.00000   0.00000   0.00000
 210       14F+3        0.00000   0.00000   0.00000   0.00000   0.00000
 211       14F-3       -0.00001   0.00000  -0.00007  -0.00006  -0.00009
                          11        12        13        14        15
     Eigenvalues --     1.96439   1.96437   1.95937   1.95923   1.94912
   1 1   C  1S          0.00086  -0.00016   0.00088  -0.00014  -0.00120
   2        2S         -0.00237   0.00046  -0.00240   0.00045   0.00343
   3        3S         -0.00052   0.00012  -0.00047   0.00012   0.00086
   4        4S         -0.00060   0.00061   0.00050   0.00095   0.00702
   5        5S          0.00033   0.00011   0.00050   0.00039   0.00137
   6        6PX        -0.09519   0.03226  -0.22177   0.06279  -0.06299
   7        6PY         0.03280   0.09228   0.06296   0.22239   0.02307
   8        6PZ         0.00011  -0.00008   0.00010  -0.00014   0.00106
   9        7PX        -0.12742   0.04321  -0.29390   0.08320  -0.08758
  10        7PY         0.04390   0.12359   0.08346   0.29472   0.03206
  11        7PZ         0.00009  -0.00011   0.00014  -0.00018   0.00150
  12        8PX        -0.09333   0.03146  -0.22692   0.06407  -0.06731
  13        8PY         0.03241   0.09075   0.06468   0.22787   0.02474
  14        8PZ         0.00014  -0.00005   0.00017  -0.00019   0.00157
  15        9PX         0.00191  -0.00078  -0.01825   0.00509  -0.01141
  16        9PY        -0.00056  -0.00197   0.00527   0.01836   0.00420
  17        9PZ         0.00003   0.00001   0.00003  -0.00001   0.00002
  18       10D 0        0.00004   0.00000   0.00001   0.00001  -0.00023
  19       10D+1        0.00259  -0.00089   0.00123  -0.00035   0.00351
  20       10D-1       -0.00089  -0.00255  -0.00034  -0.00121  -0.00127
  21       10D+2        0.00217   0.00588   0.00423   0.01428   0.00177
  22       10D-2       -0.00603   0.00207  -0.01416   0.00406  -0.00463
  23       11D 0        0.00005   0.00000  -0.00007  -0.00002  -0.00120
  24       11D+1        0.01203  -0.00420  -0.00741   0.00207   0.01459
  25       11D-1       -0.00413  -0.01198   0.00212   0.00739  -0.00531
  26       11D+2        0.00714   0.01948   0.01288   0.04372   0.00601
  27       11D-2       -0.01990   0.00688  -0.04326   0.01249  -0.01573
  28       12D 0        0.00017  -0.00011   0.00011  -0.00003  -0.00068
  29       12D+1        0.00569  -0.00201  -0.00549   0.00155  -0.00110
  30       12D-1       -0.00196  -0.00575   0.00156   0.00549   0.00040
  31       12D+2        0.00703   0.01905   0.01031   0.03484   0.00362
  32       12D-2       -0.01924   0.00660  -0.03422   0.00983  -0.00928
  33       13F 0        0.00000   0.00000  -0.00001   0.00000   0.00005
  34       13F+1       -0.00022   0.00008   0.00194  -0.00055   0.00209
  35       13F-1        0.00008   0.00024  -0.00054  -0.00192  -0.00076
  36       13F+2       -0.00022  -0.00060  -0.00003  -0.00012  -0.00012
  37       13F-2        0.00060  -0.00021   0.00010  -0.00004   0.00031
  38       13F+3       -0.00001  -0.00001  -0.00003  -0.00002  -0.00001
  39       13F-3       -0.00004   0.00001  -0.00006   0.00002   0.00006
  40       14F 0        0.00001   0.00001   0.00004   0.00002   0.00015
  41       14F+1       -0.00030   0.00013   0.00566  -0.00161   0.00680
  42       14F-1        0.00010   0.00036  -0.00158  -0.00559  -0.00247
  43       14F+2       -0.00129  -0.00364  -0.00001  -0.00012  -0.00115
  44       14F-2        0.00364  -0.00130   0.00009  -0.00005   0.00304
  45       14F+3       -0.00007  -0.00001  -0.00020  -0.00006  -0.00002
  46       14F-3        0.00001  -0.00002   0.00003   0.00000   0.00034
  47 2   H  1S         -0.02311  -0.06341  -0.04202  -0.14587  -0.01521
  48        2S         -0.02103  -0.05725  -0.04298  -0.14875  -0.01566
  49        3S          0.01994   0.05478   0.03326   0.11509   0.00133
  50        4S         -0.00180  -0.00538   0.00489   0.01680   0.00037
  51        5PX        -0.00202   0.00069  -0.00418   0.00118  -0.00098
  52        5PY        -0.00182  -0.00497  -0.00343  -0.01192  -0.00117
  53        5PZ         0.00000   0.00003  -0.00076  -0.00269   0.00013
  54        6PX        -0.00771   0.00268  -0.01302   0.00373  -0.00340
  55        6PY         0.00237   0.00676   0.00307   0.01078   0.00180
  56        6PZ        -0.00091  -0.00261   0.00015   0.00039  -0.00039
  57        7PX        -0.00880   0.00307  -0.01266   0.00364  -0.00254
  58        7PY         0.00483   0.01326   0.01262   0.04395   0.00305
  59        7PZ         0.00027   0.00061   0.00212   0.00733   0.00081
  60        8D 0        0.00015   0.00039   0.00038   0.00131   0.00014
  61        8D+1       -0.00002   0.00001  -0.00030   0.00008   0.00003
  62        8D-1       -0.00025  -0.00071  -0.00006  -0.00023  -0.00010
  63        8D+2        0.00021   0.00057   0.00052   0.00185   0.00016
  64        8D-2       -0.00101   0.00035  -0.00214   0.00061  -0.00055
  65        9D 0       -0.00017  -0.00049   0.00042   0.00143  -0.00006
  66        9D+1        0.00144  -0.00052  -0.00097   0.00026   0.00110
  67        9D-1       -0.00108  -0.00314   0.00095   0.00329  -0.00021
  68        9D+2       -0.00056  -0.00152  -0.00077  -0.00258  -0.00040
  69        9D-2       -0.00156   0.00056  -0.00272   0.00081  -0.00102
  70 3   H  1S          0.06758   0.01230   0.14647   0.03672   0.04632
  71        2S          0.06028   0.01087   0.14732   0.03689   0.04432
  72        3S         -0.05894  -0.01130  -0.11770  -0.03010  -0.00591
  73        4S          0.00552   0.00098  -0.01709  -0.00437  -0.00108
  74        5PX         0.00443   0.00186   0.00993   0.00472   0.00302
  75        5PY        -0.00296   0.00134  -0.00682   0.00228  -0.00191
  76        5PZ         0.00002   0.00000   0.00274   0.00067  -0.00011
  77        6PX        -0.00713   0.00274  -0.01130   0.00409  -0.00524
  78        6PY         0.00226   0.00755   0.00269   0.01299   0.00222
  79        6PZ         0.00276   0.00051  -0.00053  -0.00016   0.00120
  80        7PX        -0.01329   0.00228  -0.04009  -0.00322  -0.00858
  81        7PY         0.00543   0.00915   0.01901   0.01676   0.00434
  82        7PZ        -0.00077  -0.00016  -0.00749  -0.00188  -0.00312
  83        8D 0       -0.00041  -0.00007  -0.00130  -0.00033  -0.00039
  84        8D+1        0.00064   0.00013   0.00015   0.00020   0.00026
  85        8D-1       -0.00037  -0.00005  -0.00017   0.00025  -0.00014
  86        8D+2        0.00013   0.00095   0.00048   0.00212   0.00018
  87        8D-2       -0.00062   0.00045  -0.00185   0.00075  -0.00050
  88        9D 0        0.00049   0.00008  -0.00143  -0.00040   0.00014
  89        9D+1        0.00296  -0.00022  -0.00306  -0.00024   0.00046
  90        9D-1       -0.00134  -0.00162   0.00146   0.00125  -0.00001
  91        9D+2       -0.00110   0.00122  -0.00191   0.00205  -0.00069
  92        9D-2        0.00118   0.00105   0.00180   0.00196   0.00076
  93 4   H  1S         -0.04572   0.05108  -0.10549   0.10879  -0.02873
  94        2S         -0.04157   0.04607  -0.10767   0.11078  -0.02897
  95        3S          0.03863  -0.04401   0.08263  -0.08583   0.00259
  96        4S         -0.00373   0.00437   0.01209  -0.01250   0.00067
  97        5PX         0.00232  -0.00415   0.00594  -0.00922   0.00153
  98        5PY         0.00320  -0.00082   0.00702  -0.00180   0.00180
  99        5PZ        -0.00001  -0.00002  -0.00195   0.00201   0.00019
 100        6PX        -0.00722   0.00212  -0.01150   0.00225  -0.00438
 101        6PY         0.00297   0.00725   0.00451   0.01224   0.00075
 102        6PZ        -0.00183   0.00212   0.00029  -0.00028  -0.00071
 103        7PX        -0.01196   0.00620  -0.03228   0.02364  -0.00612
 104        7PY         0.00146   0.01059  -0.00752   0.02446  -0.00103
 105        7PZ         0.00049  -0.00051   0.00532  -0.00548   0.00170
 106        8D 0        0.00029  -0.00031   0.00095  -0.00098   0.00025
 107        8D+1        0.00042  -0.00050   0.00003  -0.00026   0.00017
 108        8D-1        0.00026  -0.00027   0.00028   0.00010   0.00007
 109        8D+2        0.00050   0.00082   0.00071   0.00204   0.00024
 110        8D-2       -0.00077   0.00005  -0.00197   0.00041  -0.00050
 111        9D 0       -0.00037   0.00042   0.00099  -0.00106  -0.00013
 112        9D+1        0.00245  -0.00168  -0.00246   0.00177   0.00076
 113        9D-1        0.00008  -0.00213  -0.00057   0.00183  -0.00062
 114        9D+2        0.00166   0.00032   0.00273   0.00079   0.00110
 115        9D-2        0.00032  -0.00158   0.00059  -0.00263   0.00019
 116 5   Cl 1S          0.00012  -0.00002   0.00010  -0.00001  -0.00023
 117        2S         -0.00045   0.00007  -0.00038   0.00004   0.00089
 118        3S          0.00100  -0.00016   0.00086  -0.00008  -0.00182
 119        4S          0.00014  -0.00002   0.00013  -0.00001  -0.00028
 120        5S          0.00052  -0.00008   0.00044  -0.00009  -0.00159
 121        6S         -0.00016  -0.00001  -0.00019  -0.00011  -0.00051
 122        7PX         0.00855  -0.00291   0.04101  -0.01187  -0.21017
 123        7PY        -0.00294  -0.00830  -0.01163  -0.04199   0.07659
 124        7PZ        -0.00026   0.00004  -0.00043   0.00005  -0.00075
 125        8PX        -0.02026   0.00689  -0.09697   0.02806   0.48082
 126        8PY         0.00697   0.01965   0.02748   0.09922  -0.17522
 127        8PZ         0.00062  -0.00009   0.00102  -0.00012   0.00175
 128        9PX        -0.00939   0.00319  -0.04482   0.01298   0.23226
 129        9PY         0.00323   0.00912   0.01270   0.04589  -0.08464
 130        9PZ         0.00027  -0.00004   0.00045  -0.00006   0.00086
 131       10PX        -0.01006   0.00344  -0.05224   0.01522   0.34554
 132       10PY         0.00345   0.00979   0.01477   0.05368  -0.12591
 133       10PZ         0.00046  -0.00004   0.00076  -0.00001   0.00192
 134       11PX        -0.00199   0.00071  -0.00306   0.00094   0.05835
 135       11PY         0.00068   0.00199   0.00084   0.00324  -0.02127
 136       11PZ         0.00008  -0.00001   0.00013   0.00003   0.00059
 137       12D 0       -0.00004   0.00001  -0.00005   0.00002   0.00010
 138       12D+1        0.00185  -0.00062   0.00591  -0.00168  -0.00024
 139       12D-1       -0.00064  -0.00178  -0.00168  -0.00596   0.00008
 140       12D+2        0.00004   0.00011   0.00016   0.00053   0.00008
 141       12D-2       -0.00011   0.00004  -0.00051   0.00015  -0.00023
 142       13D 0       -0.00008   0.00001  -0.00011   0.00001   0.00015
 143       13D+1        0.00285  -0.00096   0.01048  -0.00298  -0.00070
 144       13D-1       -0.00098  -0.00274  -0.00297  -0.01055   0.00025
 145       13D+2        0.00011   0.00030   0.00019   0.00063   0.00019
 146       13D-2       -0.00031   0.00011  -0.00061   0.00017  -0.00051
 147       14D 0       -0.00005  -0.00001  -0.00008  -0.00001  -0.00006
 148       14D+1       -0.00006   0.00002  -0.00006   0.00000  -0.00317
 149       14D-1        0.00002   0.00006   0.00003   0.00006   0.00114
 150       14D+2       -0.00022  -0.00062  -0.00002  -0.00007   0.00002
 151       14D-2        0.00061  -0.00022   0.00007  -0.00002  -0.00007
 152       15F 0        0.00002   0.00000   0.00002  -0.00001  -0.00002
 153       15F+1       -0.00086   0.00029  -0.00251   0.00071   0.00133
 154       15F-1        0.00030   0.00083   0.00071   0.00253  -0.00049
 155       15F+2       -0.00004  -0.00011  -0.00010  -0.00033  -0.00003
 156       15F-2        0.00011  -0.00004   0.00032  -0.00009   0.00009
 157       15F+3        0.00000   0.00000   0.00000   0.00000   0.00000
 158       15F-3        0.00000   0.00000   0.00000   0.00000   0.00000
 159       16F 0        0.00002   0.00000   0.00002   0.00000  -0.00003
 160       16F+1       -0.00058   0.00020  -0.00191   0.00055   0.00170
 161       16F-1        0.00020   0.00056   0.00053   0.00193  -0.00062
 162       16F+2        0.00000   0.00001   0.00005   0.00018  -0.00007
 163       16F-2       -0.00001   0.00001  -0.00018   0.00005   0.00019
 164       16F+3        0.00000   0.00000   0.00000   0.00000   0.00001
 165       16F-3        0.00000   0.00000   0.00000   0.00000   0.00000
 166 6   F  1S         -0.00012   0.00002  -0.00009   0.00001   0.00028
 167        2S          0.00032  -0.00006   0.00027  -0.00002  -0.00060
 168        3S          0.00010  -0.00002   0.00009  -0.00001  -0.00018
 169        4S          0.00023  -0.00003   0.00022  -0.00005  -0.00037
 170        5S         -0.00012   0.00002  -0.00009  -0.00006  -0.00011
 171        6PX        -0.31201   0.10873   0.15960  -0.04424   0.02099
 172        6PY         0.10848   0.31397  -0.04501  -0.15565  -0.00766
 173        6PZ        -0.00083   0.00004  -0.00148   0.00018  -0.00868
 174        7PX        -0.37220   0.12971   0.18926  -0.05245   0.02484
 175        7PY         0.12940   0.37453  -0.05338  -0.18455  -0.00906
 176        7PZ        -0.00100   0.00005  -0.00177   0.00022  -0.01035
 177        8PX        -0.30085   0.10487   0.15905  -0.04412   0.02127
 178        8PY         0.10460   0.30280  -0.04487  -0.15526  -0.00777
 179        8PZ        -0.00082   0.00004  -0.00146   0.00016  -0.00853
 180        9PX        -0.09451   0.03297   0.05593  -0.01554   0.01036
 181        9PY         0.03284   0.09517  -0.01580  -0.05477  -0.00379
 182        9PZ        -0.00025   0.00001  -0.00043   0.00004  -0.00266
 183       10D 0        0.00000   0.00000  -0.00001   0.00000  -0.00002
 184       10D+1       -0.00057   0.00020  -0.00008   0.00002  -0.00011
 185       10D-1        0.00020   0.00057   0.00002   0.00009   0.00004
 186       10D+2        0.00001   0.00002   0.00001   0.00003   0.00000
 187       10D-2       -0.00002   0.00001  -0.00003   0.00001  -0.00001
 188       11D 0       -0.00002   0.00000  -0.00003   0.00000  -0.00005
 189       11D+1       -0.00230   0.00079  -0.00114   0.00033  -0.00055
 190       11D-1        0.00080   0.00229   0.00032   0.00117   0.00020
 191       11D+2        0.00002   0.00005   0.00007   0.00024   0.00006
 192       11D-2       -0.00005   0.00002  -0.00024   0.00007  -0.00016
 193       12D 0       -0.00004   0.00000  -0.00006   0.00000  -0.00024
 194       12D+1       -0.00557   0.00195   0.00349  -0.00097  -0.00030
 195       12D-1        0.00193   0.00561  -0.00098  -0.00342   0.00011
 196       12D+2        0.00001   0.00003  -0.00008  -0.00027  -0.00013
 197       12D-2       -0.00003   0.00001   0.00027  -0.00008   0.00034
 198       13F 0        0.00000   0.00000   0.00000   0.00000   0.00000
 199       13F+1       -0.00021   0.00007  -0.00024   0.00007  -0.00006
 200       13F-1        0.00007   0.00021   0.00007   0.00024   0.00002
 201       13F+2        0.00002   0.00005   0.00003   0.00011   0.00002
 202       13F-2       -0.00005   0.00002  -0.00011   0.00003  -0.00006
 203       13F+3        0.00000   0.00000   0.00000   0.00000   0.00000
 204       13F-3        0.00000   0.00000   0.00000   0.00000   0.00000
 205       14F 0       -0.00001   0.00000  -0.00001   0.00000  -0.00005
 206       14F+1       -0.00136   0.00047   0.00086  -0.00024  -0.00001
 207       14F-1        0.00048   0.00138  -0.00024  -0.00084   0.00000
 208       14F+2       -0.00004  -0.00012  -0.00007  -0.00023  -0.00006
 209       14F-2        0.00012  -0.00005   0.00023  -0.00007   0.00015
 210       14F+3        0.00000   0.00000   0.00000   0.00000   0.00000
 211       14F-3        0.00000   0.00000   0.00000   0.00000   0.00000
                          16        17        18        19        20
     Eigenvalues --     1.94911   1.94881   1.93537   0.06017   0.02494
   1 1   C  1S          0.00025   0.05324  -0.01577  -0.02406  -0.00026
   2        2S         -0.00069  -0.15158   0.05090   0.06687   0.00094
   3        3S         -0.00016  -0.03579   0.01675   0.02430   0.00047
   4        4S         -0.00109  -0.29211   0.08714  -0.22243  -0.00132
   5        5S         -0.00009  -0.05765   0.03920  -0.02928  -0.00031
   6        6PX         0.02318  -0.00221   0.00012   0.00003   0.10419
   7        6PY         0.06395   0.00028  -0.00009   0.00011   0.11343
   8        6PZ        -0.00028  -0.04567  -0.12869   0.27929  -0.00003
   9        7PX         0.03223  -0.00312   0.00027  -0.00011   0.19314
  10        7PY         0.08885   0.00040  -0.00014   0.00021   0.21055
  11        7PZ        -0.00040  -0.06474  -0.18053   0.44321  -0.00013
  12        8PX         0.02474  -0.00231   0.00033   0.00018   0.08910
  13        8PY         0.06850   0.00052  -0.00013   0.00025   0.09648
  14        8PZ        -0.00039  -0.06425  -0.07666   0.20196   0.00017
  15        9PX         0.00417  -0.00032   0.00002   0.00001   0.02031
  16        9PY         0.01156   0.00012  -0.00005  -0.00004   0.02146
  17        9PZ         0.00000  -0.00123  -0.00167  -0.00005  -0.00002
  18       10D 0        0.00005   0.00934  -0.01105  -0.00884   0.00000
  19       10D+1       -0.00128   0.00010   0.00000  -0.00005   0.01744
  20       10D-1       -0.00350  -0.00001  -0.00001   0.00001   0.01865
  21       10D+2        0.00473  -0.00002   0.00004   0.00000   0.00275
  22       10D-2        0.00172  -0.00018   0.00003  -0.00002   0.00276
  23       11D 0        0.00024   0.04978  -0.04570   0.06673   0.00021
  24       11D+1       -0.00530   0.00046  -0.00003   0.00000   0.04098
  25       11D-1       -0.01452   0.00001  -0.00002   0.00000   0.04373
  26       11D+2        0.01608  -0.00015   0.00013  -0.00028   0.05122
  27       11D-2        0.00587  -0.00076   0.00017  -0.00026   0.04742
  28       12D 0        0.00021   0.02815  -0.00377  -0.01705   0.00016
  29       12D+1        0.00041  -0.00007   0.00013  -0.00013   0.01269
  30       12D-1        0.00111  -0.00003   0.00011  -0.00013   0.01390
  31       12D+2        0.00958  -0.00024   0.00014  -0.00044   0.01080
  32       12D-2        0.00343  -0.00062   0.00017  -0.00031   0.00933
  33       13F 0       -0.00001  -0.00207  -0.00329  -0.00585   0.00004
  34       13F+1       -0.00077   0.00006   0.00000   0.00001  -0.00649
  35       13F-1       -0.00210  -0.00001   0.00000   0.00000  -0.00703
  36       13F+2       -0.00031  -0.00001   0.00000   0.00005   0.00228
  37       13F-2       -0.00011   0.00002  -0.00001   0.00005   0.00213
  38       13F+3       -0.00001   0.00002  -0.00001   0.00000   0.00001
  39       13F-3       -0.00001  -0.00306   0.00114  -0.00051   0.00002
  40       14F 0       -0.00002  -0.00548  -0.00087   0.01160   0.00011
  41       14F+1       -0.00249   0.00015  -0.00001   0.00006  -0.00169
  42       14F-1       -0.00682  -0.00008   0.00001   0.00000  -0.00188
  43       14F+2       -0.00305   0.00004  -0.00001  -0.00008  -0.00164
  44       14F-2       -0.00113   0.00015  -0.00003  -0.00004  -0.00140
  45       14F+3        0.00000   0.00012  -0.00007   0.00030   0.00005
  46       14F-3       -0.00005  -0.01503   0.00918  -0.03777  -0.00016
  47 2   H  1S         -0.04418  -0.03388   0.02878  -0.00682   0.02954
  48        2S         -0.04343  -0.00331   0.02272   0.07999   0.18924
  49        3S          0.00525   0.02186   0.02023   0.06841   0.12081
  50        4S          0.00104   0.00021   0.00186   0.00715   0.05245
  51        5PX         0.00036  -0.00003   0.00000  -0.00001   0.00183
  52        5PY        -0.00340  -0.00216   0.00248  -0.00200  -0.00643
  53        5PZ         0.00015  -0.00268  -0.00321   0.01430  -0.00892
  54        6PX         0.00130  -0.00014   0.00001   0.00012   0.00498
  55        6PY         0.00528   0.00549  -0.00153   0.00981   0.04328
  56        6PZ        -0.00112  -0.00098  -0.01028   0.02810  -0.00414
  57        7PX         0.00095  -0.00028   0.00013  -0.00018  -0.00160
  58        7PY         0.00922   0.01110  -0.00166   0.01278   0.03704
  59        7PZ         0.00281   0.00803   0.00325  -0.01411   0.00395
  60        8D 0        0.00038   0.00014  -0.00084   0.00060   0.00188
  61        8D+1       -0.00001   0.00000   0.00000   0.00001   0.00122
  62        8D-1       -0.00028  -0.00020  -0.00171   0.00672  -0.00291
  63        8D+2        0.00050   0.00053  -0.00061   0.00186   0.00190
  64        8D-2        0.00021  -0.00002   0.00000   0.00000   0.00139
  65        9D 0       -0.00015   0.00081  -0.00282   0.00597  -0.00242
  66        9D+1       -0.00041   0.00006  -0.00001  -0.00004   0.00308
  67        9D-1       -0.00042   0.00203  -0.00055  -0.00588   0.01129
  68        9D+2       -0.00101   0.00110   0.00035  -0.00110  -0.00695
  69        9D-2        0.00039  -0.00006   0.00002  -0.00001   0.00078
  70 3   H  1S          0.00786  -0.03234   0.02876  -0.00683   0.00807
  71        2S          0.00770  -0.00151   0.02252   0.08014   0.05533
  72        3S         -0.00108   0.02204   0.02031   0.06938   0.03603
  73        4S         -0.00022   0.00013   0.00191   0.00722   0.01674
  74        5PX         0.00104  -0.00179   0.00217  -0.00181  -0.00041
  75        5PY         0.00063   0.00101  -0.00124   0.00102   0.00340
  76        5PZ        -0.00004  -0.00269  -0.00325   0.01446  -0.00287
  77        6PX         0.00098   0.00452  -0.00127   0.00830   0.01460
  78        6PY         0.00371  -0.00257   0.00066  -0.00435   0.00023
  79        6PZ         0.00021  -0.00091  -0.01035   0.02812  -0.00139
  80        7PX        -0.00003   0.00921  -0.00126   0.01099   0.00897
  81        7PY         0.00323  -0.00555   0.00089  -0.00660  -0.00714
  82        7PZ        -0.00045   0.00805   0.00327  -0.01432   0.00095
  83        8D 0       -0.00007   0.00013  -0.00085   0.00063   0.00059
  84        8D+1        0.00003  -0.00017  -0.00150   0.00589   0.00007
  85        8D-1       -0.00005   0.00010   0.00085  -0.00331   0.00200
  86        8D+2        0.00055  -0.00027   0.00031  -0.00098   0.00145
  87        8D-2        0.00024   0.00045  -0.00052   0.00166   0.00161
  88        9D 0        0.00000   0.00082  -0.00285   0.00606  -0.00069
  89        9D+1       -0.00050   0.00180  -0.00047  -0.00529   0.00522
  90        9D-1       -0.00106  -0.00095   0.00025   0.00294   0.00199
  91        9D+2        0.00085  -0.00062  -0.00015   0.00056   0.00198
  92        9D-2        0.00072   0.00096   0.00030  -0.00095  -0.00109
  93 4   H  1S          0.03569  -0.03503   0.02899  -0.00686  -0.03863
  94        2S          0.03521  -0.00427   0.02285   0.08042  -0.24524
  95        3S         -0.00406   0.02242   0.02009   0.06913  -0.15581
  96        4S         -0.00085   0.00006   0.00197   0.00728  -0.06902
  97        5PX        -0.00272   0.00192  -0.00216   0.00175  -0.00766
  98        5PY        -0.00078   0.00114  -0.00125   0.00101  -0.00341
  99        5PZ        -0.00015  -0.00267  -0.00321   0.01429   0.01167
 100        6PX         0.00251  -0.00503   0.00141  -0.00867   0.04740
 101        6PY         0.00424  -0.00275   0.00075  -0.00480   0.03002
 102        6PZ         0.00089  -0.00110  -0.01028   0.02832   0.00550
 103        7PX         0.00548  -0.00983   0.00148  -0.01087   0.04179
 104        7PY         0.00531  -0.00568   0.00088  -0.00644   0.02389
 105        7PZ        -0.00222   0.00819   0.00307  -0.01393  -0.00498
 106        8D 0       -0.00031   0.00016  -0.00085   0.00061  -0.00244
 107        8D+1       -0.00018   0.00019   0.00148  -0.00583  -0.00358
 108        8D-1       -0.00013   0.00011   0.00085  -0.00336  -0.00145
 109        8D+2        0.00053  -0.00025   0.00030  -0.00092   0.00180
 110        8D-2        0.00015  -0.00047   0.00053  -0.00162   0.00181
 111        9D 0        0.00011   0.00083  -0.00283   0.00600   0.00313
 112        9D+1        0.00006  -0.00173   0.00047   0.00509   0.01218
 113        9D-1       -0.00084  -0.00099   0.00026   0.00293   0.00848
 114        9D+2        0.00022  -0.00050  -0.00019   0.00059  -0.00417
 115        9D-2       -0.00108  -0.00091  -0.00032   0.00101  -0.00792
 116 5   Cl 1S          0.00005   0.01020   0.00051  -0.01679  -0.00001
 117        2S         -0.00020  -0.03893  -0.00170   0.05629   0.00002
 118        3S          0.00041   0.08045   0.01131  -0.15673  -0.00004
 119        4S          0.00006   0.01241   0.00453  -0.03986  -0.00001
 120        5S          0.00029   0.06898   0.01225  -0.04592  -0.00018
 121        6S          0.00004   0.02043  -0.01255   0.01596  -0.00005
 122        7PX         0.07655  -0.00548   0.00001  -0.00005   0.01434
 123        7PY         0.21007   0.00079  -0.00013  -0.00008   0.01539
 124        7PZ         0.00002   0.02661  -0.21014  -0.16342  -0.00013
 125        8PX        -0.17511   0.01253  -0.00001   0.00010  -0.02235
 126        8PY        -0.48058  -0.00180   0.00029   0.00017  -0.02398
 127        8PZ        -0.00004  -0.06215   0.46466   0.36066   0.00031
 128        9PX        -0.08459   0.00605  -0.00001   0.00006  -0.02383
 129        9PY        -0.23215  -0.00087   0.00014   0.00011  -0.02557
 130        9PZ        -0.00003  -0.03099   0.21830   0.20650   0.00018
 131       10PX        -0.12588   0.00907  -0.00007   0.00003   0.01148
 132       10PY        -0.34544  -0.00130   0.00017   0.00006   0.01224
 133       10PZ        -0.00014  -0.07216   0.31777   0.02921  -0.00006
 134       11PX        -0.02127   0.00155  -0.00003   0.00000   0.00401
 135       11PY        -0.05839  -0.00023   0.00004   0.00000   0.00433
 136       11PZ        -0.00007  -0.02398   0.04618   0.00724  -0.00006
 137       12D 0       -0.00002  -0.00472  -0.01241   0.06750   0.00031
 138       12D+1        0.00008   0.00001  -0.00002   0.00003  -0.03951
 139       12D-1        0.00020  -0.00001  -0.00001   0.00005  -0.04235
 140       12D+2        0.00023   0.00000   0.00000   0.00001   0.00069
 141       12D-2        0.00009  -0.00001   0.00000   0.00000   0.00072
 142       13D 0       -0.00004  -0.00753  -0.01944   0.09793   0.00043
 143       13D+1        0.00024   0.00001  -0.00003   0.00006  -0.05901
 144       13D-1        0.00064  -0.00002  -0.00001   0.00007  -0.06321
 145       13D+2        0.00053   0.00000   0.00000   0.00001   0.00107
 146       13D-2        0.00019  -0.00002   0.00000   0.00001   0.00113
 147       14D 0        0.00000   0.00154  -0.01323   0.03015   0.00005
 148       14D+1        0.00116  -0.00009   0.00000   0.00001  -0.00648
 149       14D-1        0.00314   0.00001   0.00000  -0.00001  -0.00686
 150       14D+2        0.00006   0.00000   0.00000   0.00003   0.00023
 151       14D-2        0.00003   0.00000   0.00000   0.00002   0.00025
 152       15F 0        0.00001   0.00098   0.00459  -0.00358  -0.00002
 153       15F+1       -0.00048   0.00003   0.00001   0.00000   0.00338
 154       15F-1       -0.00132   0.00000   0.00001  -0.00001   0.00363
 155       15F+2       -0.00010   0.00000   0.00000   0.00000  -0.00015
 156       15F-2       -0.00004   0.00000   0.00000   0.00000  -0.00015
 157       15F+3        0.00000   0.00000   0.00000   0.00000   0.00000
 158       15F-3        0.00000  -0.00007   0.00004   0.00004   0.00000
[...]
  79        6PZ        -0.33038  -0.00411   0.03970  -0.16387  -0.10647
  80        7PX         1.35015  -3.19899   9.37066  -1.68579  -5.49573
  81        7PY        -0.13504 -10.02167  -2.59189   1.05036  -0.01176
  82        7PZ        -1.45701   0.70817   3.30067   0.03968  -0.52005
  83        8D 0       -0.03794  -0.00247  -0.01348   0.02554   0.01254
  84        8D+1        0.00980  -0.01544   0.02715   0.00823   0.01013
  85        8D-1       -0.00383  -0.03887  -0.00454  -0.00387  -0.00074
  86        8D+2        0.06254   0.10299  -0.01665   0.02461   0.00543
  87        8D-2       -0.11153   0.05529  -0.02460  -0.04019   0.03418
  88        9D 0       -0.49189  -0.10975  -0.47201  -0.15163   0.16420
  89        9D+1       -0.22276   0.22217   0.12679  -0.03501  -0.18373
  90        9D-1        0.10818   0.31513  -0.17686   0.01489   0.02148
  91        9D+2       -0.04602  -1.37656   1.03314  -0.34736  -0.47640
  92        9D-2        0.25188  -1.17151  -0.94332   0.62245  -0.07188
  93 4   H  1S         -0.03298  -0.00688   0.00753  -0.00959   0.00911
  94        2S          0.01421   2.51653  -2.37126  -0.51727  -0.79048
  95        3S          6.15063  20.70835 -19.33225  -3.08179  -9.28164
  96        4S          1.56252  -1.33944   1.30838  -1.87532  -4.03459
  97        5PX        -0.02789   0.03206  -0.10429  -0.08010  -0.06083
  98        5PY        -0.01806   0.10300   0.03044  -0.04724   0.02036
  99        5PZ         0.05990   0.00989  -0.00839   0.03167   0.00396
 100        6PX        -0.50241  -1.01261   1.98835   0.59311   0.64625
 101        6PY        -0.26700  -1.75948  -0.10752   0.35186  -0.17618
 102        6PZ        -0.33903   0.00909  -0.01360  -0.16851  -0.06058
 103        7PX        -0.90337  -2.50090   9.64709   1.67911   3.94275
 104        7PY        -0.35302  -9.81177  -3.36873   1.01171  -1.43595
 105        7PZ        -1.70141   2.36828  -2.26675  -0.00381  -0.28637
 106        8D 0       -0.03603  -0.00682   0.00772   0.02383   0.00687
 107        8D+1       -0.01020  -0.00094   0.03053  -0.00836  -0.00756
 108        8D-1       -0.00509  -0.03425  -0.01772  -0.00454   0.00194
 109        8D+2        0.06187   0.07373   0.07255   0.02579   0.01703
 110        8D-2        0.11004  -0.03640  -0.04894   0.04405  -0.02572
 111        9D 0       -0.49605  -0.36427   0.34265  -0.15111   0.09097
 112        9D+1        0.23525  -0.25034  -0.02891   0.04035   0.12746
 113        9D-1        0.12953   0.16237   0.30902   0.02290  -0.02621
 114        9D+2       -0.11162  -0.60863  -1.64203  -0.35059  -0.51133
 115        9D-2       -0.25237   1.49048  -0.13830  -0.62624   0.17428
 116 5   Cl 1S          0.02028   0.00065  -0.00030   0.01181   0.00014
 117        2S          0.28043   0.00878  -0.00402   0.16420   0.00224
 118        3S          0.78215   0.02510  -0.01157   0.46133   0.00579
 119        4S         -0.04181  -0.00043   0.00002  -0.01481  -0.00090
 120        5S         -4.35173  -0.14922   0.06602  -3.02752  -0.03460
 121        6S         -9.83443  -0.35810   0.19202 -13.27624  -0.07767
 122        7PX         0.00000   0.00023  -0.00084   0.00002   0.00050
 123        7PY         0.00008   0.00075   0.00025   0.00012  -0.00298
 124        7PZ        -0.00462  -0.00041   0.00032  -0.02279  -0.00013
 125        8PX        -0.00002   0.00566  -0.01866   0.00045   0.00971
 126        8PY         0.00105   0.01751   0.00507   0.00208  -0.05905
 127        8PZ        -0.06549  -0.00550   0.00408  -0.31862  -0.00158
 128        9PX         0.00006  -0.00109   0.00413  -0.00009  -0.00172
 129        9PY        -0.00028  -0.00373  -0.00124  -0.00043   0.01001
 130        9PZ         0.00202   0.00096  -0.00093   0.07976   0.00046
 131       10PX        -0.01146  -0.02633   0.06656  -0.00238  -0.06735
 132       10PY        -0.00628  -0.06749  -0.01347  -0.01062   0.41847
 133       10PZ         5.92141   0.21628  -0.10954   5.09378   0.03757
 134       11PX         0.02392  -0.33878   1.10871   0.00564   0.03471
 135       11PY         0.02586  -1.09933  -0.32001   0.00108  -0.24117
 136       11PZ         0.79881   0.02909  -0.01870   3.36837   0.01996
 137       12D 0        0.06815   0.00239  -0.00110   0.00178  -0.00001
 138       12D+1       -0.00100   0.00898  -0.02983  -0.00015   0.00075
 139       12D-1       -0.00062   0.02930   0.00865   0.00011  -0.00376
 140       12D+2        0.00079  -0.00683  -0.00233   0.00015   0.01217
 141       12D-2        0.00113  -0.00194   0.00706   0.00011  -0.00181
 142       13D 0       -0.38845  -0.01307   0.00612  -0.07061  -0.00037
 143       13D+1        0.00396  -0.03281   0.11002   0.00027  -0.00478
 144       13D-1        0.00199  -0.10747  -0.03203  -0.00094   0.02590
 145       13D+2       -0.00215   0.01521   0.00533  -0.00040  -0.04381
 146       13D-2       -0.00324   0.00421  -0.01585  -0.00038   0.00650
 147       14D 0       -1.39776  -0.05378   0.02854  -1.24741  -0.00793
 148       14D+1       -0.00252   0.09416  -0.29558   0.00033   0.05221
 149       14D-1       -0.00240   0.29280   0.08120   0.00840  -0.32260
 150       14D+2        0.00196  -0.06200  -0.01680  -0.00051   0.19944
 151       14D-2        0.00188  -0.02071   0.06031   0.00212  -0.02961
 152       15F 0       -0.04311  -0.00175   0.00110   0.00118   0.00006
 153       15F+1        0.00000   0.00134  -0.00420   0.00024   0.00284
 154       15F-1       -0.00002   0.00403   0.00111   0.00063  -0.01834
 155       15F+2        0.00021  -0.00965  -0.00268  -0.00011   0.01009
 156       15F-2       -0.00001  -0.00313   0.00926   0.00039  -0.00153
 157       15F+3        0.00006  -0.00004  -0.00021  -0.00018   0.00014
 158       15F-3       -0.00932  -0.00076   0.00007   0.02297   0.00014
 159       16F 0        0.23375   0.00926  -0.00496   0.08963   0.00011
 160       16F+1       -0.00039  -0.00516   0.01364  -0.00053  -0.00960
 161       16F-1       -0.00010  -0.01378  -0.00300  -0.00206   0.06238
 162       16F+2       -0.00098   0.04487   0.01263   0.00041  -0.04161
 163       16F-2       -0.00027   0.01453  -0.04366  -0.00114   0.00624
 164       16F+3       -0.00013   0.00006   0.00042   0.00034  -0.00033
 165       16F-3        0.01930   0.00173  -0.00020  -0.04294  -0.00030
 166 6   F  1S          0.04008   0.00116  -0.00032  -0.02254   0.00026
 167        2S          0.14094   0.00379  -0.00086  -0.08557   0.00115
 168        3S         -0.07192  -0.00231   0.00076   0.03654  -0.00022
 169        4S         -0.37970  -0.00932   0.00212  -0.02172  -0.00682
 170        5S         -0.04530   0.02669  -0.00057  -5.93208  -0.03845
 171        6PX         0.00021  -0.00212   0.00702   0.00000  -0.00029
 172        6PY         0.00022  -0.00687  -0.00202  -0.00002   0.00172
 173        6PZ         0.00542   0.00036  -0.00021   0.00223   0.00002
 174        7PX        -0.00086   0.01111  -0.03617   0.00000   0.00106
 175        7PY        -0.00109   0.03552   0.01028   0.00007  -0.00624
 176        7PZ        -0.06400  -0.00313   0.00160   0.00258  -0.00005
 177        8PX         0.00427  -0.07840   0.25203   0.00054  -0.00047
 178        8PY         0.00729  -0.24957  -0.07134   0.00052   0.00205
 179        8PZ         0.63118   0.02980  -0.01306  -0.24642  -0.00340
 180        9PX         0.00610  -0.24964   0.81064   0.00102   0.03387
 181        9PY         0.01478  -0.80619  -0.23291  -0.00144  -0.22484
 182        9PZ        -0.85720  -0.02954   0.01795  -2.49071  -0.01546
 183       10D 0        0.01142   0.00023  -0.00012  -0.00796  -0.00001
 184       10D+1        0.00007  -0.00441   0.01427  -0.00009  -0.00038
 185       10D-1        0.00016  -0.01409  -0.00405  -0.00021   0.00225
 186       10D+2       -0.00016   0.00458   0.00146  -0.00003   0.00283
 187       10D-2       -0.00027   0.00139  -0.00472  -0.00002  -0.00046
 188       11D 0       -0.04221  -0.00093   0.00056   0.01568  -0.00008
 189       11D+1       -0.00018   0.01418  -0.04585   0.00028   0.00073
 190       11D-1       -0.00053   0.04525   0.01300   0.00060  -0.00403
 191       11D+2        0.00072  -0.01546  -0.00503   0.00018  -0.00997
 192       11D-2        0.00112  -0.00461   0.01593   0.00011   0.00159
 193       12D 0        0.41785   0.01457  -0.00712  -0.01092   0.00024
 194       12D+1       -0.00026  -0.04231   0.13186  -0.00038   0.00492
 195       12D-1        0.00238  -0.13059  -0.03604  -0.00072  -0.03053
 196       12D+2       -0.00290   0.05810   0.01938  -0.00051   0.01867
 197       12D-2       -0.00443   0.01676  -0.05959  -0.00036  -0.00295
 198       13F 0       -0.02741  -0.00096   0.00056  -0.00761  -0.00008
 199       13F+1        0.00021  -0.00545   0.01808   0.00010  -0.00128
 200       13F-1        0.00029  -0.01815  -0.00536  -0.00005   0.00797
 201       13F+2        0.00019  -0.00856  -0.00274  -0.00016   0.00271
 202       13F-2        0.00026  -0.00256   0.00869  -0.00011  -0.00040
 203       13F+3       -0.00009   0.00006   0.00038   0.00001   0.00003
 204       13F-3        0.01258   0.00011  -0.00003  -0.00143  -0.00016
 205       14F 0        0.06842   0.00229  -0.00134   0.01189   0.00015
 206       14F+1       -0.00078   0.01152  -0.03920  -0.00018   0.00290
 207       14F-1       -0.00076   0.03918   0.01186   0.00010  -0.01767
 208       14F+2       -0.00052   0.02398   0.00765   0.00026  -0.00650
 209       14F-2       -0.00072   0.00713  -0.02416   0.00015   0.00099
 210       14F+3        0.00013  -0.00010  -0.00062  -0.00002  -0.00007
 211       14F-3       -0.01691  -0.00008  -0.00001   0.00270   0.00030
                         211
     Eigenvalues --     0.00000
   1 1   C  1S         -0.00120
   2        2S         -0.00744
   3        3S         -0.00045
   4        4S         -0.00360
   5        5S          0.03446
   6        6PX        -0.00784
   7        6PY        -0.00115
   8        6PZ         0.00005
   9        7PX         1.55018
  10        7PY         0.22503
  11        7PZ         0.00089
  12        8PX        17.22170
  13        8PY         2.65990
  14        8PZ         0.01492
  15        9PX         7.82419
  16        9PY         1.23997
  17        9PZ         0.00835
  18       10D 0        0.00055
  19       10D+1       -0.00201
  20       10D-1       -0.00028
  21       10D+2        0.00290
  22       10D-2        0.02200
  23       11D 0        0.00277
  24       11D+1       -0.20817
  25       11D-1       -0.02960
  26       11D+2        0.04637
  27       11D-2        0.42469
  28       12D 0        0.05520
  29       12D+1       -1.27198
  30       12D-1       -0.20081
  31       12D+2       -0.11969
  32       12D-2       -0.58409
  33       13F 0       -0.00017
  34       13F+1        0.03740
  35       13F-1        0.00622
  36       13F+2        0.00146
  37       13F-2        0.00935
  38       13F+3       -0.00048
  39       13F-3       -0.00136
  40       14F 0       -0.00175
  41       14F+1       -0.40265
  42       14F-1       -0.06321
  43       14F+2       -0.00980
  44       14F-2       -0.07907
  45       14F+3        0.00194
  46       14F-3        0.01075
  47 2   H  1S         -0.00459
  48        2S          0.32290
  49        3S          3.80282
  50        4S          1.69022
  51        5PX         0.05045
  52        5PY        -0.01700
  53        5PZ        -0.00145
  54        6PX        -0.50548
  55        6PY         0.19074
  56        6PZ         0.02365
  57        7PX        -3.44523
  58        7PY         1.06282
  59        7PZ         0.11724
  60        8D 0       -0.00287
  61        8D+1        0.00552
  62        8D-1       -0.00240
  63        8D+2       -0.00657
  64        8D-2        0.02791
  65        9D 0       -0.04226
  66        9D+1       -0.09103
  67        9D-1        0.04098
  68        9D+2       -0.03141
  69        9D-2       -0.55679
  70 3   H  1S         -0.02279
  71        2S          1.80933
  72        3S         20.44225
  73        4S          8.74237
  74        5PX        -0.06213
  75        5PY         0.07270
  76        5PZ        -0.00835
  77        6PX         0.75533
  78        6PY        -0.80219
  79        6PZ         0.13342
  80        7PX         3.95200
  81        7PY        -4.80640
  82        7PZ         0.64175
  83        8D 0       -0.01552
  84        8D+1       -0.00785
  85        8D-1        0.00873
  86        8D+2        0.03331
  87        8D-2       -0.02040
  88        9D 0       -0.21193
  89        9D+1        0.15624
  90        9D-1       -0.15711
  91        9D+2       -0.20018
  92        9D-2       -0.36109
  93 4   H  1S          0.02475
  94        2S         -2.09810
  95        3S        -24.17394
  96        4S        -10.44243
  97        5PX        -0.08588
  98        5PY        -0.07090
  99        5PZ         0.01042
 100        6PX         0.98574
 101        6PY         0.77801
 102        6PZ        -0.16149
 103        7PX         5.39990
 104        7PY         4.56054
 105        7PZ        -0.75756
 106        8D 0        0.01761
 107        8D+1       -0.01093
 108        8D-1       -0.00881
 109        8D+2       -0.02793
 110        8D-2       -0.02744
 111        9D 0        0.24570
 112        9D+1        0.20454
 113        9D-1        0.15751
 114        9D+2        0.04280
 115        9D-2       -0.32839
 116 5   Cl 1S          0.00012
 117        2S          0.00182
 118        3S          0.00461
 119        4S         -0.00093
 120        5S         -0.03048
 121        6S         -0.04511
 122        7PX        -0.00290
 123        7PY        -0.00043
 124        7PZ        -0.00002
 125        8PX        -0.05771
 126        8PY        -0.00872
 127        8PZ        -0.00015
 128        9PX         0.00976
 129        9PY         0.00140
 130        9PZ         0.00009
 131       10PX         0.41318
 132       10PY         0.06387
 133       10PZ         0.02357
 134       11PX        -0.25153
 135       11PY        -0.04292
 136       11PZ         0.00910
 137       12D 0       -0.00002
 138       12D+1       -0.00342
 139       12D-1       -0.00038
 140       12D+2        0.00180
 141       12D-2        0.01193
 142       13D 0       -0.00005
 143       13D+1        0.02442
 144       13D-1        0.00316
 145       13D+2       -0.00650
 146       13D-2       -0.04309
 147       14D 0       -0.00358
 148       14D+1       -0.31554
 149       14D-1       -0.04845
 150       14D+2        0.02985
 151       14D-2        0.19794
 152       15F 0        0.00011
 153       15F+1       -0.01796
 154       15F-1       -0.00289
 155       15F+2        0.00150
 156       15F-2        0.01017
 157       15F+3       -0.00022
 158       15F-3        0.00000
 159       16F 0       -0.00038
 160       16F+1        0.06090
 161       16F-1        0.00984
 162       16F+2       -0.00620
 163       16F-2       -0.04148
 164       16F+3        0.00048
 165       16F-3        0.00003
 166 6   F  1S          0.00016
 167        2S          0.00071
 168        3S         -0.00015
 169        4S         -0.00473
 170        5S         -0.03049
 171        6PX         0.00168
 172        6PY         0.00024
 173        6PZ        -0.00003
 174        7PX        -0.00602
 175        7PY        -0.00087
 176        7PZ         0.00011
 177        8PX         0.00066
 178        8PY        -0.00004
 179        8PZ        -0.00206
 180        9PX        -0.23003
 181        9PY        -0.03778
 182        9PZ        -0.01135
 183       10D 0       -0.00003
 184       10D+1        0.00206
 185       10D-1        0.00030
 186       10D+2        0.00038
 187       10D-2        0.00277
 188       11D 0        0.00001
 189       11D+1       -0.00346
 190       11D-1       -0.00046
 191       11D+2       -0.00138
 192       11D-2       -0.00983
 193       12D 0        0.00051
 194       12D+1       -0.03243
 195       12D-1       -0.00501
 196       12D+2        0.00264
 197       12D-2        0.01859
 198       13F 0       -0.00007
 199       13F+1        0.00796
 200       13F-1        0.00123
 201       13F+2        0.00039
 202       13F-2        0.00252
 203       13F+3       -0.00004
 204       13F-3       -0.00007
 205       14F 0        0.00014
 206       14F+1       -0.01771
 207       14F-1       -0.00268
 208       14F+2       -0.00091
 209       14F-2       -0.00618
 210       14F+3        0.00006
 211       14F-3        0.00013
          Condensed to atoms (all electrons):
              1          2          3          4          5          6
     1  C    7.018775  -0.009416  -0.013054  -0.009482  -0.050853  -0.099868
     2  H   -0.009416   0.547409   0.021167   0.019528  -0.018543   0.004241
     3  H   -0.013054   0.021167   0.547387   0.019671  -0.018689   0.004533
     4  H   -0.009482   0.019528   0.019671   0.547228  -0.018699   0.004458
     5  Cl  -0.050853  -0.018543  -0.018689  -0.018699  17.708975   0.026384
     6  F   -0.099868   0.004241   0.004533   0.004458   0.026384   9.907470
 Mulliken atomic charges:
              1
     1  C   -0.836103
     2  H    0.435613
     3  H    0.438984
     4  H    0.437298
     5  Cl  -0.628575
     6  F   -0.847218
 Sum of Mulliken atomic charges =  -1.00000
 Mulliken charges with hydrogens summed into heavy atoms:
              1
     1  C    0.475793
     5  Cl  -0.628575
     6  F   -0.847218
 Sum of Mulliken charges with hydrogens summed into heavy atoms =  -1.00000
 Electronic spatial extent (au):  <R**2>=            490.2686
 Charge=             -1.0000 electrons
 Dipole moment (field-independent basis, Debye):
    X=             -0.0014    Y=             -0.0020    Z=              4.0672  Tot=              4.0672
 Quadrupole moment (field-independent basis, Debye-Ang):
   XX=            -28.1686   YY=            -28.1913   ZZ=            -62.8133
   XY=              0.0107   XZ=             -0.0034   YZ=             -0.0120
 Traceless Quadrupole moment (field-independent basis, Debye-Ang):
   XX=             11.5558   YY=             11.5331   ZZ=            -23.0889
   XY=              0.0107   XZ=             -0.0034   YZ=             -0.0120
 Octapole moment (field-independent basis, Debye-Ang**2):
  XXX=             -0.0346  YYY=             -0.9500  ZZZ=             49.6843  XYY=             -0.0017
  XXY=              0.9418  XXZ=             -4.2427  XZZ=             -0.0053  YZZ=              0.0184
  YYZ=             -4.2282  XYZ=             -0.0073
 Hexadecapole moment (field-independent basis, Debye-Ang**3):
 XXXX=            -41.2203 YYYY=            -41.2341 ZZZZ=           -761.5891 XXXY=             -0.0094
 XXXZ=             -0.0415 YYYX=             -0.0097 YYYZ=              0.4994 ZZZX=             -0.0588
 ZZZY=             -0.2066 XXYY=            -13.7548 XXZZ=           -103.3712 YYZZ=           -103.3776
 XXYZ=             -0.6778 YYXZ=             -0.0204 ZZXY=             -0.0028
 N-N= 8.500500894775D+01 E-N=-1.604226094483D+03  KE= 5.992028610377D+02
 1\1\GINC-TRAPISTA\SP\RQCISD-FC\Aug-CC-pVTZ\C1H3Cl1F1(1-)\BRUNS\10-Aug-
 2021\0\\# QCISD aug-cc-pvtz nosymm density=current output=wfn\\title l
 ine\\-1,1\C,0,0.000175,0.000029,-0.497709\H,0,0.000019,-1.05257,-0.620
 726\H,0,-0.911312,0.516365,-0.621245\H,0,0.91175,0.526132,-0.62157\Cl,
 0,0.000555,0.000962,1.644718\F,0,-0.000186,-0.000921,-2.59346\\Version
 =EM64L-G09RevB.01\HF=-598.6170982\MP2=-599.2911675\MP3=-599.3098746\MP
 4D=-599.3247552\MP4DQ=-599.3103232\MP4SDQ=-599.3196836\QCISD=-599.3190
 649\RMSD=9.438e-09\Dipole=-0.0000673,-0.0008879,1.5876859\Quadrupole=8
 .5914591,8.5746034,-17.1660624,0.0079331,-0.0025363,-0.0089574\PG=C01 
 [X(C1H3Cl1F1)]\\@

 Writing a WFN file to GAUSSIAN-YH_3.wfn.


 STEINBACH'S GUIDELINES FOR SYSTEMS PROGRAMMING:
 NEVER TEST FOR AN ERROR CONDITION YOU DON'T KNOW HOW
 TO HANDLE.
 Job cpu time:  0 days  6 hours 54 minutes 26.3 seconds.
 File lengths (MBytes):  RWF=  29002 Int=      0 D2E=      0 Chk=      4 Scr=      1
 Normal termination of Gaussian 09 at Tue Aug 10 20:15:52 2021.
