 Entering Gaussian System, Link 0=/home/bruns/programas/chemistry/gaussian/g09/g09
 Input=GAUSSIAN-XH_3.com
 Output=GAUSSIAN-XH_3.log
 Initial command:
 /home/bruns/programas/chemistry/gaussian/g09/l1.exe /home/bruns/programas/chemistry/gaussian/work/Gau-41139.inp -scrdir=/home/bruns/programas/chemistry/gaussian/work/
 Entering Link 1 = /home/bruns/programas/chemistry/gaussian/g09/l1.exe PID=     41141.
  
 Copyright (c) 1988,1990,1992,1993,1995,1998,2003,2009,2010,
            Gaussian, Inc.  All Rights Reserved.
  
 This is part of the Gaussian(R) 09 program.  It is based on
 the Gaussian(R) 03 system (copyright 2003, Gaussian, Inc.),
 the Gaussian(R) 98 system (copyright 1998, Gaussian, Inc.),
 the Gaussian(R) 94 system (copyright 1995, Gaussian, Inc.),
 the Gaussian 92(TM) system (copyright 1992, Gaussian, Inc.),
 the Gaussian 90(TM) system (copyright 1990, Gaussian, Inc.),
 the Gaussian 88(TM) system (copyright 1988, Gaussian, Inc.),
 the Gaussian 86(TM) system (copyright 1986, Carnegie Mellon
 University), and the Gaussian 82(TM) system (copyright 1983,
 Carnegie Mellon University). Gaussian is a federally registered
 trademark of Gaussian, Inc.
  
 This software contains proprietary and confidential information,
 including trade secrets, belonging to Gaussian, Inc.
  
 This software is provided under written license and may be
 used, copied, transmitted, or stored only in accord with that
 written license.
  
 The following legend is applicable only to US Government
 contracts under FAR:
  
                    RESTRICTED RIGHTS LEGEND
  
 Use, reproduction and disclosure by the US Government is
 subject to restrictions as set forth in subparagraphs (a)
 and (c) of the Commercial Computer Software - Restricted
 Rights clause in FAR 52.227-19.
  
 Gaussian, Inc.
 340 Quinnipiac St., Bldg. 40, Wallingford CT 06492
  
  
 ---------------------------------------------------------------
 Warning -- This program may not be used in any manner that
 competes with the business of Gaussian, Inc. or will provide
 assistance to any competitor of Gaussian, Inc.  The licensee
 of this program is prohibited from giving any competitor of
 Gaussian, Inc. access to this program.  By using this program,
 the user acknowledges that Gaussian, Inc. is engaged in the
 business of creating and licensing software in the field of
 computational chemistry and represents and warrants to the
 licensee that it is not a competitor of Gaussian, Inc. and that
 it will not use this program in any manner prohibited above.
 ---------------------------------------------------------------
  

 Cite this work as:
 Gaussian 09, Revision B.01,
 M. J. Frisch, G. W. Trucks, H. B. Schlegel, G. E. Scuseria, 
 M. A. Robb, J. R. Cheeseman, G. Scalmani, V. Barone, B. Mennucci, 
 G. A. Petersson, H. Nakatsuji, M. Caricato, X. Li, H. P. Hratchian, 
 A. F. Izmaylov, J. Bloino, G. Zheng, J. L. Sonnenberg, M. Hada, 
 M. Ehara, K. Toyota, R. Fukuda, J. Hasegawa, M. Ishida, T. Nakajima, 
 Y. Honda, O. Kitao, H. Nakai, T. Vreven, J. A. Montgomery, Jr., 
 J. E. Peralta, F. Ogliaro, M. Bearpark, J. J. Heyd, E. Brothers, 
 K. N. Kudin, V. N. Staroverov, T. Keith, R. Kobayashi, J. Normand, 
 K. Raghavachari, A. Rendell, J. C. Burant, S. S. Iyengar, J. Tomasi, 
 M. Cossi, N. Rega, J. M. Millam, M. Klene, J. E. Knox, J. B. Cross, 
 V. Bakken, C. Adamo, J. Jaramillo, R. Gomperts, R. E. Stratmann, 
 O. Yazyev, A. J. Austin, R. Cammi, C. Pomelli, J. W. Ochterski, 
 R. L. Martin, K. Morokuma, V. G. Zakrzewski, G. A. Voth, 
 P. Salvador, J. J. Dannenberg, S. Dapprich, A. D. Daniels, 
 O. Farkas, J. B. Foresman, J. V. Ortiz, J. Cioslowski, 
 and D. J. Fox, Gaussian, Inc., Wallingford CT, 2010.
 
 ******************************************
 Gaussian 09:  EM64L-G09RevB.01 12-Aug-2010
                12-Aug-2021 
 ******************************************
 %nproc=8
 Will use up to    8 processors via shared memory.
 %mem=8GB
 -----------------------------------------------------
 # QCISD aug-cc-pvtz nosymm density=current output=wfn
 -----------------------------------------------------
 1/30=1,38=1/1;
 2/12=2,15=1,17=6,18=5,40=1/2;
 3/5=16,6=1,7=10,11=9,16=1,25=1,30=1,71=1/1,2,3;
 4//1;
 5/5=2,38=5/2;
 8/6=4,9=120000,10=1/1,4;
 9/5=8,15=1/13;
 11/28=-7,31=1,32=3,42=3/11;
 10/5=6,13=10,31=1/2;
 6/7=2,8=2,9=2,10=2,22=-1,31=1/1;
 99/5=1,6=1100,9=1/99;
 ----------
 title line
 ----------
 Symbolic Z-matrix:
 Charge = -1 Multiplicity = 1
 C                     0.00018   0.00003  -0.49771 
 H                     0.00002  -1.05257  -0.62073 
 H                    -0.92131   0.52637  -0.62125 
 H                     0.91175   0.52613  -0.62157 
 Cl                    0.00056   0.00096   1.64472 
 F                    -0.00019  -0.00092  -2.59346 
 
                          Input orientation:                          
 ---------------------------------------------------------------------
 Center     Atomic      Atomic             Coordinates (Angstroms)
 Number     Number       Type             X           Y           Z
 ---------------------------------------------------------------------
      1          6           0        0.000175    0.000029   -0.497709
      2          1           0        0.000019   -1.052570   -0.620726
      3          1           0       -0.921312    0.526365   -0.621245
      4          1           0        0.911750    0.526132   -0.621570
      5         17           0        0.000555    0.000962    1.644718
      6          9           0       -0.000186   -0.000921   -2.593460
 ---------------------------------------------------------------------
                    Distance matrix (angstroms):
                    1          2          3          4          5
     1  C    0.000000
     2  H    1.059763   0.000000
     3  H    1.068377   1.828083   0.000000
     4  H    1.059762   1.823062   1.833062   0.000000
     5  Cl   2.142427   2.498433   2.502094   2.498428   0.000000
     6  F    2.095751   2.235541   2.239673   2.235568   4.238178
                    6
     6  F    0.000000
 Symmetry turned off by external request.
 Stoichiometry    CH3ClF(1-)
 Framework group  C1[X(CH3ClF)]
 Deg. of freedom    12
 Full point group                 C1      NOp   1
 Rotational constants (GHZ):    150.0516055      2.2147436      2.2145369
 Standard basis: Aug-CC-pVTZ (5D, 7F)
 Integral buffers will be    131072 words long.
 Raffenetti 1 integral format.
 Two-electron integral symmetry is turned off.
   211 basis functions,   339 primitive gaussians,   244 cartesian basis functions
    18 alpha electrons       18 beta electrons
       nuclear repulsion energy        84.9486831009 Hartrees.
 NAtoms=    6 NActive=    6 NUniq=    6 SFac= 1.00D+00 NAtFMM=   50 NAOKFM=F Big=F
 One-electron integrals computed using PRISM.
 NBasis=   211 RedAO= T  NBF=   211
 NBsUse=   211 1.00D-06 NBFU=   211
 Harris functional with IExCor=  205 diagonalized for initial guess.
 ExpMin= 2.53D-02 ExpMax= 4.56D+05 ExpMxC= 1.44D+03 IAcc=3 IRadAn=         0 AccDes= 0.00D+00
 HarFok:  IExCor=  205 AccDes= 0.00D+00 IRadAn=         0 IDoV= 1
 ScaDFX=  1.000000  1.000000  1.000000  1.000000
 FoFCou: FMM=F IPFlag=           0 FMFlag=      100000 FMFlg1=           0
         NFxFlg=           0 DoJE=T BraDBF=F KetDBF=T FulRan=T
         Omega=  0.000000  0.000000  1.000000  0.000000  0.000000 ICntrl=     500 IOpCl=  0
         NMat0=    1 NMatS0=    1 NMatT0=    0 NMatD0=    1 NMtDS0=    0 NMtDT0=    0
         I1Cent=           4 NGrid=           0.
 Symmetry not used in FoFCou.
 Requested convergence on RMS density matrix=1.00D-08 within 128 cycles.
 Requested convergence on MAX density matrix=1.00D-06.
 Requested convergence on             energy=1.00D-06.
 No special actions if energy rises.
 Keep R1 ints in memory in canonical form, NReq=454274131.
 SCF Done:  E(RHF) =  -598.617066247     A.U. after   12 cycles
             Convg  =    0.9365D-08             -V/T =  2.0001
 ExpMin= 2.53D-02 ExpMax= 4.56D+05 ExpMxC= 1.44D+03 IAcc=3 IRadAn=         5 AccDes= 0.00D+00
 HarFok:  IExCor=  205 AccDes= 0.00D+00 IRadAn=         5 IDoV=-2
 ScaDFX=  1.000000  1.000000  1.000000  1.000000
 DSYEVD returned Info=          93 IAlg= 4 N=    46 NDim=    46 NE2=    21472034 trying DSYEV.
 DSYEVD returned Info=          93 IAlg= 4 N=    46 NDim=    46 NE2=    21472034 trying DSYEV.
 Range of M.O.s used for correlation:     8   211
 NBasis=   211 NAE=    18 NBE=    18 NFC=     7 NFV=     0
 NROrb=    204 NOA=    11 NOB=    11 NVA=   193 NVB=   193

 **** Warning!!: The largest alpha MO coefficient is  0.35271322D+02

 Semi-Direct transformation.
 ModeAB=           2 MOrb=            11 LenV=    1072528250
 LASXX=     44979418 LTotXX=    44979418 LenRXX=    44979418
 LTotAB=    45631872 MaxLAS=    67073160 LenRXY=    67073160
 NonZer=    89958836 LenScr=   135708672 LnRSAI=           0
 LnScr1=           0 LExtra=           0 Total=    247761250
 MaxDsk=          -1 SrtSym=           F ITran=            4
 JobTyp=0 Pass  1:  I=   1 to  11.
 (rs|ai) integrals will be sorted in core.
 Spin components of T(2) and E(2):
     alpha-alpha T2 =       0.2569072383D-01 E2=     -0.8209670299D-01
     alpha-beta  T2 =       0.1453961015D+00 E2=     -0.5100813291D+00
     beta-beta   T2 =       0.2569072383D-01 E2=     -0.8209670299D-01
 ANorm=    0.1093973285D+01
 E2 =    -0.6742747351D+00 EUMP2 =    -0.59929134098177D+03
 R2 and R3 integrals will be kept in memory, NReq=   900794930.
 Iterations=  50 Convergence= 0.100D-07
 Iteration Nr.   1
 **********************
 DD1Dir will call FoFMem   1 times, MxPair=       132
 NAB=    66 NAA=     0 NBB=     0.
 MP4(R+Q)=  0.14451172D-01
 E3=       -0.18690328D-01        EUMP3=      -0.59931003131D+03
 E4(DQ)=   -0.45675911D-03        UMP4(DQ)=   -0.59931048807D+03
 E4(SDQ)=  -0.98333194D-02        UMP4(SDQ)=  -0.59931986463D+03
 DE(Corr)= -0.67851389     E(Corr)=     -599.29558014    
 NORM(A)=   0.10997742D+01
 Iteration Nr.   2
 **********************
 DD1Dir will call FoFMem   1 times, MxPair=       132
 NAB=    66 NAA=     0 NBB=     0.
 DE(Corr)= -0.70073800     E(CORR)=     -599.31780424     Delta=-2.22D-02
 NORM(A)=   0.11071429D+01
 Iteration Nr.   3
 **********************
 DD1Dir will call FoFMem   1 times, MxPair=       132
 NAB=    66 NAA=     0 NBB=     0.
 DE(Corr)= -0.69834060     E(CORR)=     -599.31540684     Delta= 2.40D-03
 NORM(A)=   0.11111343D+01
 Iteration Nr.   4
 **********************
 DD1Dir will call FoFMem   1 times, MxPair=       132
 NAB=    66 NAA=     0 NBB=     0.
 DE(Corr)= -0.70140460     E(CORR)=     -599.31847085     Delta=-3.06D-03
 NORM(A)=   0.11132384D+01
 Iteration Nr.   5
 **********************
 DD1Dir will call FoFMem   1 times, MxPair=       132
 NAB=    66 NAA=     0 NBB=     0.
 DE(Corr)= -0.70199992     E(CORR)=     -599.31906617     Delta=-5.95D-04
 NORM(A)=   0.11142702D+01
 Iteration Nr.   6
 **********************
 DD1Dir will call FoFMem   1 times, MxPair=       132
 NAB=    66 NAA=     0 NBB=     0.
 DE(Corr)= -0.70214684     E(CORR)=     -599.31921309     Delta=-1.47D-04
 NORM(A)=   0.11145969D+01
 Iteration Nr.   7
 **********************
 DD1Dir will call FoFMem   1 times, MxPair=       132
 NAB=    66 NAA=     0 NBB=     0.
 DE(Corr)= -0.70217664     E(CORR)=     -599.31924289     Delta=-2.98D-05
 NORM(A)=   0.11146281D+01
 Iteration Nr.   8
 **********************
 DD1Dir will call FoFMem   1 times, MxPair=       132
 NAB=    66 NAA=     0 NBB=     0.
 DE(Corr)= -0.70219055     E(CORR)=     -599.31925680     Delta=-1.39D-05
 NORM(A)=   0.11146460D+01
 Iteration Nr.   9
 **********************
 DD1Dir will call FoFMem   1 times, MxPair=       132
 NAB=    66 NAA=     0 NBB=     0.
 DE(Corr)= -0.70216729     E(CORR)=     -599.31923353     Delta= 2.33D-05
 NORM(A)=   0.11146491D+01
 Iteration Nr.  10
 **********************
 DD1Dir will call FoFMem   1 times, MxPair=       132
 NAB=    66 NAA=     0 NBB=     0.
 DE(Corr)= -0.70218661     E(CORR)=     -599.31925286     Delta=-1.93D-05
 NORM(A)=   0.11146494D+01
 Iteration Nr.  11
 **********************
 DD1Dir will call FoFMem   1 times, MxPair=       132
 NAB=    66 NAA=     0 NBB=     0.
 DE(Corr)= -0.70217740     E(CORR)=     -599.31924365     Delta= 9.21D-06
 NORM(A)=   0.11146522D+01
 Iteration Nr.  12
 **********************
 DD1Dir will call FoFMem   1 times, MxPair=       132
 NAB=    66 NAA=     0 NBB=     0.
 DE(Corr)= -0.70218116     E(CORR)=     -599.31924741     Delta=-3.76D-06
 NORM(A)=   0.11146527D+01
 Iteration Nr.  13
 **********************
 DD1Dir will call FoFMem   1 times, MxPair=       132
 NAB=    66 NAA=     0 NBB=     0.
 DE(Corr)= -0.70218173     E(CORR)=     -599.31924798     Delta=-5.69D-07
 NORM(A)=   0.11146534D+01
 Iteration Nr.  14
 **********************
 DD1Dir will call FoFMem   1 times, MxPair=       132
 NAB=    66 NAA=     0 NBB=     0.
 DE(Corr)= -0.70218196     E(CORR)=     -599.31924820     Delta=-2.26D-07
 NORM(A)=   0.11146535D+01
 Iteration Nr.  15
 **********************
 DD1Dir will call FoFMem   1 times, MxPair=       132
 NAB=    66 NAA=     0 NBB=     0.
 DE(Corr)= -0.70218187     E(CORR)=     -599.31924811     Delta= 9.08D-08
 NORM(A)=   0.11146534D+01
 Iteration Nr.  16
 **********************
 DD1Dir will call FoFMem   1 times, MxPair=       132
 NAB=    66 NAA=     0 NBB=     0.
 DE(Corr)= -0.70218207     E(CORR)=     -599.31924832     Delta=-2.03D-07
 NORM(A)=   0.11146533D+01
 Iteration Nr.  17
 **********************
 DD1Dir will call FoFMem   1 times, MxPair=       132
 NAB=    66 NAA=     0 NBB=     0.
 DE(Corr)= -0.70218194     E(CORR)=     -599.31924819     Delta= 1.31D-07
 NORM(A)=   0.11146532D+01
 Iteration Nr.  18
 **********************
 DD1Dir will call FoFMem   1 times, MxPair=       132
 NAB=    66 NAA=     0 NBB=     0.
 DE(Corr)= -0.70218198     E(CORR)=     -599.31924822     Delta=-3.67D-08
 NORM(A)=   0.11146530D+01
 Iteration Nr.  19
 **********************
 DD1Dir will call FoFMem   1 times, MxPair=       132
 NAB=    66 NAA=     0 NBB=     0.
 DE(Corr)= -0.70218192     E(CORR)=     -599.31924817     Delta= 5.28D-08
 NORM(A)=   0.11146529D+01
 Iteration Nr.  20
 **********************
 DD1Dir will call FoFMem   1 times, MxPair=       132
 NAB=    66 NAA=     0 NBB=     0.
 DE(Corr)= -0.70218193     E(CORR)=     -599.31924817     Delta=-2.37D-09
 NORM(A)=   0.11146529D+01
 Iteration Nr.  21
 **********************
 DD1Dir will call FoFMem   1 times, MxPair=       132
 NAB=    66 NAA=     0 NBB=     0.
 DE(Corr)= -0.70218191     E(CORR)=     -599.31924815     Delta= 1.84D-08
 NORM(A)=   0.11146528D+01
 Iteration Nr.  22
 **********************
 DD1Dir will call FoFMem   1 times, MxPair=       132
 NAB=    66 NAA=     0 NBB=     0.
 DE(Corr)= -0.70218190     E(CORR)=     -599.31924815     Delta= 4.28D-09
 NORM(A)=   0.11146528D+01
 Iteration Nr.  23
 **********************
 DD1Dir will call FoFMem   1 times, MxPair=       132
 NAB=    66 NAA=     0 NBB=     0.
 DE(Corr)= -0.70218190     E(CORR)=     -599.31924814     Delta= 5.26D-09
 NORM(A)=   0.11146528D+01
 Iteration Nr.  24
 **********************
 DD1Dir will call FoFMem   1 times, MxPair=       132
 NAB=    66 NAA=     0 NBB=     0.
 DE(Corr)= -0.70218190     E(CORR)=     -599.31924815     Delta=-1.61D-09
 NORM(A)=   0.11146528D+01
 Iteration Nr.  25
 **********************
 DD1Dir will call FoFMem   1 times, MxPair=       132
 NAB=    66 NAA=     0 NBB=     0.
 DE(Corr)= -0.70218189     E(CORR)=     -599.31924814     Delta= 4.12D-09
 NORM(A)=   0.11146528D+01
 Iteration Nr.  26
 **********************
 DD1Dir will call FoFMem   1 times, MxPair=       132
 NAB=    66 NAA=     0 NBB=     0.
 DE(Corr)= -0.70218190     E(CORR)=     -599.31924814     Delta=-3.13D-09
 NORM(A)=   0.11146528D+01
 Iteration Nr.  27
 **********************
 DD1Dir will call FoFMem   1 times, MxPair=       132
 NAB=    66 NAA=     0 NBB=     0.
 DE(Corr)= -0.70218189     E(CORR)=     -599.31924814     Delta= 4.54D-09
 NORM(A)=   0.11146528D+01
 Iteration Nr.  28
 **********************
 DD1Dir will call FoFMem   1 times, MxPair=       132
 NAB=    66 NAA=     0 NBB=     0.
 DE(Corr)= -0.70218190     E(CORR)=     -599.31924815     Delta=-5.31D-09
 NORM(A)=   0.11146528D+01
 Iteration Nr.  29
 **********************
 DD1Dir will call FoFMem   1 times, MxPair=       132
 NAB=    66 NAA=     0 NBB=     0.
 DE(Corr)= -0.70218189     E(CORR)=     -599.31924814     Delta= 6.60D-09
 NORM(A)=   0.11146528D+01
 Iteration Nr.  30
 **********************
 DD1Dir will call FoFMem   1 times, MxPair=       132
 NAB=    66 NAA=     0 NBB=     0.
 DE(Corr)= -0.70218190     E(CORR)=     -599.31924815     Delta=-7.28D-09
 NORM(A)=   0.11146528D+01
 Iteration Nr.  31
 **********************
 DD1Dir will call FoFMem   1 times, MxPair=       132
 NAB=    66 NAA=     0 NBB=     0.
 DE(Corr)= -0.70218189     E(CORR)=     -599.31924814     Delta= 5.13D-09
 NORM(A)=   0.11146528D+01
 Iteration Nr.  32
 **********************
 DD1Dir will call FoFMem   1 times, MxPair=       132
 NAB=    66 NAA=     0 NBB=     0.
 DE(Corr)= -0.70218190     E(CORR)=     -599.31924815     Delta=-5.37D-09
 NORM(A)=   0.11146528D+01
 Iteration Nr.  33
 **********************
 DD1Dir will call FoFMem   1 times, MxPair=       132
 NAB=    66 NAA=     0 NBB=     0.
 DE(Corr)= -0.70218189     E(CORR)=     -599.31924814     Delta= 5.05D-09
 NORM(A)=   0.11146528D+01
 Iteration Nr.  34
 **********************
 DD1Dir will call FoFMem   1 times, MxPair=       132
 NAB=    66 NAA=     0 NBB=     0.
 DE(Corr)= -0.70218190     E(CORR)=     -599.31924815     Delta=-5.27D-09
 NORM(A)=   0.11146528D+01
 Iteration Nr.  35
 **********************
 DD1Dir will call FoFMem   1 times, MxPair=       132
 NAB=    66 NAA=     0 NBB=     0.
 DE(Corr)= -0.70218190     E(CORR)=     -599.31924814     Delta= 4.49D-09
 NORM(A)=   0.11146528D+01
 Iteration Nr.  36
 **********************
 DD1Dir will call FoFMem   1 times, MxPair=       132
 NAB=    66 NAA=     0 NBB=     0.
 DE(Corr)= -0.70218190     E(CORR)=     -599.31924815     Delta=-4.10D-09
 NORM(A)=   0.11146528D+01
 Iteration Nr.  37
 **********************
 DD1Dir will call FoFMem   1 times, MxPair=       132
 NAB=    66 NAA=     0 NBB=     0.
 DE(Corr)= -0.70218190     E(CORR)=     -599.31924814     Delta= 3.28D-09
 NORM(A)=   0.11146528D+01
 Iteration Nr.  38
 **********************
 DD1Dir will call FoFMem   1 times, MxPair=       132
 NAB=    66 NAA=     0 NBB=     0.
 DE(Corr)= -0.70218190     E(CORR)=     -599.31924815     Delta=-2.83D-09
 NORM(A)=   0.11146528D+01
 Iteration Nr.  39
 **********************
 DD1Dir will call FoFMem   1 times, MxPair=       132
 NAB=    66 NAA=     0 NBB=     0.
 DE(Corr)= -0.70218190     E(CORR)=     -599.31924814     Delta= 2.22D-09
 NORM(A)=   0.11146528D+01
 Iteration Nr.  40
 **********************
 DD1Dir will call FoFMem   1 times, MxPair=       132
 NAB=    66 NAA=     0 NBB=     0.
 DE(Corr)= -0.70218190     E(CORR)=     -599.31924815     Delta=-1.83D-09
 NORM(A)=   0.11146528D+01
 Largest amplitude= 6.61D-02

 Z-AMPLITUDE ITERATIONS

 Iteration Nr.   1
 **********************
 DD1Dir will call FoFMem   1 times, MxPair=       132
 NAB=    66 NAA=     0 NBB=     0.
 DE(Z)  -0.68277012D+00          E(Z)=    -0.59929983637D+03
 NORM(A)=   0.11171124D+01
 Iteration Nr.   2
 **********************
 DD1Dir will call FoFMem   1 times, MxPair=       132
 NAB=    66 NAA=     0 NBB=     0.
 DE(Z)  -0.68303811D+00          E(Z)=    -0.59930010436D+03
 NORM(A)=   0.11130051D+01
 Iteration Nr.   3
 **********************
 DD1Dir will call FoFMem   1 times, MxPair=       132
 NAB=    66 NAA=     0 NBB=     0.
 DE(Z)  -0.68261280D+00          E(Z)=    -0.59929967905D+03
 NORM(A)=   0.11190312D+01
 Iteration Nr.   4
 **********************
 DD1Dir will call FoFMem   1 times, MxPair=       132
 NAB=    66 NAA=     0 NBB=     0.
 DE(Z)  -0.68320156D+00          E(Z)=    -0.59930026781D+03
 NORM(A)=   0.11121955D+01
 Iteration Nr.   5
 **********************
 DD1Dir will call FoFMem   1 times, MxPair=       132
 NAB=    66 NAA=     0 NBB=     0.
 DE(Z)  -0.68252866D+00          E(Z)=    -0.59929959490D+03
 NORM(A)=   0.11079865D+01
 Iteration Nr.   6
 **********************
 DD1Dir will call FoFMem   1 times, MxPair=       132
 NAB=    66 NAA=     0 NBB=     0.
 DE(Z)  -0.68210049D+00          E(Z)=    -0.59929916673D+03
 NORM(A)=   0.11079803D+01
 Iteration Nr.   7
 **********************
 DD1Dir will call FoFMem   1 times, MxPair=       132
 NAB=    66 NAA=     0 NBB=     0.
 DE(Z)  -0.68210371D+00          E(Z)=    -0.59929916995D+03
 NORM(A)=   0.11079762D+01
 Iteration Nr.   8
 **********************
 DD1Dir will call FoFMem   1 times, MxPair=       132
 NAB=    66 NAA=     0 NBB=     0.
 DE(Z)  -0.68210049D+00          E(Z)=    -0.59929916673D+03
 NORM(A)=   0.11079728D+01
 Iteration Nr.   9
 **********************
 DD1Dir will call FoFMem   1 times, MxPair=       132
 NAB=    66 NAA=     0 NBB=     0.
 DE(Z)  -0.68210105D+00          E(Z)=    -0.59929916729D+03
 NORM(A)=   0.11079714D+01
 Iteration Nr.  10
 **********************
 DD1Dir will call FoFMem   1 times, MxPair=       132
 NAB=    66 NAA=     0 NBB=     0.
 DE(Z)  -0.68210071D+00          E(Z)=    -0.59929916695D+03
 NORM(A)=   0.11079710D+01
 Iteration Nr.  11
 **********************
 DD1Dir will call FoFMem   1 times, MxPair=       132
 NAB=    66 NAA=     0 NBB=     0.
 DE(Z)  -0.68210076D+00          E(Z)=    -0.59929916701D+03
 NORM(A)=   0.11079709D+01
 Iteration Nr.  12
 **********************
 DD1Dir will call FoFMem   1 times, MxPair=       132
 NAB=    66 NAA=     0 NBB=     0.
 DE(Z)  -0.68210079D+00          E(Z)=    -0.59929916703D+03
 NORM(A)=   0.11079710D+01
 Iteration Nr.  13
 **********************
 DD1Dir will call FoFMem   1 times, MxPair=       132
 NAB=    66 NAA=     0 NBB=     0.
 DE(Z)  -0.68210082D+00          E(Z)=    -0.59929916706D+03
 NORM(A)=   0.11079710D+01
 Iteration Nr.  14
 **********************
 DD1Dir will call FoFMem   1 times, MxPair=       132
 NAB=    66 NAA=     0 NBB=     0.
 DE(Z)  -0.68210080D+00          E(Z)=    -0.59929916705D+03
 NORM(A)=   0.11079710D+01
 Iteration Nr.  15
 **********************
 DD1Dir will call FoFMem   1 times, MxPair=       132
 NAB=    66 NAA=     0 NBB=     0.
 DE(Z)  -0.68210083D+00          E(Z)=    -0.59929916708D+03
 NORM(A)=   0.11079710D+01
 Iteration Nr.  16
 **********************
 DD1Dir will call FoFMem   1 times, MxPair=       132
 NAB=    66 NAA=     0 NBB=     0.
 DE(Z)  -0.68210083D+00          E(Z)=    -0.59929916707D+03
 NORM(A)=   0.11079710D+01
 Iteration Nr.  17
 **********************
 DD1Dir will call FoFMem   1 times, MxPair=       132
 NAB=    66 NAA=     0 NBB=     0.
 DE(Z)  -0.68210082D+00          E(Z)=    -0.59929916707D+03
 NORM(A)=   0.11079710D+01
 Iteration Nr.  18
 **********************
 DD1Dir will call FoFMem   1 times, MxPair=       132
 NAB=    66 NAA=     0 NBB=     0.
 DE(Z)  -0.68210083D+00          E(Z)=    -0.59929916707D+03
 NORM(A)=   0.11079710D+01
 Iteration Nr.  19
 **********************
 DD1Dir will call FoFMem   1 times, MxPair=       132
 NAB=    66 NAA=     0 NBB=     0.
 DE(Z)  -0.68210082D+00          E(Z)=    -0.59929916707D+03
 NORM(A)=   0.11079710D+01
 Iteration Nr.  20
 **********************
 DD1Dir will call FoFMem   1 times, MxPair=       132
 NAB=    66 NAA=     0 NBB=     0.
 DE(Z)  -0.68210082D+00          E(Z)=    -0.59929916707D+03
 NORM(A)=   0.11079710D+01
 Iteration Nr.  21
 **********************
 DD1Dir will call FoFMem   1 times, MxPair=       132
 NAB=    66 NAA=     0 NBB=     0.
 DE(Z)  -0.68210082D+00          E(Z)=    -0.59929916707D+03
 NORM(A)=   0.11079710D+01
 Discarding MO integrals.
          Differentiating once with respect to electric field.
                with respect to dipole field.
          Electric field/nuclear overlap derivatives assumed to be zero.
          Keep R1 ints in memory in canonical form, NReq=448662239.
          There are     1 degrees of freedom in the 1st order CPHF.  IDoFFX=0.
 LinEq1:  Iter=  0 NonCon=     1 RMS=3.11D-03 Max=1.20D-01
 AX will form     1 AO Fock derivatives at one time.
 LinEq1:  Iter=  1 NonCon=     1 RMS=6.96D-04 Max=9.49D-03
 LinEq1:  Iter=  2 NonCon=     1 RMS=2.30D-04 Max=5.74D-03
 LinEq1:  Iter=  3 NonCon=     1 RMS=9.49D-05 Max=1.22D-03
 LinEq1:  Iter=  4 NonCon=     1 RMS=3.85D-05 Max=4.12D-04
 LinEq1:  Iter=  5 NonCon=     1 RMS=1.07D-05 Max=2.27D-04
 LinEq1:  Iter=  6 NonCon=     1 RMS=2.43D-06 Max=4.27D-05
 LinEq1:  Iter=  7 NonCon=     1 RMS=6.08D-07 Max=9.16D-06
 LinEq1:  Iter=  8 NonCon=     1 RMS=1.50D-07 Max=1.81D-06
 LinEq1:  Iter=  9 NonCon=     1 RMS=3.05D-08 Max=7.51D-07
 LinEq1:  Iter= 10 NonCon=     1 RMS=6.57D-09 Max=8.15D-08
 LinEq1:  Iter= 11 NonCon=     1 RMS=1.06D-09 Max=1.16D-08
 LinEq1:  Iter= 12 NonCon=     1 RMS=1.69D-10 Max=2.85D-09
 LinEq1:  Iter= 13 NonCon=     0 RMS=2.41D-11 Max=3.23D-10
 Linear equations converged to 1.000D-10 1.000D-09 after    13 iterations.
 End of Minotr Frequency-dependent properties file   721 does not exist.
 End of Minotr Frequency-dependent properties file   722 does not exist.

 **********************************************************************

            Population analysis using the QCI/CC density.

 **********************************************************************

     Natural Orbital Coefficients:
                           1         2         3         4         5
     Eigenvalues --     2.00003   2.00003   2.00002   2.00001   2.00001
   1 1   C  1S         -0.00004   0.00001  -0.04333   0.07936   0.97627
   2        2S          0.00000   0.00000   0.00131   0.00052  -0.01332
   3        3S          0.00000   0.00000  -0.00132   0.00396   0.03982
   4        4S          0.00015  -0.00005  -0.01260  -0.02348   0.00321
   5        5S          0.00001   0.00000  -0.00119  -0.00060  -0.00058
   6        6PX         0.00003   0.00004   0.00000   0.00000  -0.00003
   7        6PY        -0.00004   0.00004   0.00000   0.00000   0.00002
   8        6PZ         0.00000   0.00000   0.00053   0.00168   0.00087
   9        7PX         0.00057   0.00061  -0.00002  -0.00004   0.00005
  10        7PY        -0.00059   0.00059   0.00002   0.00002  -0.00005
  11        7PZ         0.00001   0.00000   0.00141   0.00303  -0.00090
  12        8PX         0.00314   0.00327  -0.00003  -0.00007   0.00005
  13        8PY        -0.00324   0.00318   0.00004   0.00006  -0.00006
  14        8PZ        -0.00002   0.00000  -0.00372  -0.00409  -0.00310
  15        9PX         0.00029   0.00030   0.00000   0.00000   0.00000
  16        9PY        -0.00031   0.00029   0.00000   0.00000   0.00000
  17        9PZ         0.00000   0.00000   0.00021   0.00017  -0.00049
  18       10D 0        0.00000   0.00000   0.00011   0.00033  -0.00057
  19       10D+1       -0.00011  -0.00011   0.00000   0.00000   0.00000
  20       10D-1        0.00011  -0.00011   0.00000   0.00000   0.00000
  21       10D+2       -0.00003   0.00003   0.00000   0.00000   0.00000
  22       10D-2        0.00003   0.00003   0.00000   0.00000   0.00001
  23       11D 0       -0.00001   0.00001   0.00022  -0.00008  -0.00031
  24       11D+1        0.00017   0.00018   0.00001   0.00001  -0.00002
  25       11D-1       -0.00018   0.00018   0.00000  -0.00001   0.00001
  26       11D+2       -0.00072   0.00070   0.00001   0.00001  -0.00003
  27       11D-2        0.00069   0.00072  -0.00001  -0.00002   0.00003
  28       12D 0        0.00000  -0.00002  -0.00078   0.00122  -0.00234
  29       12D+1       -0.00091  -0.00094   0.00000  -0.00001   0.00000
  30       12D-1        0.00093  -0.00091   0.00001   0.00001  -0.00001
  31       12D+2       -0.00116   0.00112   0.00001   0.00001  -0.00002
  32       12D-2        0.00112   0.00117   0.00000  -0.00002   0.00001
  33       13F 0        0.00000   0.00000   0.00001   0.00003   0.00019
  34       13F+1       -0.00013  -0.00014   0.00000   0.00000   0.00000
  35       13F-1        0.00014  -0.00013   0.00000   0.00000   0.00000
  36       13F+2       -0.00001   0.00001   0.00000   0.00000   0.00000
  37       13F-2        0.00001   0.00001   0.00000   0.00000   0.00000
  38       13F+3        0.00000   0.00000   0.00000   0.00000   0.00000
  39       13F-3        0.00000   0.00000  -0.00006   0.00007   0.00090
  40       14F 0        0.00000   0.00000  -0.00112  -0.00215  -0.00020
  41       14F+1        0.00040   0.00041   0.00000   0.00000   0.00000
  42       14F-1       -0.00041   0.00040   0.00000   0.00000   0.00001
  43       14F+2       -0.00024   0.00023   0.00000   0.00000   0.00001
  44       14F-2        0.00024   0.00024   0.00000   0.00001  -0.00001
  45       14F+3        0.00001   0.00001   0.00000   0.00001   0.00001
  46       14F-3        0.00001  -0.00001  -0.00086  -0.00136  -0.00188
  47 2   H  1S          0.00011  -0.00011  -0.00002  -0.00035  -0.00135
  48        2S         -0.00086   0.00085   0.00247   0.00335  -0.00079
  49        3S         -0.00620   0.00604   0.00188   0.00537  -0.00447
  50        4S          0.00019  -0.00019   0.00011   0.00009  -0.00013
  51        5PX         0.00000   0.00000   0.00000   0.00000   0.00000
  52        5PY        -0.00002   0.00002   0.00004  -0.00003  -0.00048
  53        5PZ        -0.00001   0.00001   0.00001   0.00002  -0.00009
  54        6PX         0.00014   0.00014   0.00000   0.00000   0.00001
  55        6PY        -0.00047   0.00046   0.00047   0.00071  -0.00084
  56        6PZ        -0.00044   0.00043  -0.00001  -0.00010   0.00023
  57        7PX         0.00064   0.00067   0.00000  -0.00001   0.00001
  58        7PY        -0.00149   0.00146   0.00055   0.00138  -0.00105
  59        7PZ        -0.00019   0.00019   0.00048   0.00093  -0.00007
  60        8D 0       -0.00003   0.00003   0.00001   0.00006   0.00014
  61        8D+1       -0.00001  -0.00001   0.00000   0.00000   0.00000
  62        8D-1       -0.00007   0.00007   0.00002   0.00005  -0.00004
  63        8D+2        0.00003  -0.00003  -0.00004  -0.00005   0.00028
  64        8D-2        0.00001   0.00001   0.00000   0.00000   0.00000
  65        9D 0       -0.00028   0.00027   0.00015   0.00025   0.00062
  66        9D+1        0.00017   0.00018   0.00000   0.00000   0.00000
  67        9D-1       -0.00009   0.00009  -0.00014  -0.00026   0.00001
  68        9D+2        0.00009  -0.00009   0.00001   0.00002  -0.00009
  69        9D-2        0.00008   0.00009   0.00000   0.00000   0.00000
  70 3   H  1S         -0.00015  -0.00004  -0.00002  -0.00035  -0.00130
  71        2S          0.00109   0.00034   0.00240   0.00325  -0.00057
  72        3S          0.00819   0.00237   0.00172   0.00506  -0.00417
  73        4S         -0.00026  -0.00008   0.00011   0.00009  -0.00013
  74        5PX         0.00003   0.00001   0.00004  -0.00003  -0.00041
  75        5PY        -0.00002   0.00000  -0.00002   0.00001   0.00023
  76        5PZ         0.00001   0.00000   0.00001   0.00001  -0.00008
  77        6PX         0.00052   0.00025   0.00040   0.00060  -0.00063
  78        6PY        -0.00035   0.00006  -0.00022  -0.00034   0.00037
  79        6PZ         0.00058   0.00017   0.00000  -0.00009   0.00023
  80        7PX         0.00161   0.00094   0.00045   0.00113  -0.00084
  81        7PY        -0.00120   0.00047  -0.00025  -0.00065   0.00047
  82        7PZ         0.00026   0.00007   0.00046   0.00090  -0.00005
  83        8D 0        0.00003   0.00001   0.00001   0.00007   0.00015
  84        8D+1        0.00008   0.00002   0.00002   0.00004  -0.00004
  85        8D-1       -0.00004  -0.00003  -0.00001  -0.00002   0.00002
  86        8D+2        0.00002   0.00001   0.00002   0.00003  -0.00015
  87        8D-2       -0.00004  -0.00001  -0.00004  -0.00004   0.00025
  88        9D 0        0.00037   0.00011   0.00015   0.00025   0.00060
  89        9D+1        0.00007   0.00015  -0.00012  -0.00022   0.00001
  90        9D-1       -0.00012   0.00019   0.00007   0.00012   0.00000
  91        9D+2        0.00003   0.00011  -0.00001  -0.00001   0.00005
  92        9D-2       -0.00012   0.00002   0.00001   0.00002  -0.00010
  93 4   H  1S          0.00004   0.00015  -0.00002  -0.00035  -0.00135
  94        2S         -0.00030  -0.00114   0.00246   0.00335  -0.00076
  95        3S         -0.00211  -0.00841   0.00183   0.00535  -0.00442
  96        4S          0.00007   0.00026   0.00011   0.00010  -0.00014
  97        5PX         0.00001   0.00003  -0.00004   0.00002   0.00042
  98        5PY         0.00000   0.00002  -0.00002   0.00001   0.00024
  99        5PZ         0.00000  -0.00001   0.00001   0.00002  -0.00009
 100        6PX         0.00023   0.00053  -0.00040  -0.00062   0.00072
 101        6PY        -0.00008   0.00036  -0.00023  -0.00035   0.00041
 102        6PZ        -0.00015  -0.00060  -0.00001  -0.00010   0.00023
 103        7PX         0.00088   0.00165  -0.00047  -0.00119   0.00091
 104        7PY        -0.00051   0.00120  -0.00026  -0.00067   0.00050
 105        7PZ        -0.00006  -0.00026   0.00047   0.00092  -0.00006
 106        8D 0       -0.00001  -0.00004   0.00001   0.00006   0.00014
 107        8D+1        0.00001   0.00008  -0.00002  -0.00004   0.00003
 108        8D-1        0.00002   0.00004  -0.00001  -0.00002   0.00002
 109        8D+2       -0.00001  -0.00002   0.00002   0.00003  -0.00014
 110        8D-2       -0.00001  -0.00004   0.00004   0.00005  -0.00024
 111        9D 0       -0.00010  -0.00037   0.00015   0.00025   0.00062
 112        9D+1        0.00015   0.00008   0.00012   0.00022  -0.00001
 113        9D-1       -0.00019   0.00011   0.00007   0.00013   0.00000
 114        9D+2       -0.00011  -0.00004   0.00000  -0.00001   0.00004
 115        9D-2        0.00003  -0.00012  -0.00001  -0.00002   0.00008
 116 5   Cl 1S          0.00009   0.00000  -0.25066   0.14790  -0.02268
 117        2S         -0.00029  -0.00001   0.84614  -0.49996   0.07776
 118        3S          0.00001   0.00000  -0.02309   0.00933  -0.00238
 119        4S         -0.00002   0.00000   0.06657  -0.04073   0.00639
 120        5S          0.00001   0.00001  -0.00211   0.00776   0.00350
 121        6S          0.00000   0.00001  -0.00155  -0.00214   0.00299
 122        7PX         0.68178   0.70239   0.00013  -0.00018   0.00004
 123        7PY        -0.70239   0.68178   0.00015   0.00064  -0.00009
 124        7PZ         0.00051  -0.00037   0.50048   0.83617  -0.04635
 125        8PX        -0.01334  -0.01374   0.00000   0.00000   0.00000
 126        8PY         0.01374  -0.01334   0.00000  -0.00001   0.00000
 127        8PZ        -0.00001   0.00001  -0.00877  -0.01404   0.00009
 128        9PX         0.03645   0.03755   0.00001  -0.00001   0.00000
 129        9PY        -0.03755   0.03645   0.00001   0.00004   0.00000
 130        9PZ         0.00003  -0.00002   0.02841   0.04955  -0.00263
 131       10PX        -0.00402  -0.00414   0.00000   0.00000   0.00000
 132       10PY         0.00415  -0.00402   0.00000   0.00000   0.00000
 133       10PZ         0.00000   0.00000  -0.00434  -0.00274  -0.00346
 134       11PX        -0.00149  -0.00154   0.00000   0.00000   0.00000
 135       11PY         0.00154  -0.00149   0.00000   0.00000   0.00000
 136       11PZ         0.00000   0.00000  -0.00036  -0.00014  -0.00053
 137       12D 0        0.00000   0.00000   0.00001  -0.00051  -0.00017
 138       12D+1       -0.00022  -0.00023   0.00000   0.00000   0.00000
 139       12D-1        0.00023  -0.00022   0.00000   0.00000   0.00000
 140       12D+2       -0.00001   0.00001   0.00000   0.00000   0.00000
 141       12D-2        0.00001   0.00001   0.00000   0.00000   0.00000
 142       13D 0        0.00000   0.00000   0.00087   0.00243   0.00042
 143       13D+1        0.00056   0.00058   0.00000   0.00000   0.00000
 144       13D-1       -0.00058   0.00056   0.00000   0.00000   0.00000
 145       13D+2        0.00001  -0.00001   0.00000   0.00000   0.00000
 146       13D-2       -0.00001  -0.00001   0.00000   0.00000   0.00000
 147       14D 0        0.00000   0.00000   0.00058  -0.00018   0.00080
 148       14D+1       -0.00050  -0.00051   0.00000   0.00000   0.00000
 149       14D-1        0.00051  -0.00050   0.00000   0.00000   0.00000
 150       14D+2       -0.00002   0.00002   0.00000   0.00000   0.00000
 151       14D-2        0.00002   0.00002   0.00000   0.00000   0.00000
 152       15F 0        0.00000   0.00000   0.00001  -0.00007  -0.00003
 153       15F+1        0.00000   0.00000   0.00000   0.00000   0.00000
 154       15F-1        0.00000   0.00000   0.00000   0.00000   0.00000
 155       15F+2       -0.00002   0.00002   0.00000   0.00000   0.00000
 156       15F-2        0.00002   0.00002   0.00000   0.00000   0.00000
 157       15F+3        0.00000   0.00000   0.00000   0.00000   0.00000
 158       15F-3        0.00000   0.00000   0.00001   0.00003   0.00000
 159       16F 0        0.00000   0.00000  -0.00031  -0.00058  -0.00031
 160       16F+1       -0.00016  -0.00016   0.00000   0.00000   0.00000
 161       16F-1        0.00016  -0.00016   0.00000   0.00000   0.00000
 162       16F+2        0.00003  -0.00002   0.00000   0.00000   0.00000
 163       16F-2       -0.00002  -0.00003   0.00000   0.00000   0.00000
 164       16F+3        0.00000   0.00000   0.00000   0.00000   0.00000
 165       16F-3        0.00000   0.00000  -0.00002  -0.00005   0.00002
 166 6   F  1S          0.00000   0.00000  -0.00144  -0.01040  -0.04984
 167        2S          0.00000   0.00000   0.00020   0.00043   0.00080
 168        3S          0.00000   0.00000  -0.00007  -0.00045  -0.00203
 169        4S          0.00000   0.00001  -0.00054  -0.00105   0.00055
 170        5S          0.00000   0.00001   0.00011  -0.00168   0.00176
 171        6PX        -0.00003  -0.00003   0.00000   0.00000   0.00000
 172        6PY         0.00003  -0.00003   0.00000   0.00000   0.00000
 173        6PZ         0.00000   0.00000   0.00058   0.00111   0.00011
 174        7PX         0.00000   0.00000   0.00000   0.00000   0.00000
 175        7PY         0.00000   0.00000   0.00000   0.00000   0.00000
 176        7PZ         0.00000   0.00000   0.00069   0.00132   0.00002
 177        8PX        -0.00017  -0.00018   0.00000   0.00000   0.00000
 178        8PY         0.00018  -0.00017   0.00000   0.00000   0.00000
 179        8PZ         0.00000   0.00000   0.00008   0.00017   0.00048
 180        9PX        -0.00025  -0.00026   0.00000   0.00000   0.00000
 181        9PY         0.00026  -0.00025   0.00000   0.00000   0.00000
 182        9PZ         0.00000   0.00000   0.00017  -0.00009   0.00071
 183       10D 0        0.00000   0.00000   0.00001   0.00001  -0.00002
 184       10D+1        0.00000   0.00000   0.00000   0.00000   0.00000
 185       10D-1        0.00000   0.00000   0.00000   0.00000   0.00000
 186       10D+2        0.00000   0.00000   0.00000   0.00000   0.00000
 187       10D-2        0.00000   0.00000   0.00000   0.00000   0.00000
 188       11D 0        0.00000   0.00000  -0.00003  -0.00010   0.00001
 189       11D+1        0.00003   0.00003   0.00000   0.00000   0.00000
 190       11D-1       -0.00003   0.00003   0.00000   0.00000   0.00000
 191       11D+2        0.00002  -0.00002   0.00000   0.00000   0.00000
 192       11D-2       -0.00002  -0.00002   0.00000   0.00000   0.00000
 193       12D 0        0.00000   0.00000  -0.00019  -0.00012   0.00012
 194       12D+1       -0.00016  -0.00016   0.00000   0.00000   0.00000
 195       12D-1        0.00016  -0.00016   0.00000   0.00000   0.00000
 196       12D+2       -0.00008   0.00008   0.00000   0.00000   0.00000
 197       12D-2        0.00008   0.00008   0.00000   0.00000   0.00000
 198       13F 0        0.00000   0.00000   0.00001  -0.00001  -0.00004
 199       13F+1        0.00001   0.00001   0.00000   0.00000   0.00000
 200       13F-1       -0.00001   0.00001   0.00000   0.00000   0.00000
 201       13F+2        0.00001  -0.00001   0.00000   0.00000   0.00000
 202       13F-2       -0.00001  -0.00001   0.00000   0.00000   0.00000
 203       13F+3        0.00000   0.00000   0.00000   0.00000   0.00000
 204       13F-3        0.00000   0.00000   0.00000   0.00000   0.00000
 205       14F 0        0.00000   0.00000  -0.00004   0.00002   0.00013
 206       14F+1       -0.00004  -0.00004   0.00000   0.00000   0.00000
 207       14F-1        0.00004  -0.00004   0.00000   0.00000   0.00000
 208       14F+2       -0.00003   0.00003   0.00000   0.00000   0.00000
 209       14F-2        0.00003   0.00003   0.00000   0.00000   0.00000
 210       14F+3        0.00000   0.00000   0.00000   0.00000   0.00000
 211       14F-3        0.00000   0.00000   0.00000  -0.00001  -0.00001
                           6         7         8         9        10
     Eigenvalues --     2.00000   2.00000   1.98361   1.97541   1.96941
   1 1   C  1S          0.05045  -0.00046   0.01532  -0.07252  -0.14399
   2        2S         -0.00012  -0.00001  -0.04173   0.19679   0.39811
   3        3S          0.00230  -0.00003  -0.01034   0.04562   0.09629
   4        4S         -0.00696   0.00016   0.00576   0.07805   0.19116
   5        5S         -0.00015   0.00010   0.00784  -0.00668  -0.02891
   6        6PX         0.00000   0.00000  -0.00012   0.00086   0.00323
   7        6PY         0.00000   0.00000   0.00008  -0.00060  -0.00234
   8        6PZ         0.00004   0.00000   0.00645   0.01052  -0.02709
   9        7PX        -0.00001   0.00000  -0.00016   0.00107   0.00408
  10        7PY         0.00000   0.00000   0.00013  -0.00077  -0.00302
  11        7PZ        -0.00074   0.00000   0.00704   0.01813  -0.03228
  12        8PX         0.00001   0.00000  -0.00009   0.00076   0.00284
  13        8PY         0.00001   0.00000   0.00002  -0.00032  -0.00175
  14        8PZ         0.00517   0.00009   0.01653   0.00594  -0.02273
  15        9PX         0.00000   0.00000  -0.00001   0.00002   0.00014
  16        9PY         0.00000   0.00000  -0.00001   0.00001  -0.00004
  17        9PZ         0.00011   0.00001  -0.00071   0.00035  -0.00407
  18       10D 0        0.00004   0.00000   0.00050  -0.00207  -0.00954
  19       10D+1        0.00000   0.00000   0.00001  -0.00002  -0.00006
  20       10D-1        0.00000   0.00000   0.00000   0.00001   0.00004
  21       10D+2        0.00000   0.00000   0.00000  -0.00002  -0.00012
  22       10D-2        0.00000   0.00000  -0.00001   0.00008   0.00025
  23       11D 0       -0.00023  -0.00002  -0.00530   0.00472  -0.01871
  24       11D+1        0.00000   0.00000   0.00002  -0.00004  -0.00009
  25       11D-1        0.00000   0.00000  -0.00003   0.00004   0.00006
  26       11D+2        0.00000   0.00000   0.00004  -0.00007  -0.00031
  27       11D-2        0.00000   0.00000  -0.00005   0.00021   0.00070
  28       12D 0        0.00027   0.00008   0.00206  -0.00831  -0.01672
  29       12D+1        0.00000   0.00000   0.00002   0.00001  -0.00001
  30       12D-1       -0.00001   0.00000  -0.00002  -0.00004  -0.00003
  31       12D+2        0.00000   0.00000   0.00006  -0.00010  -0.00033
  32       12D-2        0.00001   0.00000  -0.00001   0.00017   0.00051
  33       13F 0       -0.00007   0.00000   0.00001   0.00242   0.00066
  34       13F+1        0.00000   0.00000   0.00000   0.00001   0.00001
  35       13F-1        0.00000   0.00000   0.00000   0.00000   0.00001
  36       13F+2        0.00000   0.00000   0.00000   0.00000  -0.00001
  37       13F-2        0.00000   0.00000   0.00000   0.00000   0.00000
  38       13F+3        0.00000   0.00000   0.00000  -0.00001  -0.00002
  39       13F-3        0.00001   0.00000  -0.00014   0.00194   0.00403
  40       14F 0        0.00126  -0.00001   0.00470   0.00261  -0.00198
  41       14F+1        0.00000   0.00000   0.00000  -0.00002  -0.00007
  42       14F-1        0.00000   0.00000   0.00001   0.00001   0.00004
  43       14F+2        0.00000   0.00000  -0.00002   0.00001   0.00002
  44       14F-2        0.00000   0.00000   0.00001  -0.00002  -0.00005
  45       14F+3        0.00000   0.00000  -0.00001   0.00000  -0.00002
  46       14F-3       -0.00044   0.00003   0.00190  -0.00103   0.00401
  47 2   H  1S         -0.00008   0.00000  -0.00856   0.03704   0.08208
  48        2S          0.00098  -0.00006  -0.01526   0.04356   0.08525
  49        3S          0.00181   0.00004  -0.00085  -0.00504  -0.01300
  50        4S          0.00003   0.00000  -0.00048   0.00052   0.00039
  51        5PX         0.00000   0.00000   0.00000   0.00001   0.00005
  52        5PY         0.00001   0.00000  -0.00109   0.00397   0.00876
  53        5PZ        -0.00004   0.00000   0.00028   0.00095   0.00036
  54        6PX         0.00000   0.00000  -0.00002   0.00006   0.00018
  55        6PY         0.00008   0.00000  -0.00071   0.00075   0.00109
  56        6PZ         0.00032  -0.00001   0.00006   0.00244  -0.00048
  57        7PX         0.00001   0.00000   0.00000   0.00009   0.00022
  58        7PY         0.00044   0.00001   0.00135  -0.00496  -0.01067
  59        7PZ        -0.00056   0.00001  -0.00281  -0.00175  -0.00137
  60        8D 0        0.00006   0.00000   0.00014  -0.00035  -0.00093
  61        8D+1        0.00000   0.00000   0.00000   0.00000   0.00000
  62        8D-1       -0.00001   0.00000  -0.00015   0.00049   0.00024
  63        8D+2       -0.00002   0.00000   0.00003  -0.00054  -0.00138
  64        8D-2        0.00000   0.00000   0.00000   0.00001   0.00003
  65        9D 0        0.00009  -0.00001  -0.00006   0.00122   0.00101
  66        9D+1        0.00000   0.00000   0.00000   0.00000  -0.00001
  67        9D-1        0.00014   0.00000  -0.00006   0.00004  -0.00038
  68        9D+2        0.00004   0.00000  -0.00099   0.00224   0.00420
  69        9D-2        0.00000   0.00000   0.00000   0.00001   0.00004
  70 3   H  1S         -0.00008   0.00000  -0.00835   0.03573   0.07744
  71        2S          0.00097  -0.00006  -0.01531   0.04295   0.08198
  72        3S          0.00179   0.00004  -0.00103  -0.00408  -0.00972
  73        4S          0.00003   0.00000  -0.00047   0.00051   0.00046
  74        5PX         0.00001   0.00000  -0.00092   0.00332   0.00720
  75        5PY        -0.00001   0.00000   0.00053  -0.00190  -0.00413
  76        5PZ        -0.00004   0.00000   0.00028   0.00092   0.00031
  77        6PX         0.00007   0.00000  -0.00075   0.00093   0.00150
  78        6PY        -0.00004   0.00000   0.00042  -0.00051  -0.00085
  79        6PZ         0.00031  -0.00001   0.00010   0.00240  -0.00051
  80        7PX         0.00037   0.00001   0.00115  -0.00405  -0.00834
  81        7PY        -0.00021   0.00000  -0.00061   0.00231   0.00473
  82        7PZ        -0.00053   0.00001  -0.00275  -0.00165  -0.00120
  83        8D 0        0.00006   0.00000   0.00014  -0.00034  -0.00088
  84        8D+1       -0.00001   0.00000  -0.00012   0.00042   0.00019
  85        8D-1        0.00000   0.00000   0.00007  -0.00024  -0.00011
  86        8D+2        0.00001   0.00000  -0.00002   0.00027   0.00067
  87        8D-2       -0.00001   0.00000   0.00003  -0.00045  -0.00114
  88        9D 0        0.00009  -0.00001  -0.00005   0.00118   0.00096
  89        9D+1        0.00012   0.00000  -0.00005   0.00004  -0.00032
  90        9D-1       -0.00007   0.00000   0.00002  -0.00002   0.00018
  91        9D+2       -0.00002   0.00000   0.00048  -0.00109  -0.00203
  92        9D-2        0.00003   0.00000  -0.00082   0.00187   0.00348
  93 4   H  1S         -0.00008   0.00000  -0.00856   0.03699   0.08175
  94        2S          0.00097  -0.00006  -0.01530   0.04348   0.08487
  95        3S          0.00178   0.00004  -0.00092  -0.00531  -0.01316
  96        4S          0.00003   0.00000  -0.00046   0.00048   0.00031
  97        5PX        -0.00001   0.00000   0.00094  -0.00342  -0.00753
  98        5PY        -0.00001   0.00000   0.00054  -0.00199  -0.00442
  99        5PZ        -0.00004   0.00000   0.00028   0.00096   0.00037
 100        6PX        -0.00007   0.00000   0.00063  -0.00065  -0.00090
 101        6PY        -0.00004   0.00000   0.00038  -0.00041  -0.00072
 102        6PZ         0.00032  -0.00001   0.00008   0.00243  -0.00049
 103        7PX        -0.00037  -0.00001  -0.00119   0.00439   0.00934
 104        7PY        -0.00022   0.00000  -0.00064   0.00242   0.00511
 105        7PZ        -0.00055   0.00001  -0.00280  -0.00173  -0.00136
 106        8D 0        0.00006   0.00000   0.00014  -0.00035  -0.00093
 107        8D+1        0.00001   0.00000   0.00013  -0.00043  -0.00021
 108        8D-1        0.00000   0.00000   0.00007  -0.00025  -0.00013
 109        8D+2        0.00001   0.00000  -0.00002   0.00026   0.00067
 110        8D-2        0.00001   0.00000  -0.00003   0.00047   0.00121
 111        9D 0        0.00008  -0.00001  -0.00006   0.00121   0.00099
 112        9D+1       -0.00012   0.00000   0.00005  -0.00003   0.00033
 113        9D-1       -0.00007   0.00000   0.00003  -0.00002   0.00020
 114        9D+2       -0.00002   0.00000   0.00049  -0.00111  -0.00210
 115        9D-2       -0.00003   0.00000   0.00084  -0.00193  -0.00360
 116 5   Cl 1S          0.00007   0.99708  -0.00063   0.06668  -0.03441
 117        2S         -0.00008   0.01040   0.00289  -0.25267   0.12931
 118        3S          0.00005   0.00017  -0.00385   0.52627  -0.27522
 119        4S          0.00008   0.00026  -0.00024   0.06449  -0.03711
 120        5S         -0.00180  -0.00020  -0.01225   0.35193  -0.16853
 121        6S         -0.00050  -0.00011  -0.00461   0.02446   0.01145
 122        7PX         0.00000   0.00000   0.00000  -0.00003  -0.00017
 123        7PY         0.00000   0.00000   0.00000   0.00002   0.00015
 124        7PZ         0.00735   0.00016   0.00153   0.00447   0.02897
 125        8PX         0.00000   0.00000  -0.00001   0.00008   0.00042
 126        8PY         0.00000   0.00000   0.00000  -0.00006  -0.00037
 127        8PZ         0.00051  -0.00003  -0.00229  -0.00572  -0.07243
 128        9PX         0.00000   0.00000   0.00000   0.00003   0.00018
 129        9PY         0.00000   0.00000   0.00000  -0.00002  -0.00016
 130        9PZ         0.00032   0.00003  -0.00265   0.00081  -0.03155
 131       10PX         0.00000   0.00000   0.00000   0.00002   0.00011
 132       10PY         0.00000   0.00000   0.00000  -0.00001  -0.00014
 133       10PZ         0.00095   0.00015   0.00270   0.00323  -0.05259
 134       11PX         0.00000   0.00000   0.00000   0.00000  -0.00002
 135       11PY         0.00000   0.00000   0.00000   0.00000   0.00000
 136       11PZ         0.00002   0.00002  -0.00040   0.00267  -0.00877
 137       12D 0       -0.00003   0.00001  -0.00035   0.00446   0.00457
 138       12D+1        0.00000   0.00000   0.00000  -0.00001  -0.00006
 139       12D-1        0.00000   0.00000   0.00000   0.00001   0.00005
 140       12D+2        0.00000   0.00000   0.00000   0.00000   0.00000
 141       12D-2        0.00000   0.00000   0.00000   0.00000   0.00001
 142       13D 0       -0.00022   0.00000  -0.00162   0.00815   0.00977
 143       13D+1        0.00000   0.00000   0.00000  -0.00003  -0.00010
 144       13D-1        0.00000   0.00000   0.00000   0.00003   0.00008
 145       13D+2        0.00000   0.00000   0.00000   0.00000  -0.00001
 146       13D-2        0.00000   0.00000   0.00000   0.00000   0.00001
 147       14D 0       -0.00014  -0.00004  -0.00184  -0.00020   0.00541
 148       14D+1        0.00000   0.00000   0.00000   0.00000   0.00001
 149       14D-1        0.00000   0.00000   0.00000   0.00000   0.00000
 150       14D+2        0.00000   0.00000   0.00000   0.00001   0.00001
 151       14D-2        0.00000   0.00000   0.00000   0.00000  -0.00001
 152       15F 0        0.00005   0.00000   0.00023  -0.00179  -0.00193
 153       15F+1        0.00000   0.00000   0.00000   0.00001   0.00003
 154       15F-1        0.00000   0.00000   0.00000  -0.00001  -0.00002
 155       15F+2        0.00000   0.00000   0.00000   0.00000   0.00000
 156       15F-2        0.00000   0.00000   0.00000   0.00000   0.00000
 157       15F+3        0.00000   0.00000   0.00000   0.00000   0.00000
 158       15F-3       -0.00001   0.00000  -0.00001   0.00002   0.00009
 159       16F 0       -0.00005   0.00001   0.00005  -0.00093  -0.00173
 160       16F+1        0.00000   0.00000   0.00000   0.00000   0.00001
 161       16F-1        0.00000   0.00000   0.00000   0.00000  -0.00001
 162       16F+2        0.00000   0.00000   0.00000   0.00000   0.00000
 163       16F-2        0.00000   0.00000   0.00000   0.00000   0.00001
 164       16F+3        0.00000   0.00000   0.00000   0.00000   0.00000
 165       16F-3        0.00003   0.00000   0.00002   0.00000  -0.00020
 166 6   F  1S          0.97742  -0.00002   0.21190   0.01295   0.02157
 167        2S         -0.01503   0.00000  -0.53164  -0.03352  -0.05722
 168        3S          0.04206   0.00000  -0.16472  -0.01065  -0.01850
 169        4S          0.00192  -0.00001  -0.36879  -0.02326  -0.04386
 170        5S         -0.00084  -0.00006  -0.04529   0.00417   0.00785
 171        6PX         0.00000   0.00000   0.00002   0.00013   0.00113
 172        6PY         0.00000   0.00000  -0.00001  -0.00009  -0.00080
 173        6PZ         0.00048   0.00000   0.01354   0.01235   0.08796
 174        7PX         0.00000   0.00000   0.00002   0.00016   0.00136
 175        7PY         0.00000   0.00000  -0.00002  -0.00011  -0.00096
 176        7PZ        -0.00012   0.00000   0.01477   0.01509   0.10582
 177        8PX         0.00000   0.00000   0.00002   0.00011   0.00104
 178        8PY         0.00000   0.00000  -0.00001  -0.00008  -0.00074
 179        8PZ         0.00240  -0.00001   0.01248   0.01193   0.08419
 180        9PX         0.00000   0.00000   0.00001   0.00003   0.00028
 181        9PY         0.00000   0.00000   0.00000  -0.00002  -0.00020
 182        9PZ        -0.00008  -0.00002   0.00220   0.00306   0.02438
 183       10D 0       -0.00002   0.00000  -0.00013   0.00017   0.00060
 184       10D+1        0.00000   0.00000   0.00000   0.00000   0.00001
 185       10D-1        0.00000   0.00000   0.00000   0.00000   0.00000
 186       10D+2        0.00000   0.00000   0.00000   0.00000   0.00000
 187       10D-2        0.00000   0.00000   0.00000   0.00000   0.00000
 188       11D 0       -0.00003   0.00000  -0.00104   0.00089   0.00276
 189       11D+1        0.00000   0.00000   0.00000   0.00001   0.00003
 190       11D-1        0.00000   0.00000   0.00000   0.00000  -0.00002
 191       11D+2        0.00000   0.00000   0.00000   0.00000   0.00000
 192       11D-2        0.00000   0.00000   0.00000   0.00000   0.00000
 193       12D 0        0.00080   0.00000  -0.00055   0.00034   0.00389
 194       12D+1        0.00000   0.00000   0.00000  -0.00001   0.00001
 195       12D-1        0.00000   0.00000   0.00000   0.00000  -0.00001
 196       12D+2        0.00000   0.00000   0.00000   0.00000   0.00001
 197       12D-2        0.00000   0.00000   0.00000  -0.00001  -0.00001
 198       13F 0       -0.00006   0.00000  -0.00002   0.00013   0.00027
 199       13F+1        0.00000   0.00000   0.00000   0.00000   0.00000
 200       13F-1        0.00000   0.00000   0.00000   0.00000   0.00000
 201       13F+2        0.00000   0.00000   0.00000   0.00000   0.00000
 202       13F-2        0.00000   0.00000   0.00000   0.00000   0.00000
 203       13F+3        0.00000   0.00000   0.00000   0.00000   0.00000
 204       13F-3        0.00001   0.00000   0.00001   0.00002   0.00003
 205       14F 0        0.00020   0.00000  -0.00040  -0.00006   0.00063
 206       14F+1        0.00000   0.00000   0.00000   0.00000   0.00000
 207       14F-1        0.00000   0.00000   0.00000   0.00000   0.00000
 208       14F+2        0.00000   0.00000   0.00000   0.00000   0.00000
 209       14F-2        0.00000   0.00000   0.00000   0.00000  -0.00001
 210       14F+3        0.00000   0.00000   0.00000   0.00000   0.00000
 211       14F-3       -0.00001   0.00000  -0.00007  -0.00006  -0.00009
                          11        12        13        14        15
     Eigenvalues --     1.96436   1.96433   1.95922   1.95900   1.94910
   1 1   C  1S         -0.00009   0.00138  -0.00007   0.00144   0.00012
   2        2S          0.00027  -0.00380   0.00024  -0.00390  -0.00035
   3        3S          0.00007  -0.00083   0.00007  -0.00075  -0.00008
   4        4S          0.00036  -0.00081   0.00056   0.00137  -0.00054
   5        5S          0.00007   0.00058   0.00023   0.00103  -0.00003
   6        6PX         0.05381   0.07797   0.13172   0.19018   0.03707
   7        6PY         0.08155  -0.05111   0.18994  -0.13213   0.05709
   8        6PZ        -0.00007   0.00018  -0.00012   0.00016  -0.00016
   9        7PX         0.07214   0.10463   0.17464   0.25211   0.05155
  10        7PY         0.10933  -0.06858   0.25185  -0.17517   0.07935
  11        7PZ        -0.00009   0.00015  -0.00016   0.00023  -0.00022
  12        8PX         0.05257   0.07620   0.13448   0.19419   0.03952
  13        8PY         0.07995  -0.05014   0.19422  -0.13514   0.06096
  14        8PZ        -0.00005   0.00023  -0.00015   0.00028  -0.00022
  15        9PX        -0.00129  -0.00219   0.01070   0.01539   0.00665
  16        9PY        -0.00186   0.00137   0.01553  -0.01077   0.01027
  17        9PZ         0.00001   0.00006  -0.00001   0.00005   0.00000
  18       10D 0        0.00000   0.00006   0.00001   0.00002   0.00003
  19       10D+1       -0.00149  -0.00222  -0.00073  -0.00104  -0.00204
  20       10D-1       -0.00226   0.00145  -0.00104   0.00071  -0.00313
  21       10D+2        0.00520  -0.00329   0.01220  -0.00855   0.00423
  22       10D-2        0.00344   0.00493   0.00847   0.01210   0.00275
  23       11D 0        0.00000   0.00007  -0.00002  -0.00015   0.00013
  24       11D+1       -0.00703  -0.01067   0.00433   0.00618  -0.00846
  25       11D-1       -0.01064   0.00699   0.00628  -0.00432  -0.01297
  26       11D+2        0.01719  -0.01096   0.03720  -0.02618   0.01431
  27       11D-2        0.01138   0.01645   0.02586   0.03710   0.00931
  28       12D 0       -0.00006   0.00025  -0.00002   0.00018   0.00011
  29       12D+1       -0.00336  -0.00520   0.00322   0.00464   0.00065
  30       12D-1       -0.00508   0.00340   0.00466  -0.00323   0.00099
  31       12D+2        0.01672  -0.01074   0.02952  -0.02089   0.00847
  32       12D-2        0.01098   0.01600   0.02044   0.02946   0.00546
  33       13F 0        0.00000   0.00000   0.00000  -0.00002   0.00000
  34       13F+1        0.00013   0.00022  -0.00115  -0.00165  -0.00122
  35       13F-1        0.00021  -0.00015  -0.00165   0.00114  -0.00188
  36       13F+2       -0.00053   0.00035  -0.00010   0.00009  -0.00028
  37       13F-2       -0.00035  -0.00053  -0.00007  -0.00013  -0.00018
  38       13F+3        0.00001   0.00001   0.00003   0.00002   0.00001
  39       13F-3        0.00001  -0.00006   0.00001  -0.00009   0.00000
  40       14F 0        0.00001   0.00002   0.00001   0.00007  -0.00001
  41       14F+1        0.00021   0.00041  -0.00333  -0.00474  -0.00396
  42       14F-1        0.00032  -0.00026  -0.00478   0.00327  -0.00607
  43       14F+2       -0.00321   0.00213  -0.00009   0.00010  -0.00271
  44       14F-2       -0.00213  -0.00321  -0.00008  -0.00017  -0.00178
  45       14F+3        0.00000   0.00004   0.00003   0.00012  -0.00001
  46       14F-3       -0.00001   0.00002   0.00000   0.00007  -0.00003
  47 2   H  1S         -0.05605   0.03457  -0.12453   0.08615  -0.03936
  48        2S         -0.05053   0.03071  -0.12691   0.08743  -0.03873
  49        3S          0.04811  -0.03045   0.09780  -0.06821   0.00446
  50        4S         -0.00487   0.00330   0.01423  -0.00985   0.00090
  51        5PX         0.00115   0.00168   0.00249   0.00362   0.00058
  52        5PY        -0.00440   0.00268  -0.01018   0.00701  -0.00303
  53        5PZ         0.00003  -0.00005  -0.00230   0.00159   0.00014
  54        6PX         0.00443   0.00653   0.00778   0.01138   0.00203
  55        6PY         0.00603  -0.00390   0.00927  -0.00655   0.00472
  56        6PZ        -0.00231   0.00151   0.00032  -0.00018  -0.00099
  57        7PX         0.00509   0.00743   0.00760   0.01100   0.00152
  58        7PY         0.01170  -0.00713   0.03747  -0.02596   0.00818
  59        7PZ         0.00054  -0.00027   0.00621  -0.00429   0.00249
  60        8D 0        0.00034  -0.00020   0.00111  -0.00077   0.00034
  61        8D+1        0.00001   0.00001   0.00018   0.00026  -0.00002
  62        8D-1       -0.00062   0.00040  -0.00020   0.00014  -0.00025
  63        8D+2        0.00050  -0.00030   0.00158  -0.00109   0.00044
  64        8D-2        0.00058   0.00084   0.00128   0.00186   0.00033
  65        9D 0       -0.00045   0.00029   0.00119  -0.00087  -0.00013
  66        9D+1       -0.00085  -0.00130   0.00057   0.00079  -0.00065
  67        9D-1       -0.00278   0.00186   0.00281  -0.00191  -0.00038
  68        9D+2       -0.00136   0.00081  -0.00222   0.00146  -0.00091
  69        9D-2        0.00091   0.00133   0.00164   0.00239   0.00061
  70 3   H  1S         -0.00413  -0.06479  -0.01284  -0.15187  -0.00263
  71        2S         -0.00386  -0.05962  -0.01341  -0.15829  -0.00262
  72        3S          0.00313   0.05422   0.00941   0.11502   0.00019
  73        4S         -0.00040  -0.00606   0.00138   0.01688   0.00004
  74        5PX         0.00072  -0.00447   0.00119  -0.01092   0.00033
  75        5PY         0.00193   0.00241   0.00422   0.00580   0.00100
  76        5PZ         0.00000   0.00010  -0.00024  -0.00275   0.00000
  77        6PX         0.00432   0.00568   0.00742   0.00868   0.00209
  78        6PY         0.00670  -0.00376   0.01122  -0.00634   0.00306
  79        6PZ        -0.00017  -0.00271  -0.00001   0.00013  -0.00006
  80        7PX         0.00534   0.01133   0.00992   0.03882   0.00187
  81        7PY         0.00757  -0.00704   0.00960  -0.02349   0.00216
  82        7PZ         0.00001   0.00044   0.00062   0.00739   0.00019
  83        8D 0        0.00003   0.00040   0.00012   0.00139   0.00002
  84        8D+1       -0.00003  -0.00064   0.00013  -0.00025  -0.00003
  85        8D-1        0.00003   0.00037   0.00028   0.00011  -0.00002
  86        8D+2        0.00087  -0.00035   0.00180  -0.00117   0.00049
  87        8D-2        0.00056   0.00048   0.00127   0.00161   0.00033
  88        9D 0       -0.00004  -0.00062   0.00010   0.00144  -0.00002
  89        9D+1       -0.00094  -0.00289   0.00075   0.00282  -0.00060
  90        9D-1       -0.00122   0.00175   0.00072  -0.00171  -0.00100
  91        9D+2        0.00151   0.00076   0.00263   0.00120   0.00101
  92        9D-2        0.00076  -0.00144   0.00127  -0.00249   0.00053
  93 4   H  1S          0.06016   0.02815   0.13717   0.06386   0.04166
  94        2S          0.05421   0.02500   0.13966   0.06472   0.04105
  95        3S         -0.05155  -0.02447  -0.10771  -0.05026  -0.00460
  96        4S          0.00526   0.00275  -0.01565  -0.00724  -0.00096
  97        5PX        -0.00456  -0.00100  -0.01064  -0.00252  -0.00302
  98        5PY        -0.00155  -0.00265  -0.00399  -0.00605  -0.00119
  99        5PZ        -0.00002  -0.00004   0.00254   0.00119  -0.00016
 100        6PX         0.00383   0.00626   0.00596   0.01045   0.00350
 101        6PY         0.00634  -0.00445   0.01013  -0.00838   0.00396
 102        6PZ         0.00248   0.00124  -0.00035  -0.00011   0.00104
 103        7PX         0.00879   0.00908   0.03284   0.02279   0.00683
 104        7PY         0.00986  -0.00407   0.02555  -0.00100   0.00543
 105        7PZ        -0.00059  -0.00020  -0.00687  -0.00318  -0.00261
 106        8D 0       -0.00036  -0.00016  -0.00123  -0.00057  -0.00036
 107        8D+1       -0.00058  -0.00028  -0.00026   0.00005  -0.00022
 108        8D-1       -0.00033  -0.00017   0.00001  -0.00030  -0.00014
 109        8D+2        0.00068  -0.00066   0.00170  -0.00137   0.00047
 110        8D-2        0.00023   0.00066   0.00102   0.00173   0.00026
 111        9D 0        0.00051   0.00025  -0.00131  -0.00062   0.00013
 112        9D+1       -0.00224  -0.00201   0.00246   0.00167  -0.00010
 113        9D-1       -0.00208   0.00045   0.00192  -0.00005  -0.00067
 114        9D+2       -0.00009  -0.00159  -0.00016  -0.00284  -0.00005
 115        9D-2       -0.00162   0.00015  -0.00270   0.00041  -0.00109
 116 5   Cl 1S         -0.00001   0.00020  -0.00001   0.00017   0.00003
 117        2S          0.00004  -0.00072   0.00002  -0.00060  -0.00010
 118        3S         -0.00009   0.00159  -0.00004   0.00138   0.00021
 119        4S         -0.00001   0.00023  -0.00001   0.00021   0.00003
 120        5S         -0.00004   0.00083  -0.00005   0.00068   0.00014
 121        6S          0.00000  -0.00028  -0.00007  -0.00038   0.00002
 122        7PX        -0.00484  -0.00703  -0.02488  -0.03720   0.12195
 123        7PY        -0.00733   0.00460  -0.03586   0.02583   0.18738
 124        7PZ         0.00002  -0.00041   0.00004  -0.00075  -0.00004
 125        8PX         0.01146   0.01663   0.05880   0.08783  -0.27899
 126        8PY         0.01736  -0.01089   0.08474  -0.06098  -0.42867
 127        8PZ        -0.00005   0.00100  -0.00008   0.00176   0.00009
 128        9PX         0.00532   0.00773   0.02720   0.04067  -0.13477
 129        9PY         0.00805  -0.00506   0.03920  -0.02824  -0.20708
 130        9PZ        -0.00003   0.00043  -0.00004   0.00078   0.00004
 131       10PX         0.00573   0.00838   0.03187   0.04799  -0.20054
 132       10PY         0.00866  -0.00548   0.04590  -0.03330  -0.30814
 133       10PZ        -0.00003   0.00076  -0.00001   0.00134   0.00002
 134       11PX         0.00118   0.00181   0.00196   0.00312  -0.03390
 135       11PY         0.00177  -0.00118   0.00280  -0.00215  -0.05210
 136       11PZ         0.00000   0.00013   0.00002   0.00023  -0.00002
 137       12D 0        0.00001  -0.00006   0.00001  -0.00008  -0.00001
 138       12D+1       -0.00104  -0.00149  -0.00352  -0.00512   0.00012
 139       12D-1       -0.00157   0.00098  -0.00508   0.00356   0.00018
 140       12D+2        0.00009  -0.00006   0.00045  -0.00032   0.00020
 141       12D-2        0.00006   0.00009   0.00031   0.00045   0.00013
 142       13D 0        0.00001  -0.00013   0.00001  -0.00018  -0.00002
 143       13D+1       -0.00160  -0.00228  -0.00625  -0.00909   0.00038
 144       13D-1       -0.00242   0.00149  -0.00900   0.00631   0.00057
 145       13D+2        0.00027  -0.00017   0.00053  -0.00038   0.00046
 146       13D-2        0.00018   0.00026   0.00036   0.00053   0.00030
 147       14D 0        0.00000  -0.00008  -0.00001  -0.00013   0.00000
 148       14D+1        0.00003   0.00005   0.00002   0.00000   0.00184
 149       14D-1        0.00005  -0.00003   0.00004  -0.00001   0.00280
 150       14D+2       -0.00055   0.00037  -0.00006   0.00004   0.00005
 151       14D-2       -0.00036  -0.00055  -0.00004  -0.00006   0.00004
 152       15F 0        0.00000   0.00002   0.00000   0.00003   0.00000
 153       15F+1        0.00049   0.00070   0.00150   0.00218  -0.00077
 154       15F-1        0.00074  -0.00046   0.00216  -0.00151  -0.00118
 155       15F+2       -0.00009   0.00006  -0.00028   0.00020  -0.00009
 156       15F-2       -0.00006  -0.00009  -0.00019  -0.00028  -0.00006
 157       15F+3        0.00000   0.00000   0.00000   0.00000   0.00000
 158       15F-3        0.00000   0.00000   0.00000   0.00000   0.00000
 159       16F 0        0.00000   0.00003   0.00000   0.00004   0.00000
 160       16F+1        0.00033   0.00047   0.00115   0.00169  -0.00098
 161       16F-1        0.00049  -0.00031   0.00165  -0.00117  -0.00150
 162       16F+2        0.00001  -0.00001   0.00015  -0.00010  -0.00016
 163       16F-2        0.00001   0.00001   0.00011   0.00015  -0.00011
 164       16F+3        0.00000   0.00000   0.00000   0.00000   0.00000
 165       16F-3        0.00000   0.00000   0.00000   0.00000   0.00000
 166 6   F  1S          0.00001  -0.00018   0.00000  -0.00014  -0.00003
 167        2S         -0.00004   0.00050  -0.00001   0.00044   0.00007
 168        3S         -0.00001   0.00016   0.00000   0.00014   0.00002
 169        4S         -0.00002   0.00037  -0.00003   0.00035   0.00003
 170        5S          0.00001  -0.00019  -0.00003  -0.00019  -0.00003
 171        6PX         0.18252   0.27990  -0.09232  -0.12806  -0.01235
 172        6PY         0.27770  -0.18425  -0.13282   0.08877  -0.01899
 173        6PZ        -0.00005  -0.00129   0.00013  -0.00259   0.00095
 174        7PX         0.21772   0.33387  -0.10946  -0.15180  -0.01462
 175        7PY         0.33127  -0.21978  -0.15749   0.10523  -0.02247
 176        7PZ        -0.00005  -0.00155   0.00015  -0.00309   0.00113
 177        8PX         0.17602   0.27002  -0.09208  -0.12790  -0.01252
 178        8PY         0.26782  -0.17774  -0.13249   0.08866  -0.01925
 179        8PZ        -0.00004  -0.00128   0.00011  -0.00256   0.00092
 180        9PX         0.05535   0.08499  -0.03246  -0.04529  -0.00609
 181        9PY         0.08420  -0.05593  -0.04673   0.03141  -0.00937
 182        9PZ        -0.00001  -0.00040   0.00003  -0.00076   0.00028
 183       10D 0        0.00000  -0.00001   0.00000  -0.00001   0.00000
 184       10D+1        0.00033   0.00050   0.00005   0.00008   0.00006
 185       10D-1        0.00050  -0.00033   0.00008  -0.00006   0.00010
 186       10D+2        0.00002  -0.00001   0.00003  -0.00002   0.00001
 187       10D-2        0.00001   0.00002   0.00002   0.00003   0.00001
 188       11D 0        0.00000  -0.00003   0.00000  -0.00004   0.00000
 189       11D+1        0.00133   0.00201   0.00070   0.00104   0.00032
 190       11D-1        0.00202  -0.00132   0.00100  -0.00072   0.00050
 191       11D+2        0.00004  -0.00002   0.00021  -0.00015   0.00015
 192       11D-2        0.00003   0.00004   0.00015   0.00021   0.00010
 193       12D 0        0.00000  -0.00006   0.00000  -0.00011   0.00003
 194       12D+1        0.00326   0.00501  -0.00203  -0.00284   0.00017
 195       12D-1        0.00496  -0.00330  -0.00292   0.00196   0.00026
 196       12D+2        0.00003  -0.00002  -0.00023   0.00016  -0.00031
 197       12D-2        0.00002   0.00003  -0.00016  -0.00023  -0.00020
 198       13F 0        0.00000   0.00000   0.00000   0.00000   0.00000
 199       13F+1        0.00012   0.00018   0.00014   0.00021   0.00003
 200       13F-1        0.00018  -0.00012   0.00021  -0.00015   0.00005
 201       13F+2        0.00005  -0.00003   0.00009  -0.00007   0.00005
 202       13F-2        0.00003   0.00004   0.00006   0.00009   0.00003
 203       13F+3        0.00000   0.00000   0.00000   0.00000   0.00000
 204       13F-3        0.00000   0.00000   0.00000   0.00000   0.00000
 205       14F 0        0.00000  -0.00001   0.00000  -0.00002   0.00001
 206       14F+1        0.00080   0.00123  -0.00050  -0.00069   0.00001
 207       14F-1        0.00122  -0.00081  -0.00072   0.00048   0.00001
 208       14F+2       -0.00011   0.00007  -0.00020   0.00014  -0.00014
 209       14F-2       -0.00007  -0.00011  -0.00014  -0.00020  -0.00009
 210       14F+3        0.00000   0.00000   0.00000   0.00000   0.00000
 211       14F-3        0.00000   0.00000   0.00000   0.00000   0.00000
                          16        17        18        19        20
     Eigenvalues --     1.94908   1.94876   1.93532   0.06021   0.02496
   1 1   C  1S         -0.00204   0.05345  -0.01584  -0.02405   0.00176
   2        2S          0.00586  -0.15218   0.05113   0.06667  -0.00642
   3        3S          0.00146  -0.03587   0.01677   0.02434  -0.00295
   4        4S          0.01214  -0.29226   0.08711  -0.22021  -0.00006
   5        5S          0.00241  -0.05756   0.03919  -0.02860   0.00099
   6        6PX         0.05819   0.00307  -0.00023   0.00005   0.14305
   7        6PY        -0.03793  -0.00232   0.00010   0.00011  -0.07088
   8        6PZ         0.00181  -0.04567  -0.12874   0.27950   0.00044
   9        7PX         0.08082   0.00431  -0.00046   0.00027   0.26676
  10        7PY        -0.05267  -0.00327   0.00023   0.00003  -0.13229
  11        7PZ         0.00255  -0.06468  -0.18068   0.44343   0.00072
  12        8PX         0.06211   0.00339  -0.00051  -0.00002   0.12260
  13        8PY        -0.04057  -0.00242   0.00031   0.00025  -0.06046
  14        8PZ         0.00266  -0.06406  -0.07645   0.20138  -0.00001
  15        9PX         0.01036   0.00051  -0.00007  -0.00006   0.02649
  16        9PY        -0.00677  -0.00033   0.00002   0.00001  -0.01281
  17        9PZ         0.00004  -0.00123  -0.00164  -0.00008  -0.00002
  18       10D 0       -0.00040   0.00935  -0.01106  -0.00876   0.00006
  19       10D+1       -0.00313  -0.00013  -0.00001   0.00007   0.02282
  20       10D-1        0.00203   0.00011   0.00000  -0.00006  -0.01115
  21       10D+2       -0.00282  -0.00019   0.00003  -0.00002  -0.00156
  22       10D-2        0.00426   0.00020   0.00000   0.00002   0.00334
  23       11D 0       -0.00207   0.04987  -0.04571   0.06666  -0.00068
  24       11D+1       -0.01289  -0.00055   0.00001   0.00000   0.05343
  25       11D-1        0.00837   0.00048  -0.00005   0.00003  -0.02606
  26       11D+2       -0.00960  -0.00078   0.00017  -0.00025  -0.03248
  27       11D-2        0.01449   0.00077  -0.00007   0.00001   0.06449
  28       12D 0       -0.00113   0.02814  -0.00385  -0.01681  -0.00013
  29       12D+1        0.00101   0.00004  -0.00003   0.00002   0.01693
  30       12D-1       -0.00065  -0.00005   0.00012  -0.00014  -0.00843
  31       12D+2       -0.00570  -0.00063   0.00016  -0.00028  -0.00767
  32       12D-2        0.00854   0.00048  -0.00005  -0.00013   0.01456
  33       13F 0        0.00008  -0.00209  -0.00327  -0.00587  -0.00013
  34       13F+1       -0.00189  -0.00009   0.00000  -0.00001  -0.00888
  35       13F-1        0.00123   0.00006  -0.00001   0.00000   0.00438
  36       13F+2        0.00018   0.00002  -0.00001   0.00005  -0.00139
  37       13F-2       -0.00028  -0.00003   0.00001   0.00000   0.00277
  38       13F+3        0.00001   0.00001  -0.00001   0.00000   0.00003
  39       13F-3        0.00010  -0.00311   0.00116  -0.00056  -0.00009
  40       14F 0        0.00025  -0.00544  -0.00087   0.01163  -0.00020
  41       14F+1       -0.00611  -0.00026   0.00001  -0.00007  -0.00257
  42       14F-1        0.00397   0.00015  -0.00001   0.00007   0.00129
  43       14F+2        0.00178   0.00015  -0.00003  -0.00003   0.00112
  44       14F-2       -0.00270  -0.00013   0.00002  -0.00003  -0.00211
  45       14F+3        0.00001   0.00007  -0.00004   0.00016   0.00019
  46       14F-3        0.00060  -0.01517   0.00916  -0.03760   0.00004
  47 2   H  1S          0.02747  -0.03222   0.02871  -0.00680  -0.01753
  48        2S          0.02586  -0.00159   0.02283   0.07952  -0.11713
  49        3S         -0.00417   0.02151   0.02062   0.06861  -0.07663
  50        4S         -0.00064   0.00012   0.00191   0.00720  -0.03148
  51        5PX         0.00092   0.00005  -0.00001   0.00000   0.00273
  52        5PY         0.00209  -0.00202   0.00248  -0.00200   0.00388
  53        5PZ         0.00002  -0.00267  -0.00322   0.01430   0.00540
  54        6PX         0.00323   0.00025  -0.00006   0.00013   0.00728
  55        6PY        -0.00334   0.00529  -0.00146   0.00970  -0.02729
  56        6PZ         0.00069  -0.00089  -0.01030   0.02812   0.00230
  57        7PX         0.00241   0.00017  -0.00004  -0.00008  -0.00077
  58        7PY        -0.00595   0.01077  -0.00153   0.01279  -0.02301
  59        7PZ        -0.00194   0.00796   0.00323  -0.01403  -0.00276
  60        8D 0       -0.00023   0.00013  -0.00085   0.00060  -0.00114
  61        8D+1       -0.00003   0.00000   0.00000   0.00000   0.00164
  62        8D-1        0.00017  -0.00019  -0.00171   0.00673   0.00174
  63        8D+2       -0.00031   0.00051  -0.00061   0.00186  -0.00112
  64        8D-2        0.00052   0.00004  -0.00001   0.00001   0.00203
  65        9D 0        0.00004   0.00084  -0.00282   0.00594   0.00153
  66        9D+1       -0.00098  -0.00003   0.00000   0.00001   0.00399
  67        9D-1        0.00016   0.00204  -0.00055  -0.00589  -0.00691
  68        9D+2        0.00054   0.00113   0.00034  -0.00111   0.00440
  69        9D-2        0.00097   0.00006  -0.00002   0.00001   0.00109
  70 3   H  1S         -0.04634  -0.03644   0.02901  -0.00683   0.04540
  71        2S         -0.04791  -0.00619   0.02337   0.07966   0.27198
  72        3S          0.00417   0.02178   0.02037   0.06761   0.17316
  73        4S          0.00108   0.00010   0.00196   0.00722   0.07124
  74        5PX        -0.00313  -0.00201   0.00214  -0.00166  -0.00749
  75        5PY         0.00171   0.00114  -0.00122   0.00095   0.00444
  76        5PZ         0.00028  -0.00264  -0.00314   0.01400  -0.01198
  77        6PX         0.00454   0.00528  -0.00150   0.00924   0.05440
  78        6PY        -0.00282  -0.00302   0.00082  -0.00507  -0.03058
  79        6PZ        -0.00108  -0.00114  -0.01019   0.02833  -0.00555
  80        7PX         0.00831   0.01010  -0.00154   0.01081   0.04542
  81        7PY        -0.00493  -0.00595   0.00097  -0.00638  -0.02629
  82        7PZ         0.00259   0.00811   0.00301  -0.01345   0.00567
  83        8D 0        0.00042   0.00016  -0.00084   0.00055   0.00249
  84        8D+1       -0.00025  -0.00020  -0.00146   0.00581  -0.00341
  85        8D-1        0.00014   0.00011   0.00083  -0.00330   0.00207
  86        8D+2       -0.00029  -0.00027   0.00030  -0.00089  -0.00115
  87        8D-2        0.00043   0.00045  -0.00052   0.00152   0.00216
  88        9D 0       -0.00017   0.00085  -0.00279   0.00581  -0.00372
  89        9D+1       -0.00044   0.00174  -0.00050  -0.00487   0.01356
  90        9D-1        0.00032  -0.00096   0.00028   0.00275  -0.00739
  91        9D+2        0.00055  -0.00051  -0.00019   0.00060   0.00525
  92        9D-2       -0.00104   0.00083   0.00034  -0.00102  -0.00872
  93 4   H  1S          0.02289  -0.03286   0.02884  -0.00683  -0.02169
  94        2S          0.02133  -0.00212   0.02291   0.07977  -0.14492
  95        3S         -0.00347   0.02184   0.02054   0.06901  -0.09488
  96        4S         -0.00051   0.00004   0.00197   0.00727  -0.04007
  97        5PX        -0.00103   0.00182  -0.00215   0.00175  -0.00296
  98        5PY        -0.00172   0.00098  -0.00124   0.00101  -0.00467
  99        5PZ         0.00004  -0.00267  -0.00321   0.01430   0.00685
 100        6PX         0.00416  -0.00457   0.00128  -0.00846   0.03258
 101        6PY        -0.00162  -0.00293   0.00078  -0.00483   0.01090
 102        6PZ         0.00056  -0.00096  -0.01031   0.02826   0.00303
 103        7PX         0.00562  -0.00929   0.00129  -0.01095   0.02472
 104        7PY         0.00022  -0.00574   0.00089  -0.00645   0.01483
 105        7PZ        -0.00168   0.00806   0.00312  -0.01392  -0.00320
 106        8D 0       -0.00019   0.00014  -0.00085   0.00061  -0.00142
 107        8D+1       -0.00014   0.00017   0.00148  -0.00583  -0.00117
 108        8D-1       -0.00005   0.00010   0.00085  -0.00336  -0.00243
 109        8D+2       -0.00035  -0.00029   0.00031  -0.00094  -0.00093
 110        8D-2        0.00051  -0.00042   0.00052  -0.00161   0.00218
 111        9D 0        0.00004   0.00085  -0.00283   0.00595   0.00189
 112        9D+1       -0.00063  -0.00178   0.00047   0.00512   0.00939
 113        9D-1        0.00085  -0.00096   0.00026   0.00292   0.00121
 114        9D+2       -0.00113  -0.00062  -0.00015   0.00056  -0.00361
 115        9D-2        0.00014  -0.00090  -0.00032   0.00100  -0.00411
 116 5   Cl 1S         -0.00040   0.01022   0.00049  -0.01679   0.00001
 117        2S          0.00152  -0.03901  -0.00163   0.05630  -0.00004
[...]
  80        7PX         0.46509  -7.74266  -6.03776  -1.72310   6.44406
  81        7PY         0.13913   5.58770  -8.65175   1.03712  -1.80008
  82        7PZ        -1.92011  -3.11225  -0.34590  -0.00972   0.71064
  83        8D 0       -0.03517   0.00920   0.00114   0.02405  -0.01470
  84        8D+1        0.01153  -0.01802  -0.02322   0.00935  -0.01446
  85        8D-1       -0.00543   0.01516  -0.03606  -0.00487   0.00525
  86        8D+2        0.06217  -0.01375   0.10360   0.02678   0.00324
  87        8D-2       -0.11043   0.00038   0.05964  -0.04500  -0.03371
  88        9D 0       -0.46130   0.51808   0.04886  -0.14358  -0.22928
  89        9D+1       -0.25695  -0.16219   0.17074  -0.04654   0.23084
  90        9D-1        0.13540   0.05167   0.34368   0.02362  -0.08233
  91        9D+2       -0.13036  -0.50566  -1.65913  -0.35629   0.36077
  92        9D-2        0.33741   1.21648  -0.81875   0.62858  -0.07276
  93 4   H  1S         -0.03652   0.00082  -0.01061  -0.00976   0.00096
  94        2S          0.34866   1.27784   3.15081  -0.51159  -0.02340
  95        3S          8.21209  10.57736  25.22149  -3.12831  -0.36582
  96        4S          1.50716  -0.92091  -1.64060  -1.94055  -0.23778
  97        5PX        -0.01885   0.08680   0.05908  -0.08010   0.02490
  98        5PY        -0.02475  -0.05837   0.08717  -0.04665  -0.04680
  99        5PZ         0.05966  -0.00236   0.01059   0.03117   0.00010
 100        6PX        -0.71057  -1.41569  -1.55764   0.59995  -0.25110
 101        6PY        -0.23040   0.69527  -1.61597   0.35164   0.46314
 102        6PZ        -0.32830   0.04610   0.01941  -0.16608  -0.00142
 103        7PX        -1.89528  -8.07394  -5.16283   1.68797  -1.68881
 104        7PY         0.26845   6.33072  -8.13104   1.00443   3.10475
 105        7PZ        -1.43464   1.54310   3.04571   0.00846  -0.00416
 106        8D 0       -0.03833  -0.00046  -0.01016   0.02452   0.00055
 107        8D+1       -0.01329  -0.02673  -0.01039  -0.00841   0.00245
 108        8D-1       -0.00328   0.02948  -0.02629  -0.00441  -0.00521
 109        8D+2        0.05561  -0.09903   0.04687   0.02502  -0.02658
 110        8D-2        0.11767   0.04325  -0.01828   0.04336   0.01430
 111        9D 0       -0.50989  -0.15094  -0.42126  -0.14904   0.00547
 112        9D+1        0.23720   0.08414  -0.23118   0.04044  -0.04268
 113        9D-1        0.09245  -0.36332   0.05255   0.01823   0.08298
 114        9D+2        0.06283   1.71825  -0.06129  -0.35251   0.50727
 115        9D-2       -0.27480  -0.32453   1.44190  -0.62576  -0.28878
 116 5   Cl 1S          0.02025  -0.00203   0.00028   0.01172  -0.00006
 117        2S          0.28040  -0.02805   0.00374   0.16299  -0.00092
 118        3S          0.78137  -0.07851   0.01077   0.45797  -0.00223
 119        4S         -0.04272   0.00369  -0.00006  -0.01455   0.00064
 120        5S         -4.35454   0.43583  -0.06594  -3.02399   0.01734
 121        6S         -9.75505   1.03868  -0.15832 -13.21476   0.00662
 122        7PX         0.00012   0.00050   0.00045   0.00009  -0.00152
 123        7PY        -0.00003  -0.00036   0.00062   0.00002   0.00257
 124        7PZ        -0.00446   0.00078  -0.00021  -0.02266  -0.00007
 125        8PX         0.00224   0.01376   0.01058   0.00152  -0.03065
 126        8PY        -0.00067  -0.00954   0.01432   0.00038   0.05113
 127        8PZ        -0.06257   0.01041  -0.00277  -0.31574  -0.00101
 128        9PX        -0.00056  -0.00254  -0.00224  -0.00032   0.00504
 129        9PY         0.00019   0.00185  -0.00317  -0.00007  -0.00861
 130        9PZ         0.00148  -0.00135   0.00053   0.07939   0.00023
 131       10PX         0.00214  -0.05474  -0.03184  -0.00776   0.22024
 132       10PY        -0.00945   0.03490  -0.03772  -0.00113  -0.36347
 133       10PZ         5.88365  -0.61721   0.09611   5.06287  -0.00545
 134       11PX        -0.08533  -0.93499  -0.66509  -0.00501  -0.13298
 135       11PY         0.07348   0.65515  -0.92261   0.00599   0.20794
 136       11PZ         0.78010  -0.08811   0.01262   3.34761   0.00182
 137       12D 0        0.06789  -0.00688   0.00105   0.00189   0.00002
 138       12D+1        0.00274   0.02478   0.01797   0.00027  -0.00167
 139       12D-1       -0.00231  -0.01739   0.02497  -0.00013   0.00318
 140       12D+2        0.00163   0.00466  -0.00720   0.00011  -0.01042
 141       12D-2       -0.00108  -0.00642  -0.00503   0.00003   0.00634
 142       13D 0       -0.38691   0.03910  -0.00568  -0.07061  -0.00014
 143       13D+1       -0.01059  -0.09054  -0.06640  -0.00115   0.01231
 144       13D-1        0.00875   0.06366  -0.09241   0.00017  -0.02201
 145       13D+2       -0.00446  -0.01071   0.01691  -0.00037   0.03763
 146       13D-2        0.00288   0.01471   0.01175   0.00002  -0.02289
 147       14D 0       -1.38299   0.14886  -0.02419  -1.23365  -0.00095
 148       14D+1        0.02292   0.25247   0.17622   0.00771  -0.16948
 149       14D-1       -0.01544  -0.17425   0.23981  -0.00004   0.28045
 150       14D+2        0.00479   0.03892  -0.04992   0.00213  -0.17412
 151       14D-2       -0.00524  -0.05616  -0.03718  -0.00291   0.10577
 152       15F 0       -0.04272   0.00495  -0.00080   0.00129  -0.00012
 153       15F+1        0.00035   0.00417   0.00302   0.00033  -0.00985
 154       15F-1       -0.00028  -0.00286   0.00409   0.00025   0.01591
 155       15F+2        0.00035   0.00559  -0.00703   0.00038  -0.00902
 156       15F-2       -0.00050  -0.00797  -0.00519  -0.00055   0.00541
 157       15F+3        0.00006   0.00012   0.00000  -0.00010  -0.00016
 158       15F-3       -0.00935   0.00068  -0.00041   0.02286   0.00009
 159       16F 0        0.23189  -0.02515   0.00423   0.08820   0.00064
 160       16F+1       -0.00095  -0.01454  -0.00925  -0.00139   0.03381
 161       16F-1        0.00041   0.00953  -0.01179  -0.00049  -0.05453
 162       16F+2       -0.00214  -0.02678   0.03469  -0.00113   0.03696
 163       16F-2        0.00277   0.03820   0.02556   0.00170  -0.02232
 164       16F+3       -0.00013  -0.00024   0.00001   0.00018   0.00035
 165       16F-3        0.01953  -0.00147   0.00095  -0.04266  -0.00023
 166 6   F  1S          0.04018  -0.00363   0.00049  -0.02273  -0.00003
 167        2S          0.14147  -0.01246   0.00156  -0.08631  -0.00014
 168        3S         -0.07192   0.00674  -0.00101   0.03681   0.00005
 169        4S         -0.37702   0.03311  -0.00358  -0.01941   0.00159
 170        5S         -0.07906   0.01260   0.01535  -5.94095   0.01494
 171        6PX        -0.00054  -0.00598  -0.00433  -0.00002   0.00084
 172        6PY         0.00054   0.00418  -0.00601   0.00000  -0.00143
 173        6PZ         0.00528  -0.00069   0.00018   0.00222   0.00006
 174        7PX         0.00266   0.03116   0.02232   0.00004  -0.00304
 175        7PY        -0.00256  -0.02170   0.03082   0.00002   0.00518
 176        7PZ        -0.06276   0.00706  -0.00149   0.00275  -0.00020
 177        8PX        -0.01715  -0.21900  -0.15445   0.00003   0.00047
 178        8PY         0.01602   0.15235  -0.21289   0.00038  -0.00117
 179        8PZ         0.62235  -0.06576   0.01418  -0.24764   0.00048
 180        9PX        -0.05337  -0.68443  -0.48278  -0.00209  -0.12188
 181        9PY         0.04107   0.47947  -0.66886   0.00005   0.19492
 182        9PZ        -0.87665   0.09457  -0.01331  -2.49443   0.00468
 183       10D 0        0.01121  -0.00111   0.00007  -0.00797   0.00004
 184       10D+1       -0.00100  -0.01211  -0.00861  -0.00009   0.00114
 185       10D-1        0.00070   0.00846  -0.01187  -0.00010  -0.00193
 186       10D+2       -0.00051  -0.00284   0.00420  -0.00002  -0.00248
 187       10D-2        0.00050   0.00396   0.00301   0.00000   0.00145
 188       11D 0       -0.04151   0.00425  -0.00032   0.01569  -0.00007
 189       11D+1        0.00314   0.03896   0.02766   0.00024  -0.00195
 190       11D-1       -0.00219  -0.02719   0.03814   0.00030   0.00340
 191       11D+2        0.00196   0.00966  -0.01446   0.00011   0.00877
 192       11D-2       -0.00176  -0.01339  -0.01027   0.00006  -0.00515
 193       12D 0        0.41213  -0.04274   0.00634  -0.01153  -0.00053
 194       12D+1       -0.00770  -0.11692  -0.08109  -0.00022  -0.01589
 195       12D-1        0.00582   0.08054  -0.11040  -0.00042   0.02632
 196       12D+2       -0.00763  -0.03593   0.05430  -0.00034  -0.01672
 197       12D-2        0.00662   0.04925   0.03813  -0.00013   0.00986
 198       13F 0       -0.02719   0.00294  -0.00041  -0.00758   0.00004
 199       13F+1       -0.00129  -0.01492  -0.01056  -0.00015   0.00417
 200       13F-1        0.00097   0.01059  -0.01480   0.00009  -0.00689
 201       13F+2        0.00070   0.00528  -0.00768  -0.00011  -0.00236
 202       13F-2       -0.00077  -0.00730  -0.00546  -0.00002   0.00145
 203       13F+3       -0.00008  -0.00022   0.00004   0.00000  -0.00003
 204       13F-3        0.01292  -0.00113   0.00001  -0.00127  -0.00002
 205       14F 0        0.06741  -0.00727   0.00095   0.01172  -0.00009
 206       14F+1        0.00301   0.03177   0.02288   0.00028  -0.00909
 207       14F-1       -0.00245  -0.02270   0.03234  -0.00015   0.01519
 208       14F+2       -0.00190  -0.01456   0.02100   0.00015   0.00564
 209       14F-2        0.00212   0.02011   0.01492   0.00007  -0.00342
 210       14F+3        0.00011   0.00035  -0.00006  -0.00001   0.00004
 211       14F-3       -0.01752   0.00147   0.00002   0.00242   0.00005
                         211
     Eigenvalues --     0.00000
   1 1   C  1S         -0.00271
   2        2S         -0.01594
   3        3S         -0.00222
   4        4S         -0.19236
   5        5S         -0.07162
   6        6PX         0.00627
   7        6PY         0.00401
   8        6PZ        -0.00002
   9        7PX        -1.28671
  10        7PY        -0.81988
  11        7PZ         0.00387
  12        8PX       -14.75805
  13        8PY        -9.12833
  14        8PZ         0.01047
  15        9PX        -6.73164
  16        9PY        -4.10972
  17        9PZ        -0.00465
  18       10D 0        0.00024
  19       10D+1        0.00136
  20       10D-1        0.00090
  21       10D+2       -0.01165
  22       10D-2       -0.01823
  23       11D 0        0.00266
  24       11D+1        0.17410
  25       11D-1        0.11163
  26       11D+2       -0.23337
  27       11D-2       -0.33633
  28       12D 0       -0.05060
  29       12D+1        1.09775
  30       12D-1        0.67108
  31       12D+2        0.26849
  32       12D-2        0.53491
  33       13F 0       -0.00013
  34       13F+1       -0.03333
  35       13F-1       -0.01986
  36       13F+2       -0.00478
  37       13F-2       -0.00806
  38       13F+3        0.00048
  39       13F-3        0.00022
  40       14F 0       -0.00051
  41       14F+1        0.34637
  42       14F-1        0.21266
  43       14F+2        0.04266
  44       14F-2        0.06489
  45       14F+3        0.00081
  46       14F-3       -0.00635
  47 2   H  1S          0.01419
  48        2S         -1.17822
  49        3S        -13.72919
  50        4S         -5.82780
  51        5PX        -0.04487
  52        5PY         0.06139
  53        5PZ         0.00542
  54        6PX         0.44813
  55        6PY        -0.70075
  56        6PZ        -0.08758
  57        7PX         3.02363
  58        7PY        -3.93015
  59        7PZ        -0.44038
  60        8D 0        0.00968
  61        8D+1       -0.00472
  62        8D-1        0.00814
  63        8D+2        0.02182
  64        8D-2       -0.02482
  65        9D 0        0.14328
  66        9D+1        0.07908
  67        9D-1       -0.14507
  68        9D+2        0.14370
  69        9D-2        0.49287
  70 3   H  1S          0.01167
  71        2S         -0.99096
  72        3S        -12.10567
  73        4S         -5.30170
  74        5PX         0.02676
  75        5PY        -0.06733
  76        5PZ         0.00491
  77        6PX        -0.30708
  78        6PY         0.68841
  79        6PZ        -0.07749
  80        7PX        -1.52215
  81        7PY         4.36710
  82        7PZ        -0.38595
  83        8D 0        0.00804
  84        8D+1        0.00458
  85        8D-1       -0.00840
  86        8D+2       -0.03171
  87        8D-2        0.00163
  88        9D 0        0.12813
  89        9D+1       -0.07474
  90        9D-1        0.13564
  91        9D+2        0.36787
  92        9D-2        0.36291
  93 4   H  1S         -0.02644
  94        2S          2.22337
  95        3S         25.93638
  96        4S         11.14913
  97        5PX         0.10238
  98        5PY         0.05791
  99        5PZ        -0.01078
 100        6PX        -1.15085
 101        6PY        -0.65393
 102        6PZ         0.16879
 103        7PX        -6.49917
 104        7PY        -3.69289
 105        7PZ         0.81277
 106        8D 0       -0.01887
 107        8D+1        0.01350
 108        8D-1        0.00778
 109        8D+2        0.01997
 110        8D-2        0.03485
 111        9D 0       -0.26445
 112        9D+1       -0.23853
 113        9D-1       -0.13570
 114        9D+2        0.14637
 115        9D-2        0.23684
 116 5   Cl 1S         -0.00009
 117        2S         -0.00136
 118        3S         -0.00355
 119        4S          0.00048
 120        5S          0.02036
 121        6S          0.05285
 122        7PX         0.00251
 123        7PY         0.00159
 124        7PZ         0.00011
 125        8PX         0.05022
 126        8PY         0.03137
 127        8PZ         0.00135
 128        9PX        -0.00841
 129        9PY        -0.00537
 130        9PZ        -0.00038
 131       10PX        -0.35988
 132       10PY        -0.22246
 133       10PZ        -0.02506
 134       11PX         0.21509
 135       11PY         0.12603
 136       11PZ        -0.01449
 137       12D 0        0.00000
 138       12D+1        0.00293
 139       12D-1        0.00207
 140       12D+2       -0.00622
 141       12D-2       -0.01028
 142       13D 0        0.00030
 143       13D+1       -0.02093
 144       13D-1       -0.01397
 145       13D+2        0.02249
 146       13D-2        0.03722
 147       14D 0        0.00569
 148       14D+1        0.27594
 149       14D-1        0.17107
 150       14D+2       -0.10473
 151       14D-2       -0.17314
 152       15F 0       -0.00002
 153       15F+1        0.01572
 154       15F-1        0.00951
 155       15F+2       -0.00553
 156       15F-2       -0.00904
 157       15F+3        0.00003
 158       15F-3       -0.00012
 159       16F 0       -0.00020
 160       16F+1       -0.05378
 161       16F-1       -0.03249
 162       16F+2        0.02239
 163       16F-2        0.03682
 164       16F+3       -0.00010
 165       16F-3        0.00028
 166 6   F  1S         -0.00018
 167        2S         -0.00079
 168        3S          0.00015
 169        4S          0.00447
 170        5S          0.02349
 171        6PX        -0.00140
 172        6PY        -0.00090
 173        6PZ        -0.00003
 174        7PX         0.00503
 175        7PY         0.00321
 176        7PZ         0.00008
 177        8PX        -0.00034
 178        8PY        -0.00046
 179        8PZ         0.00227
 180        9PX         0.19843
 181        9PY         0.11899
 182        9PZ         0.00980
 183       10D 0        0.00000
 184       10D+1       -0.00181
 185       10D-1       -0.00115
 186       10D+2       -0.00153
 187       10D-2       -0.00244
 188       11D 0        0.00007
 189       11D+1        0.00304
 190       11D-1        0.00199
 191       11D+2        0.00541
 192       11D-2        0.00866
 193       12D 0       -0.00005
 194       12D+1        0.02737
 195       12D-1        0.01698
 196       12D+2       -0.01033
 197       12D-2       -0.01661
 198       13F 0        0.00005
 199       13F+1       -0.00687
 200       13F-1       -0.00425
 201       13F+2       -0.00134
 202       13F-2       -0.00225
 203       13F+3        0.00001
 204       13F-3        0.00012
 205       14F 0       -0.00010
 206       14F+1        0.01517
 207       14F-1        0.00949
 208       14F+2        0.00331
 209       14F-2        0.00545
 210       14F+3       -0.00005
 211       14F-3       -0.00022
          Condensed to atoms (all electrons):
              1          2          3          4          5          6
     1  C    7.000158  -0.008963  -0.002370  -0.008993  -0.050953  -0.099776
     2  H   -0.008963   0.546717   0.019899   0.020996  -0.018893   0.004265
     3  H   -0.002370   0.019899   0.546587   0.019081  -0.018881   0.003968
     4  H   -0.008993   0.020996   0.019081   0.546605  -0.018987   0.004386
     5  Cl  -0.050953  -0.018893  -0.018881  -0.018987  17.709718   0.026428
     6  F   -0.099776   0.004265   0.003968   0.004386   0.026428   9.907801
 Mulliken atomic charges:
              1
     1  C   -0.829103
     2  H    0.435978
     3  H    0.431717
     4  H    0.436911
     5  Cl  -0.628431
     6  F   -0.847073
 Sum of Mulliken atomic charges =  -1.00000
 Mulliken charges with hydrogens summed into heavy atoms:
              1
     1  C    0.475504
     5  Cl  -0.628431
     6  F   -0.847073
 Sum of Mulliken charges with hydrogens summed into heavy atoms =  -1.00000
 Electronic spatial extent (au):  <R**2>=            490.3909
 Charge=             -1.0000 electrons
 Dipole moment (field-independent basis, Debye):
    X=             -0.0022    Y=             -0.0002    Z=              4.0643  Tot=              4.0643
 Quadrupole moment (field-independent basis, Debye-Ang):
   XX=            -28.1734   YY=            -28.1945   ZZ=            -62.8317
   XY=             -0.0008   XZ=             -0.0044   YZ=             -0.0129
 Traceless Quadrupole moment (field-independent basis, Debye-Ang):
   XX=             11.5598   YY=             11.5387   ZZ=            -23.0985
   XY=             -0.0008   XZ=             -0.0044   YZ=             -0.0129
 Octapole moment (field-independent basis, Debye-Ang**2):
  XXX=             -0.0064  YYY=             -0.9863  ZZZ=             49.6918  XYY=              0.0035
  XXY=              0.9485  XXZ=             -4.2444  XZZ=             -0.0007  YZZ=              0.0123
  YYZ=             -4.2294  XYZ=              0.0011
 Hexadecapole moment (field-independent basis, Debye-Ang**3):
 XXXX=            -41.3444 YYYY=            -41.3043 ZZZZ=           -761.7196 XXXY=              0.0062
 XXXZ=             -0.0640 YYYX=              0.0237 YYYZ=              0.5242 ZZZX=             -0.0915
 ZZZY=             -0.1821 XXYY=            -13.7754 XXZZ=           -103.4077 YYZZ=           -103.4025
 XXYZ=             -0.6816 YYXZ=             -0.0251 ZZXY=              0.0065
 N-N= 8.494868310088D+01 E-N=-1.604102259029D+03  KE= 5.991827622262D+02
 1\1\GINC-TRAPISTA\SP\RQCISD-FC\Aug-CC-pVTZ\C1H3Cl1F1(1-)\BRUNS\12-Aug-
 2021\0\\# QCISD aug-cc-pvtz nosymm density=current output=wfn\\title l
 ine\\-1,1\C,0,0.000175,0.000029,-0.497709\H,0,0.000019,-1.05257,-0.620
 726\H,0,-0.921312,0.526365,-0.621245\H,0,0.91175,0.526132,-0.62157\Cl,
 0,0.000555,0.000962,1.644718\F,0,-0.000186,-0.000921,-2.59346\\Version
 =EM64L-G09RevB.01\HF=-598.6170662\MP2=-599.291341\MP3=-599.3100313\MP4
 D=-599.3249392\MP4DQ=-599.3104881\MP4SDQ=-599.3198646\QCISD=-599.31924
 81\RMSD=9.365e-09\Dipole=-0.000914,0.000357,1.5865716\Quadrupole=8.594
 4432,8.5787374,-17.1731806,-0.0005944,-0.0033027,-0.0095577\PG=C01 [X(
 C1H3Cl1F1)]\\@

 Writing a WFN file to GAUSSIAN-XH_3.wfn.


 IT IS A QUALITY OF REVOLUTIONS NOT TO GO BY OLD LINES OR OLD LAWS,
 BUT TO BREAK UP BOTH, AND MAKE NEW ONES.
                                              -- A. LINCOLN (1848)
 Job cpu time:  0 days 21 hours 14 minutes 38.9 seconds.
 File lengths (MBytes):  RWF=  29002 Int=      0 D2E=      0 Chk=      4 Scr=      1
 Normal termination of Gaussian 09 at Thu Aug 12 17:56:24 2021.
