 title line
GAUSSIAN            211 MOL ORBITALS    339 PRIMITIVES        6 NUCLEI
  C    1    (CENTRE  1)   0.00033070  0.01895206 -0.94053370  CHARGE =  6.0
  H    2    (CENTRE  2)   0.00003590 -1.98906904 -1.17300214  CHARGE =  1.0
  H    3    (CENTRE  3)  -1.72213010  0.99468570 -1.17398291  CHARGE =  1.0
  H    4    (CENTRE  4)   1.72295780  0.99424539 -1.17459707  CHARGE =  1.0
  Cl   5    (CENTRE  5)   0.00104880  0.00181792  3.10806659  CHARGE = 17.0
  F    6    (CENTRE  6)  -0.00035149 -0.00174044 -4.90092914  CHARGE =  9.0
CENTRE ASSIGNMENTS    1  1  1  1  1  1  1  1  1  1  1  1  1  1  1  1  1  1  1  1
CENTRE ASSIGNMENTS    1  1  1  1  1  1  1  1  1  1  1  1  1  1  1  1  1  1  1  1
CENTRE ASSIGNMENTS    1  1  1  1  1  1  1  1  1  1  1  1  1  1  1  1  1  1  1  1
CENTRE ASSIGNMENTS    1  1  1  1  1  1  1  1  1  1  1  1  2  2  2  2  2  2  2  2
CENTRE ASSIGNMENTS    2  2  2  2  2  2  2  2  2  2  2  2  2  2  2  2  2  2  2  3
CENTRE ASSIGNMENTS    3  3  3  3  3  3  3  3  3  3  3  3  3  3  3  3  3  3  3  3
CENTRE ASSIGNMENTS    3  3  3  3  3  3  4  4  4  4  4  4  4  4  4  4  4  4  4  4
CENTRE ASSIGNMENTS    4  4  4  4  4  4  4  4  4  4  4  4  4  5  5  5  5  5  5  5
CENTRE ASSIGNMENTS    5  5  5  5  5  5  5  5  5  5  5  5  5  5  5  5  5  5  5  5
CENTRE ASSIGNMENTS    5  5  5  5  5  5  5  5  5  5  5  5  5  5  5  5  5  5  5  5
CENTRE ASSIGNMENTS    5  5  5  5  5  5  5  5  5  5  5  5  5  5  5  5  5  5  5  5
CENTRE ASSIGNMENTS    5  5  5  5  5  5  5  5  5  5  5  5  5  5  5  5  5  5  5  5
CENTRE ASSIGNMENTS    5  5  5  5  5  5  5  5  5  5  5  5  5  5  5  5  5  5  5  5
CENTRE ASSIGNMENTS    5  5  5  5  5  5  5  6  6  6  6  6  6  6  6  6  6  6  6  6
CENTRE ASSIGNMENTS    6  6  6  6  6  6  6  6  6  6  6  6  6  6  6  6  6  6  6  6
CENTRE ASSIGNMENTS    6  6  6  6  6  6  6  6  6  6  6  6  6  6  6  6  6  6  6  6
CENTRE ASSIGNMENTS    6  6  6  6  6  6  6  6  6  6  6  6  6  6  6  6  6  6  6
TYPE ASSIGNMENTS      1  1  1  1  1  1  1  1  1  1  1  1  1  1  1  1  2  2  2  3
TYPE ASSIGNMENTS      3  3  4  4  4  2  3  4  2  3  4  2  3  4  5  6  7  8  9 10
TYPE ASSIGNMENTS      5  6  7  8  9 10  5  6  7  8  9 10 11 12 13 17 14 15 18 19
TYPE ASSIGNMENTS     16 20 11 12 13 17 14 15 18 19 16 20  1  1  1  1  1  1  2  3
TYPE ASSIGNMENTS      4  2  3  4  2  3  4  5  6  7  8  9 10  5  6  7  8  9 10  1
TYPE ASSIGNMENTS      1  1  1  1  1  2  3  4  2  3  4  2  3  4  5  6  7  8  9 10
TYPE ASSIGNMENTS      5  6  7  8  9 10  1  1  1  1  1  1  2  3  4  2  3  4  2  3
TYPE ASSIGNMENTS      4  5  6  7  8  9 10  5  6  7  8  9 10  1  1  1  1  1  1  1
TYPE ASSIGNMENTS      1  1  1  1  1  1  1  1  1  1  1  1  1  1  1  1  1  1  1  1
TYPE ASSIGNMENTS      1  1  1  1  2  2  2  2  2  2  3  3  3  3  3  3  4  4  4  4
TYPE ASSIGNMENTS      4  4  2  2  2  2  2  2  3  3  3  3  3  3  4  4  4  4  4  4
TYPE ASSIGNMENTS      2  3  4  2  3  4  2  3  4  5  6  7  8  9 10  5  6  7  8  9
TYPE ASSIGNMENTS     10  5  6  7  8  9 10 11 12 13 17 14 15 18 19 16 20 11 12 13
TYPE ASSIGNMENTS     17 14 15 18 19 16 20  1  1  1  1  1  1  1  1  1  1  1  1  1
TYPE ASSIGNMENTS      1  1  1  2  2  2  3  3  3  4  4  4  2  3  4  2  3  4  2  3
TYPE ASSIGNMENTS      4  5  6  7  8  9 10  5  6  7  8  9 10  5  6  7  8  9 10 11
TYPE ASSIGNMENTS     12 13 17 14 15 18 19 16 20 11 12 13 17 14 15 18 19 16 20
EXPONENTS  0.8236000D+04 0.1235000D+04 0.2808000D+03 0.7927000D+02 0.2559000D+02
EXPONENTS  0.8997000D+01 0.3319000D+01 0.2808000D+03 0.7927000D+02 0.2559000D+02
EXPONENTS  0.8997000D+01 0.3319000D+01 0.3643000D+00 0.9059000D+00 0.1285000D+00
EXPONENTS  0.4402000D-01 0.1871000D+02 0.4133000D+01 0.1200000D+01 0.1871000D+02
EXPONENTS  0.4133000D+01 0.1200000D+01 0.1871000D+02 0.4133000D+01 0.1200000D+01
EXPONENTS  0.3827000D+00 0.3827000D+00 0.3827000D+00 0.1209000D+00 0.1209000D+00
EXPONENTS  0.1209000D+00 0.3569000D-01 0.3569000D-01 0.3569000D-01 0.1097000D+01
EXPONENTS  0.1097000D+01 0.1097000D+01 0.1097000D+01 0.1097000D+01 0.1097000D+01
EXPONENTS  0.3180000D+00 0.3180000D+00 0.3180000D+00 0.3180000D+00 0.3180000D+00
EXPONENTS  0.3180000D+00 0.1000000D+00 0.1000000D+00 0.1000000D+00 0.1000000D+00
EXPONENTS  0.1000000D+00 0.1000000D+00 0.7610000D+00 0.7610000D+00 0.7610000D+00
EXPONENTS  0.7610000D+00 0.7610000D+00 0.7610000D+00 0.7610000D+00 0.7610000D+00
EXPONENTS  0.7610000D+00 0.7610000D+00 0.2680000D+00 0.2680000D+00 0.2680000D+00
EXPONENTS  0.2680000D+00 0.2680000D+00 0.2680000D+00 0.2680000D+00 0.2680000D+00
EXPONENTS  0.2680000D+00 0.2680000D+00 0.3387000D+02 0.5095000D+01 0.1159000D+01
EXPONENTS  0.3258000D+00 0.1027000D+00 0.2526000D-01 0.1407000D+01 0.1407000D+01
EXPONENTS  0.1407000D+01 0.3880000D+00 0.3880000D+00 0.3880000D+00 0.1020000D+00
EXPONENTS  0.1020000D+00 0.1020000D+00 0.1057000D+01 0.1057000D+01 0.1057000D+01
EXPONENTS  0.1057000D+01 0.1057000D+01 0.1057000D+01 0.2470000D+00 0.2470000D+00
EXPONENTS  0.2470000D+00 0.2470000D+00 0.2470000D+00 0.2470000D+00 0.3387000D+02
EXPONENTS  0.5095000D+01 0.1159000D+01 0.3258000D+00 0.1027000D+00 0.2526000D-01
EXPONENTS  0.1407000D+01 0.1407000D+01 0.1407000D+01 0.3880000D+00 0.3880000D+00
EXPONENTS  0.3880000D+00 0.1020000D+00 0.1020000D+00 0.1020000D+00 0.1057000D+01
EXPONENTS  0.1057000D+01 0.1057000D+01 0.1057000D+01 0.1057000D+01 0.1057000D+01
EXPONENTS  0.2470000D+00 0.2470000D+00 0.2470000D+00 0.2470000D+00 0.2470000D+00
EXPONENTS  0.2470000D+00 0.3387000D+02 0.5095000D+01 0.1159000D+01 0.3258000D+00
EXPONENTS  0.1027000D+00 0.2526000D-01 0.1407000D+01 0.1407000D+01 0.1407000D+01
EXPONENTS  0.3880000D+00 0.3880000D+00 0.3880000D+00 0.1020000D+00 0.1020000D+00
EXPONENTS  0.1020000D+00 0.1057000D+01 0.1057000D+01 0.1057000D+01 0.1057000D+01
EXPONENTS  0.1057000D+01 0.1057000D+01 0.2470000D+00 0.2470000D+00 0.2470000D+00
EXPONENTS  0.2470000D+00 0.2470000D+00 0.2470000D+00 0.4561000D+06 0.6833000D+05
EXPONENTS  0.1555000D+05 0.4405000D+04 0.1439000D+04 0.5204000D+03 0.2031000D+03
EXPONENTS  0.8396000D+02 0.3620000D+02 0.1583000D+02 0.6334000D+01 0.4405000D+04
EXPONENTS  0.1439000D+04 0.5204000D+03 0.2031000D+03 0.8396000D+02 0.3620000D+02
EXPONENTS  0.1583000D+02 0.6334000D+01 0.2694000D+01 0.1439000D+04 0.2031000D+03
EXPONENTS  0.8396000D+02 0.3620000D+02 0.1583000D+02 0.6334000D+01 0.2694000D+01
EXPONENTS  0.4313000D+00 0.9768000D+00 0.1625000D+00 0.5910000D-01 0.6633000D+03
EXPONENTS  0.1568000D+03 0.4998000D+02 0.1842000D+02 0.7240000D+01 0.2922000D+01
EXPONENTS  0.6633000D+03 0.1568000D+03 0.4998000D+02 0.1842000D+02 0.7240000D+01
EXPONENTS  0.2922000D+01 0.6633000D+03 0.1568000D+03 0.4998000D+02 0.1842000D+02
EXPONENTS  0.7240000D+01 0.2922000D+01 0.1568000D+03 0.4998000D+02 0.1842000D+02
EXPONENTS  0.7240000D+01 0.2922000D+01 0.3818000D+00 0.1568000D+03 0.4998000D+02
EXPONENTS  0.1842000D+02 0.7240000D+01 0.2922000D+01 0.3818000D+00 0.1568000D+03
EXPONENTS  0.4998000D+02 0.1842000D+02 0.7240000D+01 0.2922000D+01 0.3818000D+00
EXPONENTS  0.1022000D+01 0.1022000D+01 0.1022000D+01 0.1301000D+00 0.1301000D+00
EXPONENTS  0.1301000D+00 0.4190000D-01 0.4190000D-01 0.4190000D-01 0.1046000D+01
EXPONENTS  0.1046000D+01 0.1046000D+01 0.1046000D+01 0.1046000D+01 0.1046000D+01
EXPONENTS  0.3440000D+00 0.3440000D+00 0.3440000D+00 0.3440000D+00 0.3440000D+00
EXPONENTS  0.3440000D+00 0.1350000D+00 0.1350000D+00 0.1350000D+00 0.1350000D+00
EXPONENTS  0.1350000D+00 0.1350000D+00 0.7060000D+00 0.7060000D+00 0.7060000D+00
EXPONENTS  0.7060000D+00 0.7060000D+00 0.7060000D+00 0.7060000D+00 0.7060000D+00
EXPONENTS  0.7060000D+00 0.7060000D+00 0.3120000D+00 0.3120000D+00 0.3120000D+00
EXPONENTS  0.3120000D+00 0.3120000D+00 0.3120000D+00 0.3120000D+00 0.3120000D+00
EXPONENTS  0.3120000D+00 0.3120000D+00 0.1950000D+05 0.2923000D+04 0.6645000D+03
EXPONENTS  0.1875000D+03 0.6062000D+02 0.2142000D+02 0.7950000D+01 0.6645000D+03
EXPONENTS  0.1875000D+03 0.6062000D+02 0.2142000D+02 0.7950000D+01 0.8815000D+00
EXPONENTS  0.2257000D+01 0.3041000D+00 0.9158000D-01 0.4388000D+02 0.9926000D+01
EXPONENTS  0.2930000D+01 0.4388000D+02 0.9926000D+01 0.2930000D+01 0.4388000D+02
EXPONENTS  0.9926000D+01 0.2930000D+01 0.9132000D+00 0.9132000D+00 0.9132000D+00
EXPONENTS  0.2672000D+00 0.2672000D+00 0.2672000D+00 0.7361000D-01 0.7361000D-01
EXPONENTS  0.7361000D-01 0.3107000D+01 0.3107000D+01 0.3107000D+01 0.3107000D+01
EXPONENTS  0.3107000D+01 0.3107000D+01 0.8550000D+00 0.8550000D+00 0.8550000D+00
EXPONENTS  0.8550000D+00 0.8550000D+00 0.8550000D+00 0.2920000D+00 0.2920000D+00
EXPONENTS  0.2920000D+00 0.2920000D+00 0.2920000D+00 0.2920000D+00 0.1917000D+01
EXPONENTS  0.1917000D+01 0.1917000D+01 0.1917000D+01 0.1917000D+01 0.1917000D+01
EXPONENTS  0.1917000D+01 0.1917000D+01 0.1917000D+01 0.1917000D+01 0.7240000D+00
EXPONENTS  0.7240000D+00 0.7240000D+00 0.7240000D+00 0.7240000D+00 0.7240000D+00
EXPONENTS  0.7240000D+00 0.7240000D+00 0.7240000D+00 0.7240000D+00
MO    1     MO 0.0        OCC NO =    2.0000300  ORB. ENERGY =    0.000000
  0.51196100D-04  0.95439845D-04  0.16130634D-03  0.24247352D-03  0.29783528D-03
  0.25136247D-03  0.94518854D-04 -0.70618715D-07 -0.52783114D-06 -0.19726255D-05
 -0.55033180D-05 -0.73729288D-05  0.87060542D-05  0.16788444D-04 -0.41292976D-04
 -0.55779755D-05  0.19933804D-07  0.18689208D-07  0.13307830D-07  0.10970081D-03
  0.10285148D-03  0.73236380D-04  0.97761803D-05  0.91657904D-05  0.65265888D-05
  0.58033775D-07  0.34430623D-03  0.64725435D-05  0.74803326D-07  0.45352578D-03
 -0.23716268D-07  0.15315803D-08  0.95052689D-05  0.48487288D-07  0.62264954D-04
 -0.59182147D-04 -0.30828075D-05 -0.11769020D-06 -0.10872585D-06 -0.51145458D-03
  0.18749595D-03 -0.19575999D-03  0.82640434D-05 -0.65434181D-07 -0.46236978D-07
  0.98890737D-04  0.42122185D-04 -0.39328866D-04 -0.27933184D-05 -0.28994337D-07
 -0.26322892D-07 -0.64723944D-04  0.20076948D-07  0.91804601D-04 -0.32206336D-05
  0.11181514D-07  0.90196758D-04  0.28678169D-04 -0.71412359D-07 -0.36561056D-03
 -0.19016268D-04 -0.17063617D-06  0.37229949D-08 -0.22725455D-04  0.31753777D-06
 -0.95753108D-08 -0.36779185D-04  0.51935946D-04 -0.15936740D-08  0.10495555D-03
 -0.52888560D-04  0.27654469D-07 -0.40072558D-04 -0.72272508D-04 -0.10656577D-03
  0.37861540D-03  0.11002183D-02 -0.11766517D-04  0.12813732D-07  0.69105596D-04
  0.21292226D-04  0.87908980D-07  0.28633050D-03  0.27499363D-03  0.28893682D-07
  0.17127073D-03  0.23944424D-04 -0.11067566D-03  0.42235448D-04  0.68440210D-04
  0.92705286D-07  0.98753107D-07  0.29623498D-03 -0.44325891D-04 -0.12567679D-04
  0.56893570D-04  0.14685377D-07  0.41951207D-07  0.31305054D-04  0.19765782D-04
  0.35648402D-04  0.52563548D-04 -0.14816577D-03 -0.55209013D-03  0.62126172D-05
 -0.26559771D-04  0.20253110D-04 -0.11168414D-04 -0.80962241D-04  0.12788092D-03
 -0.13533111D-03 -0.39900616D-04  0.96780469D-04 -0.11250598D-04  0.95544104D-05
  0.24153443D-04 -0.33707854D-04  0.73804364D-04 -0.15021068D-03  0.38936238D-04
  0.19539140D-04  0.55802104D-05 -0.25119350D-04  0.24603564D-04  0.13400348D-04
  0.54430763D-04  0.19768300D-04  0.35652943D-04  0.52570244D-04 -0.14818776D-03
 -0.55216511D-03  0.62136797D-05  0.26564221D-04  0.20248307D-04 -0.11178660D-04
  0.80963543D-04  0.12786575D-03 -0.13538050D-03  0.39932973D-04  0.96773432D-04
 -0.11267151D-04  0.95886746D-05  0.24176967D-04 -0.33765642D-04 -0.73789267D-04
  0.15020790D-03  0.38937613D-04  0.19528925D-04  0.55892560D-05 -0.25118181D-04
 -0.24592706D-04 -0.13415069D-04  0.54441791D-04  0.13452785D-03  0.25168725D-03
  0.43485974D-03  0.70495873D-03  0.10705475D-02  0.14879603D-02  0.17690707D-02
  0.15759497D-02  0.78264994D-03  0.12600002D-03  0.13293746D-05  0.63662427D-06
  0.21236720D-04  0.74005717D-04  0.26650657D-03  0.58748057D-03  0.82698303D-03
 -0.39449786D-04 -0.10822509D-02 -0.63992819D-03  0.49357743D-08  0.59784281D-07
  0.12467381D-06  0.35754279D-06  0.18566699D-07 -0.15418979D-05 -0.39839681D-05
  0.32459497D-05 -0.39064815D-04  0.17188239D-04  0.21119229D-05  0.19513725D-02
  0.25704141D-02  0.28355691D-02  0.23551621D-02  0.12506564D-02  0.32267590D-03
  0.11610448D+02  0.15293677D+02  0.16871319D+02  0.14012952D+02  0.74412661D+01
  0.19198856D+01  0.85952174D-01  0.11321912D+00  0.12489841D+00  0.10373791D+00
  0.55087709D-01  0.14212917D-01 -0.77237006D-07  0.74667768D-06  0.10528935D-05
  0.15059162D-05 -0.76257476D-08 -0.13810672D-05 -0.45949926D-03  0.44421431D-02
  0.62638855D-02  0.89590133D-02 -0.45367182D-04 -0.82162602D-02 -0.36457117D-05
  0.35244395D-04  0.49698276D-04  0.71081681D-04 -0.35994763D-06 -0.65188606D-04
  0.12882012D-04  0.76644109D-01  0.57416810D-03 -0.10927902D-06 -0.64488130D-03
 -0.84262308D-05 -0.97811266D-08 -0.58055885D-04 -0.52430835D-06  0.13679285D-04
 -0.53079039D-05 -0.83713807D-05 -0.17834678D-06 -0.17045672D-06 -0.98041122D-03
 -0.52666088D-05  0.21989434D-05  0.30676654D-05  0.64619468D-07  0.61486780D-07
  0.35469739D-03  0.13802160D-05 -0.11267824D-05 -0.25343359D-06 -0.11246471D-07
 -0.10575235D-07 -0.60689842D-04  0.69167714D-08  0.17330640D-05  0.27669314D-07
 -0.66842018D-08  0.39245835D-05  0.35795902D-04 -0.14066112D-07 -0.91237754D-05
 -0.35878910D-04 -0.19795219D-07  0.10285604D-08  0.14804688D-04 -0.20681305D-06
  0.40440795D-08  0.14050951D-04 -0.73236476D-05 -0.71297607D-08 -0.58465015D-04
  0.79440867D-05 -0.22583553D-07 -0.18208187D-04 -0.33940091D-04 -0.57536016D-04
 -0.87117309D-04 -0.10891582D-03 -0.93687140D-04 -0.35931035D-04  0.25516046D-07
  0.33778467D-06  0.12268954D-05  0.36395620D-05  0.41938601D-05 -0.50940678D-05
 -0.80024175D-06  0.10273342D-04  0.11386764D-04 -0.43360646D-07 -0.42405764D-07
 -0.28019281D-07 -0.29332427D-03 -0.28686473D-03 -0.18954365D-03  0.32897276D-04
  0.32172817D-04  0.21257940D-04 -0.24355660D-08 -0.10234234D-04  0.35939036D-05
 -0.82633408D-08 -0.65510796D-04  0.90352564D-05 -0.29964596D-08 -0.19703360D-04
  0.15426355D-05  0.72163030D-04 -0.68992061D-04 -0.31709690D-05 -0.53359437D-07
 -0.48553503D-07 -0.13416422D-03 -0.36244858D-04  0.34840733D-04  0.14041246D-05
  0.32767071D-07  0.29889636D-07  0.10230855D-03  0.18014661D-04 -0.18403567D-04
  0.38890609D-06 -0.20136393D-07 -0.17313783D-07 -0.72824063D-04 -0.43127151D-07
 -0.69842021D-04  0.17223429D-05  0.19312977D-07 -0.66717640D-04 -0.19521354D-03
  0.11006848D-06  0.27624370D-03  0.19004651D-03  0.19781295D-06  0.14051781D-07
  0.24730491D-04 -0.34910248D-06 -0.58953487D-08  0.23809631D-04  0.61824017D-04
 -0.36259993D-07 -0.98001104D-04 -0.60776709D-04 -0.67199673D-07
MO    2     MO 0.0        OCC NO =    2.0000300  ORB. ENERGY =    0.000000
  0.62312014D-08  0.11616215D-07  0.19632985D-07  0.29512039D-07  0.36250254D-07
  0.30593935D-07  0.11504119D-07 -0.11582209D-10 -0.86569836D-10 -0.32353124D-09
 -0.90260179D-09 -0.12092376D-08  0.14278841D-08  0.24848975D-08 -0.11112531D-07
 -0.30061954D-08 -0.11259991D-03 -0.10556957D-03 -0.75171824D-04  0.18914094D-07
  0.17733166D-07  0.12627070D-07  0.23739220D-07  0.22257028D-07  0.15848330D-07
 -0.38185375D-03  0.63864261D-07  0.66122766D-07 -0.47369217D-03  0.79761903D-07
  0.87439575D-07 -0.91559880D-05  0.15879442D-08  0.16675644D-08  0.75524163D-07
  0.13930816D-07 -0.89454979D-07 -0.13594895D-03  0.50791684D-03 -0.60280862D-07
 -0.60054613D-07  0.41102304D-07  0.18952309D-07 -0.39248765D-03 -0.96496984D-04
  0.84949015D-07  0.35166254D-08  0.93405748D-08 -0.12857200D-07 -0.82885778D-04
  0.67659447D-04  0.30557173D-08 -0.95509588D-04  0.15750951D-07 -0.67922391D-07
 -0.89802179D-04  0.77061235D-08  0.17984868D-06  0.37633094D-03 -0.54958975D-07
  0.23918490D-07 -0.51996237D-04  0.26629535D-04 -0.43706966D-08  0.20061785D-07
  0.29645971D-04 -0.23125500D-07 -0.64317468D-07 -0.10953458D-03  0.36237590D-07
  0.41321123D-08 -0.96680810D-04 -0.18532990D-08 -0.33425011D-08 -0.49285160D-08
  0.23003587D-07  0.45678359D-07 -0.22629903D-09 -0.43842013D-05  0.45248299D-08
  0.19846379D-08 -0.85930856D-04  0.25148872D-07  0.25986628D-07 -0.75736898D-04
  0.16608186D-07  0.14069476D-07 -0.16564032D-08  0.69760151D-08 -0.53196119D-08
 -0.33931295D-04  0.47503896D-04  0.10480531D-07 -0.16388913D-07  0.29234204D-08
  0.13465493D-07 -0.29533462D-04 -0.59485534D-04  0.14447538D-07  0.34895460D-04
  0.62935399D-04  0.92798210D-04 -0.33215145D-03 -0.99461999D-03  0.10637514D-04
 -0.57395215D-04  0.31165623D-04 -0.23203748D-04 -0.24430421D-03  0.91059915D-04
 -0.23198561D-03 -0.15168414D-03  0.41231797D-04 -0.18188150D-04 -0.11558674D-04
  0.69964505D-04 -0.58405831D-04  0.10938388D-03 -0.21281735D-03  0.14762110D-03
  0.10839503D-04  0.37941708D-04 -0.48781210D-04  0.16576378D-04 -0.38828108D-04
 -0.13412346D-04 -0.34894013D-04 -0.62932790D-04 -0.92794362D-04  0.33214957D-03
  0.99457510D-03 -0.10636906D-04 -0.57393152D-04 -0.31149564D-04  0.23222203D-04
 -0.24423982D-03 -0.90987531D-04  0.23206537D-03 -0.15168510D-03 -0.41185377D-04
  0.18241982D-04  0.11511486D-04 -0.69990812D-04  0.58479326D-04  0.10928410D-03
 -0.21281130D-03 -0.14760201D-03 -0.10847866D-04 -0.37945995D-04  0.48793861D-04
  0.16565271D-04 -0.38784310D-04  0.13420485D-04  0.59379785D-07  0.11109324D-06
  0.19194448D-06  0.31116455D-06  0.47253323D-06  0.65677673D-06  0.78085721D-06
  0.69561474D-06  0.34545699D-06  0.55615652D-07  0.58677798D-09  0.27912430D-09
  0.93111193D-08  0.32447387D-07  0.11684829D-06  0.25757752D-06  0.36258602D-06
 -0.17296535D-07 -0.47450677D-06 -0.28057288D-06  0.47158773D-11  0.57120790D-10
  0.11911939D-09  0.34161366D-09  0.17739522D-10 -0.14732038D-08 -0.38064756D-08
  0.31013372D-08 -0.16835158D-07  0.26298772D-08  0.66016950D-09 -0.11610710D+02
 -0.15294022D+02 -0.16871700D+02 -0.14013268D+02 -0.74414340D+01 -0.19199289D+01
  0.19360445D-02  0.25502235D-02  0.28132957D-02  0.23366624D-02  0.12408326D-02
  0.32014128D-03  0.20756701D-02  0.27341431D-02  0.30161878D-02  0.25051801D-02
  0.13303202D-02  0.34322955D-03  0.45954384D-03 -0.44425742D-02 -0.62644933D-02
 -0.89598826D-02  0.45371584D-04  0.82170574D-02 -0.76662180D-07  0.74112063D-06
  0.10450575D-05  0.14947086D-05 -0.75689940D-08 -0.13707888D-05 -0.82114828D-07
  0.79383332D-06  0.11193878D-05  0.16010207D-05 -0.81073436D-08 -0.14682870D-05
 -0.76659388D-01  0.12783482D-04  0.13704448D-04  0.64207595D-03 -0.10683587D-06
 -0.11489495D-06  0.57856010D-04 -0.96408604D-08 -0.10405477D-07  0.17174317D-06
  0.38695957D-08 -0.17561277D-06 -0.30641353D-04  0.98157322D-03 -0.15910416D-06
 -0.62515987D-07 -0.10667491D-08  0.63582736D-07  0.99490608D-05 -0.35794569D-03
  0.58553396D-07  0.10683698D-07  0.37445425D-09 -0.11058152D-07 -0.25386118D-05
  0.61515590D-04 -0.99249180D-08 -0.24084137D-05  0.39788581D-09 -0.16435523D-08
 -0.26049223D-05 -0.11506399D-07 -0.28310976D-08  0.98301634D-05  0.10312741D-07
  0.77617545D-08 -0.68186500D-04 -0.14743253D-04  0.25072764D-08 -0.10422300D-07
 -0.14666979D-04  0.47894348D-08  0.30194865D-07  0.58896739D-04 -0.12311264D-07
  0.10720344D-08  0.13261978D-04 -0.80094934D-08 -0.14929709D-07 -0.25309184D-07
 -0.38321527D-07 -0.47910349D-07 -0.41211492D-07 -0.15805494D-07  0.15876674D-10
  0.21017744D-09  0.76340271D-09  0.22646198D-08  0.26095169D-08 -0.31696469D-08
 -0.27778014D-09  0.55847891D-08  0.56909842D-08  0.28861155D-03  0.28225579D-03
  0.18649834D-03 -0.48131302D-07 -0.47071362D-07 -0.31102039D-07 -0.41761212D-07
 -0.40841554D-07 -0.26985741D-07  0.69645082D-05  0.24016444D-09 -0.23362291D-08
  0.67969178D-04 -0.12459887D-07 -0.59352644D-08  0.19389734D-04 -0.32623873D-08
 -0.26683409D-08  0.82373568D-08  0.16581478D-07 -0.24818835D-07 -0.14217019D-03
  0.13010280D-03  0.28130375D-08 -0.10183375D-07 -0.82160462D-08  0.18399421D-07
  0.71018254D-04 -0.10116097D-03  0.48843552D-08  0.86116646D-08  0.35380383D-08
 -0.12149703D-07 -0.35484196D-04  0.75277161D-04 -0.73674996D-08  0.73791449D-04
 -0.13910839D-07  0.50404883D-07  0.74250761D-04  0.51566303D-07 -0.97992697D-07
 -0.29562511D-03 -0.98337863D-08 -0.53221953D-07  0.36719823D-03 -0.26237030D-04
  0.49493749D-08 -0.17654333D-07 -0.26390354D-04 -0.15804932D-07  0.35988733D-07
  0.10510144D-03  0.95680681D-09  0.16974266D-07 -0.11624395D-03
MO    3     MO 0.0        OCC NO =    2.0000210  ORB. ENERGY =    0.000000
 -0.14457171D-01 -0.26951080D-01 -0.45550996D-01 -0.68471643D-01 -0.84105150D-01
 -0.70981779D-01 -0.26691003D-01 -0.38132329D-05 -0.28501553D-04 -0.10651681D-03
 -0.29716532D-03 -0.39811960D-03  0.47010501D-03 -0.87259395D-03 -0.19331697D-02
 -0.81885284D-04  0.20833973D-06  0.19533174D-06  0.13908784D-06  0.43921473D-05
  0.41179172D-05  0.29322024D-05  0.11669904D-02  0.10941277D-02  0.77908409D-03
  0.10493483D-06 -0.20655742D-04  0.60713205D-03 -0.66680302D-07  0.75966732D-06
 -0.37910480D-03  0.82387783D-09 -0.12037583D-06  0.46731338D-05 -0.11011454D-03
 -0.10101967D-03  0.21113421D-03  0.20935981D-08  0.11485759D-06 -0.84530491D-06
 -0.29216684D-04 -0.18663451D-04  0.47880136D-04  0.46912413D-08  0.26954846D-07
  0.71175909D-05  0.11763047D-04  0.11054945D-04 -0.22817992D-04  0.63852999D-10
 -0.12217869D-07  0.99338792D-06 -0.15445755D-07  0.35889509D-04  0.77225388D-05
  0.39083987D-07 -0.10900159D-03 -0.92874514D-05  0.72532790D-08  0.13330592D-05
 -0.13880165D-04  0.37471214D-07  0.30850163D-08  0.51639528D-04 -0.85652553D-04
  0.81788800D-07 -0.15535794D-03  0.12941425D-03 -0.91043849D-07  0.43936077D-06
  0.12754341D-03  0.54506667D-07 -0.61860209D-05 -0.11156744D-04 -0.16450612D-04
  0.73313975D-03  0.22889136D-03  0.46404574D-05  0.16501860D-07  0.92284115D-04
  0.26442204D-04  0.23802642D-07  0.19297699D-03 -0.12035015D-05  0.12383196D-07
  0.42258452D-04  0.39348193D-04 -0.73395023D-04  0.52900804D-04  0.20494220D-04
  0.45124848D-07  0.43074322D-07  0.75522793D-04 -0.88990599D-05 -0.12929006D-04
  0.21828066D-04 -0.69818306D-08  0.65243421D-08 -0.33886197D-04 -0.41372399D-05
 -0.74616825D-05 -0.11002246D-04  0.76146503D-03  0.23926754D-03  0.52665051D-05
  0.84624902D-04 -0.48306545D-04  0.29454487D-04  0.17792640D-03 -0.96259319D-04
 -0.58429223D-05  0.39451687D-04 -0.21432951D-04  0.38446685D-04  0.24418717D-04
 -0.43771420D-04  0.19352703D-04 -0.10933266D-03  0.66749735D-04 -0.36655834D-04
 -0.11165193D-04 -0.10370592D-04  0.21535786D-04  0.13582264D-05 -0.30237960D-04
  0.17430198D-04 -0.41373694D-05 -0.74619161D-05 -0.11002591D-04  0.76146439D-03
  0.23926484D-03  0.52664087D-05 -0.84626306D-04 -0.48284828D-04  0.29484583D-04
 -0.17795266D-03 -0.96213190D-04 -0.57775575D-05 -0.39443017D-04 -0.21422666D-04
  0.38460960D-04  0.24423029D-04 -0.43799106D-04  0.19376077D-04  0.10928417D-03
 -0.66763746D-04 -0.36678397D-04 -0.11154887D-04 -0.10370195D-04  0.21525082D-04
 -0.13517565D-05  0.30265216D-04  0.17422847D-04 -0.15460735D+00 -0.28925386D+00
 -0.49976651D+00 -0.81018023D+00 -0.12303364D+01 -0.17100519D+01 -0.20331206D+01
 -0.18111745D+01 -0.89946756D+00 -0.14480667D+00 -0.15277959D-02 -0.72286436D-03
 -0.24113545D-01 -0.84030876D-01 -0.30260879D+00 -0.66706342D+00 -0.93901001D+00
  0.44793838D-01  0.12288577D+01  0.72661584D+00 -0.15531861D-04 -0.18812877D-03
 -0.39232271D-03 -0.11251132D-02 -0.58425563D-04  0.48520339D-02  0.12536724D-01
 -0.10214332D-01  0.46601478D-01 -0.38464590D-03 -0.13208231D-03  0.10526781D-02
  0.13866233D-02  0.15296625D-02  0.12705045D-02  0.67467314D-03  0.17406920D-03
 -0.36471799D-01 -0.48041892D-01 -0.52997727D-01 -0.44018762D-01 -0.23375184D-01
 -0.60309197D-02  0.59407599D+01  0.78253705D+01  0.86326086D+01  0.71700574D+01
  0.38074994D+01  0.98235475D+00 -0.37351165D-07  0.36108703D-06  0.50917040D-06
  0.72824837D-06 -0.36877472D-08 -0.66787244D-06  0.11807222D-05 -0.11414462D-04
 -0.16095583D-04 -0.23020942D-04  0.11657481D-06  0.21112375D-04 -0.21076931D-03
  0.20375821D-02  0.28732034D-02  0.41094409D-02 -0.20809630D-04 -0.37687449D-02
  0.73807362D-05 -0.25450961D-03  0.41649538D-01 -0.85869704D-07  0.26713399D-05
 -0.48379463D-03 -0.17298038D-08  0.13979878D-06 -0.98334528D-05 -0.62427282D-05
 -0.80624257D-05  0.14305154D-04 -0.13374271D-08  0.69878873D-08 -0.39143183D-05
 -0.11169748D-03 -0.11110298D-03  0.22280047D-03 -0.20163314D-09  0.11896729D-06
 -0.22723402D-05 -0.14348417D-04 -0.14292331D-04  0.28640748D-04 -0.11896024D-09
  0.15324818D-07 -0.85213694D-06  0.11263821D-08 -0.68364595D-05  0.54473334D-05
 -0.96272110D-08  0.21993085D-04 -0.88867956D-05  0.62480648D-08 -0.14837065D-05
 -0.74552046D-05 -0.76270857D-08  0.83199494D-08  0.17005994D-05 -0.33742052D-04
  0.11300916D-07 -0.65044817D-05  0.51040940D-04 -0.36260764D-07  0.14026834D-05
  0.50185215D-04  0.24252190D-08 -0.87906826D-03 -0.16385848D-02 -0.27777662D-02
 -0.42059137D-02 -0.52583185D-02 -0.45230968D-02 -0.17347050D-02 -0.68400756D-06
 -0.90549794D-05 -0.32889333D-04 -0.97565585D-04 -0.11242463D-03  0.13655646D-03
 -0.95926907D-04 -0.15941995D-03  0.12337603D-04  0.66787713D-06  0.65316925D-06
  0.43157654D-06  0.23857297D-04  0.23331916D-04  0.15416383D-04  0.39016218D-02
  0.38157009D-02  0.25211949D-02  0.14972470D-06  0.62590674D-05  0.87909919D-03
  0.41180900D-08 -0.72991349D-06  0.21425764D-04  0.15445823D-08  0.21291023D-06
  0.93271187D-05 -0.36498653D-04 -0.34752972D-04  0.71251625D-04  0.19993201D-08
  0.36925954D-07  0.31574853D-05  0.21524795D-04  0.20657220D-04 -0.42182015D-04
 -0.84179991D-09 -0.22046169D-07 -0.10120356D-05  0.17929730D-04  0.18264547D-04
 -0.36194277D-04 -0.94195482D-10 -0.17992506D-07 -0.16075044D-05 -0.95844389D-08
 -0.56571008D-05  0.46274109D-04 -0.14577034D-07  0.61138822D-05 -0.67931347D-04
  0.43330351D-07  0.10857420D-04 -0.70890979D-04  0.23950434D-08  0.57475490D-08
  0.19522461D-05 -0.25335644D-04  0.72958104D-08 -0.17588478D-05  0.37615894D-04
 -0.24538458D-07 -0.40978907D-05  0.38391039D-04 -0.11082211D-08
MO    4     MO 0.0        OCC NO =    2.0000123  ORB. ENERGY =    0.000000
  0.26837152D-01  0.50029858D-01  0.84557275D-01  0.12710536D+00  0.15612616D+00
  0.13176497D+00  0.49547071D-01 -0.14525009D-05 -0.10856545D-04 -0.40573386D-04
 -0.11319343D-03 -0.15164799D-03  0.17906800D-03  0.26464989D-02 -0.36095490D-02
 -0.42152989D-04  0.64788151D-06  0.60743009D-06  0.43252641D-06 -0.85672386D-05
 -0.80323308D-05 -0.57194980D-05  0.36696969D-02  0.34405741D-02  0.24498937D-02
  0.22855364D-06 -0.44073769D-04  0.13054976D-02 -0.74150730D-07 -0.60997342D-05
 -0.41699207D-03  0.68531997D-09 -0.16046552D-06  0.37071690D-05 -0.32371287D-03
 -0.31478459D-03  0.63849746D-03  0.81767523D-09  0.34111069D-06 -0.65673409D-05
 -0.38992188D-05  0.23542511D-04 -0.19643292D-04  0.12750749D-07 -0.46272622D-08
  0.16810911D-04 -0.18801899D-04 -0.16964165D-04  0.35766064D-04  0.89410027D-09
  0.18932640D-07  0.11882850D-05  0.11058697D-07 -0.42915321D-04  0.22567314D-04
 -0.55015439D-07  0.12631732D-03 -0.29761102D-04  0.21839348D-07  0.24286393D-05
 -0.37940841D-04 -0.46133916D-07  0.12902856D-07  0.81381545D-04 -0.16375011D-03
  0.13663260D-06 -0.24607429D-03  0.24930109D-03 -0.17534117D-06  0.19296513D-05
  0.24194924D-03  0.85474669D-07 -0.89828493D-04 -0.16200939D-03 -0.23888275D-03
  0.97667874D-03  0.65132423D-03  0.37456828D-05 -0.28464579D-08 -0.65761052D-04
  0.29168339D-04  0.30321690D-07  0.28743464D-03 -0.32673664D-04  0.27005785D-07
  0.10648625D-03  0.75581975D-04 -0.13816598D-03  0.14368934D-04  0.12379705D-03
  0.64157276D-07  0.11072650D-06  0.14259669D-03 -0.13768891D-04 -0.22544725D-04
  0.36313616D-04 -0.12945986D-07  0.99865386D-08 -0.61334001D-04 -0.90572197D-04
 -0.16335069D-03 -0.24086049D-03  0.10450162D-02  0.70062761D-03  0.45228439D-05
 -0.47356526D-04  0.25727216D-04  0.35727617D-04  0.27343836D-03 -0.15221022D-03
 -0.48764435D-04  0.97808351D-04 -0.57023353D-04  0.76000923D-04 -0.13639580D-04
 -0.10177086D-03  0.11541044D-03 -0.14928765D-03  0.12434936D-03 -0.69393405D-04
 -0.19534126D-04 -0.15919504D-04  0.35453630D-04  0.36812364D-05 -0.54675925D-04
  0.32414250D-04 -0.90572349D-04 -0.16335096D-03 -0.24086090D-03  0.10450094D-02
  0.70062504D-03  0.45224981D-05  0.47377129D-04  0.25715573D-04  0.35709741D-04
 -0.27349200D-03 -0.15213869D-03 -0.48665291D-04 -0.97795541D-04 -0.56998311D-04
  0.76035790D-04 -0.13645370D-04 -0.10180774D-03  0.11545311D-03  0.14921678D-03
 -0.12427596D-03 -0.69414590D-04 -0.19515974D-04 -0.15918641D-04  0.35434615D-04
 -0.36679712D-05  0.54723618D-04  0.32401858D-04  0.91304941D-01  0.17082180D+00
  0.29514218D+00  0.47846016D+00  0.72658766D+00  0.10098885D+01  0.12006800D+01
  0.10696075D+01  0.53118970D+00  0.85517048D-01  0.90225536D-03  0.42748819D-03
  0.14260290D-01  0.49694257D-01  0.17895707D+00  0.39448858D+00  0.55531260D+00
 -0.26490221D-01 -0.72672297D+00 -0.42970674D+00  0.62772413D-05  0.76032722D-04
  0.15855823D-03  0.45471739D-03  0.23612841D-04 -0.19609619D-02 -0.50667489D-02
  0.41281485D-02 -0.28542477D-01  0.14179619D-02 -0.18184372D-03  0.17614153D-02
  0.23201960D-02  0.25595394D-02  0.21258979D-02  0.11289108D-02  0.29126488D-03
 -0.77988184D-01 -0.10272868D+00 -0.11332582D+00 -0.94125964D-01 -0.49983499D-01
 -0.12896004D-01  0.99146397D+01  0.13059900D+02  0.14407114D+02  0.11966236D+02
  0.63544035D+01  0.16394693D+01 -0.59860151D-07  0.57868942D-06  0.81601249D-06
  0.11671137D-05 -0.59100996D-08 -0.10703534D-05  0.23830401D-05 -0.23037698D-04
 -0.32485559D-04 -0.46462943D-04  0.23528180D-06  0.42610901D-04 -0.33686235D-03
  0.32565684D-02  0.45921014D-02  0.65679198D-02 -0.33259021D-04 -0.60234019D-02
  0.12890703D-04 -0.56337827D-03  0.72557648D-01 -0.54002375D-07  0.19907226D-05
 -0.30631274D-03 -0.66993235D-09  0.17799640D-06 -0.39505947D-05  0.45541935D-03
  0.45350120D-03 -0.90892056D-03  0.18872491D-08 -0.48534709D-06  0.14076374D-04
 -0.31017523D-03 -0.30918487D-03  0.61936009D-03 -0.12517369D-08  0.33049289D-06
 -0.86880142D-05  0.43428965D-05  0.43223791D-05 -0.86652756D-05 -0.47077085D-10
 -0.48126428D-08 -0.25760735D-06  0.17882500D-07 -0.14236676D-04 -0.46952688D-04
 -0.39492917D-08  0.43850732D-04  0.69445643D-04 -0.49698209D-07 -0.11407037D-05
  0.71412422D-04 -0.15348414D-07  0.15227443D-07  0.35924496D-05 -0.62598123D-04
  0.21333083D-07 -0.13100946D-04  0.94654159D-04 -0.67015412D-07  0.23235977D-05
  0.93140211D-04  0.50014945D-08 -0.63575374D-02 -0.11850461D-01 -0.20089171D-01