 title line
GAUSSIAN            211 MOL ORBITALS    339 PRIMITIVES        6 NUCLEI
  C    1    (CENTRE  1)   0.00033070  0.00005480 -0.94053370  CHARGE =  6.0
  H    2    (CENTRE  2)   0.00003590 -1.98906904 -1.17300214  CHARGE =  1.0
  H    3    (CENTRE  3)  -1.72213010  0.99468570 -1.17398291  CHARGE =  1.0
  H    4    (CENTRE  4)   1.72295780  0.99424539 -1.17459707  CHARGE =  1.0
  Cl   5    (CENTRE  5)   0.00104880  0.00181792  3.10806659  CHARGE = 17.0
  F    6    (CENTRE  6)  -0.00035149 -0.00174044 -4.90092914  CHARGE =  9.0
CENTRE ASSIGNMENTS    1  1  1  1  1  1  1  1  1  1  1  1  1  1  1  1  1  1  1  1
CENTRE ASSIGNMENTS    1  1  1  1  1  1  1  1  1  1  1  1  1  1  1  1  1  1  1  1
CENTRE ASSIGNMENTS    1  1  1  1  1  1  1  1  1  1  1  1  1  1  1  1  1  1  1  1
CENTRE ASSIGNMENTS    1  1  1  1  1  1  1  1  1  1  1  1  2  2  2  2  2  2  2  2
CENTRE ASSIGNMENTS    2  2  2  2  2  2  2  2  2  2  2  2  2  2  2  2  2  2  2  3
CENTRE ASSIGNMENTS    3  3  3  3  3  3  3  3  3  3  3  3  3  3  3  3  3  3  3  3
CENTRE ASSIGNMENTS    3  3  3  3  3  3  4  4  4  4  4  4  4  4  4  4  4  4  4  4
CENTRE ASSIGNMENTS    4  4  4  4  4  4  4  4  4  4  4  4  4  5  5  5  5  5  5  5
CENTRE ASSIGNMENTS    5  5  5  5  5  5  5  5  5  5  5  5  5  5  5  5  5  5  5  5
CENTRE ASSIGNMENTS    5  5  5  5  5  5  5  5  5  5  5  5  5  5  5  5  5  5  5  5
CENTRE ASSIGNMENTS    5  5  5  5  5  5  5  5  5  5  5  5  5  5  5  5  5  5  5  5
CENTRE ASSIGNMENTS    5  5  5  5  5  5  5  5  5  5  5  5  5  5  5  5  5  5  5  5
CENTRE ASSIGNMENTS    5  5  5  5  5  5  5  5  5  5  5  5  5  5  5  5  5  5  5  5
CENTRE ASSIGNMENTS    5  5  5  5  5  5  5  6  6  6  6  6  6  6  6  6  6  6  6  6
CENTRE ASSIGNMENTS    6  6  6  6  6  6  6  6  6  6  6  6  6  6  6  6  6  6  6  6
CENTRE ASSIGNMENTS    6  6  6  6  6  6  6  6  6  6  6  6  6  6  6  6  6  6  6  6
CENTRE ASSIGNMENTS    6  6  6  6  6  6  6  6  6  6  6  6  6  6  6  6  6  6  6
TYPE ASSIGNMENTS      1  1  1  1  1  1  1  1  1  1  1  1  1  1  1  1  2  2  2  3
TYPE ASSIGNMENTS      3  3  4  4  4  2  3  4  2  3  4  2  3  4  5  6  7  8  9 10
TYPE ASSIGNMENTS      5  6  7  8  9 10  5  6  7  8  9 10 11 12 13 17 14 15 18 19
TYPE ASSIGNMENTS     16 20 11 12 13 17 14 15 18 19 16 20  1  1  1  1  1  1  2  3
TYPE ASSIGNMENTS      4  2  3  4  2  3  4  5  6  7  8  9 10  5  6  7  8  9 10  1
TYPE ASSIGNMENTS      1  1  1  1  1  2  3  4  2  3  4  2  3  4  5  6  7  8  9 10
TYPE ASSIGNMENTS      5  6  7  8  9 10  1  1  1  1  1  1  2  3  4  2  3  4  2  3
TYPE ASSIGNMENTS      4  5  6  7  8  9 10  5  6  7  8  9 10  1  1  1  1  1  1  1
TYPE ASSIGNMENTS      1  1  1  1  1  1  1  1  1  1  1  1  1  1  1  1  1  1  1  1
TYPE ASSIGNMENTS      1  1  1  1  2  2  2  2  2  2  3  3  3  3  3  3  4  4  4  4
TYPE ASSIGNMENTS      4  4  2  2  2  2  2  2  3  3  3  3  3  3  4  4  4  4  4  4
TYPE ASSIGNMENTS      2  3  4  2  3  4  2  3  4  5  6  7  8  9 10  5  6  7  8  9
TYPE ASSIGNMENTS     10  5  6  7  8  9 10 11 12 13 17 14 15 18 19 16 20 11 12 13
TYPE ASSIGNMENTS     17 14 15 18 19 16 20  1  1  1  1  1  1  1  1  1  1  1  1  1
TYPE ASSIGNMENTS      1  1  1  2  2  2  3  3  3  4  4  4  2  3  4  2  3  4  2  3
TYPE ASSIGNMENTS      4  5  6  7  8  9 10  5  6  7  8  9 10  5  6  7  8  9 10 11
TYPE ASSIGNMENTS     12 13 17 14 15 18 19 16 20 11 12 13 17 14 15 18 19 16 20
EXPONENTS  0.8236000D+04 0.1235000D+04 0.2808000D+03 0.7927000D+02 0.2559000D+02
EXPONENTS  0.8997000D+01 0.3319000D+01 0.2808000D+03 0.7927000D+02 0.2559000D+02
EXPONENTS  0.8997000D+01 0.3319000D+01 0.3643000D+00 0.9059000D+00 0.1285000D+00
EXPONENTS  0.4402000D-01 0.1871000D+02 0.4133000D+01 0.1200000D+01 0.1871000D+02
EXPONENTS  0.4133000D+01 0.1200000D+01 0.1871000D+02 0.4133000D+01 0.1200000D+01
EXPONENTS  0.3827000D+00 0.3827000D+00 0.3827000D+00 0.1209000D+00 0.1209000D+00
EXPONENTS  0.1209000D+00 0.3569000D-01 0.3569000D-01 0.3569000D-01 0.1097000D+01
EXPONENTS  0.1097000D+01 0.1097000D+01 0.1097000D+01 0.1097000D+01 0.1097000D+01
EXPONENTS  0.3180000D+00 0.3180000D+00 0.3180000D+00 0.3180000D+00 0.3180000D+00
EXPONENTS  0.3180000D+00 0.1000000D+00 0.1000000D+00 0.1000000D+00 0.1000000D+00
EXPONENTS  0.1000000D+00 0.1000000D+00 0.7610000D+00 0.7610000D+00 0.7610000D+00
EXPONENTS  0.7610000D+00 0.7610000D+00 0.7610000D+00 0.7610000D+00 0.7610000D+00
EXPONENTS  0.7610000D+00 0.7610000D+00 0.2680000D+00 0.2680000D+00 0.2680000D+00
EXPONENTS  0.2680000D+00 0.2680000D+00 0.2680000D+00 0.2680000D+00 0.2680000D+00
EXPONENTS  0.2680000D+00 0.2680000D+00 0.3387000D+02 0.5095000D+01 0.1159000D+01
EXPONENTS  0.3258000D+00 0.1027000D+00 0.2526000D-01 0.1407000D+01 0.1407000D+01
EXPONENTS  0.1407000D+01 0.3880000D+00 0.3880000D+00 0.3880000D+00 0.1020000D+00
EXPONENTS  0.1020000D+00 0.1020000D+00 0.1057000D+01 0.1057000D+01 0.1057000D+01
EXPONENTS  0.1057000D+01 0.1057000D+01 0.1057000D+01 0.2470000D+00 0.2470000D+00
EXPONENTS  0.2470000D+00 0.2470000D+00 0.2470000D+00 0.2470000D+00 0.3387000D+02
EXPONENTS  0.5095000D+01 0.1159000D+01 0.3258000D+00 0.1027000D+00 0.2526000D-01
EXPONENTS  0.1407000D+01 0.1407000D+01 0.1407000D+01 0.3880000D+00 0.3880000D+00
EXPONENTS  0.3880000D+00 0.1020000D+00 0.1020000D+00 0.1020000D+00 0.1057000D+01
EXPONENTS  0.1057000D+01 0.1057000D+01 0.1057000D+01 0.1057000D+01 0.1057000D+01
EXPONENTS  0.2470000D+00 0.2470000D+00 0.2470000D+00 0.2470000D+00 0.2470000D+00
EXPONENTS  0.2470000D+00 0.3387000D+02 0.5095000D+01 0.1159000D+01 0.3258000D+00
EXPONENTS  0.1027000D+00 0.2526000D-01 0.1407000D+01 0.1407000D+01 0.1407000D+01
EXPONENTS  0.3880000D+00 0.3880000D+00 0.3880000D+00 0.1020000D+00 0.1020000D+00
EXPONENTS  0.1020000D+00 0.1057000D+01 0.1057000D+01 0.1057000D+01 0.1057000D+01
EXPONENTS  0.1057000D+01 0.1057000D+01 0.2470000D+00 0.2470000D+00 0.2470000D+00
EXPONENTS  0.2470000D+00 0.2470000D+00 0.2470000D+00 0.4561000D+06 0.6833000D+05
EXPONENTS  0.1555000D+05 0.4405000D+04 0.1439000D+04 0.5204000D+03 0.2031000D+03
EXPONENTS  0.8396000D+02 0.3620000D+02 0.1583000D+02 0.6334000D+01 0.4405000D+04
EXPONENTS  0.1439000D+04 0.5204000D+03 0.2031000D+03 0.8396000D+02 0.3620000D+02
EXPONENTS  0.1583000D+02 0.6334000D+01 0.2694000D+01 0.1439000D+04 0.2031000D+03
EXPONENTS  0.8396000D+02 0.3620000D+02 0.1583000D+02 0.6334000D+01 0.2694000D+01
EXPONENTS  0.4313000D+00 0.9768000D+00 0.1625000D+00 0.5910000D-01 0.6633000D+03
EXPONENTS  0.1568000D+03 0.4998000D+02 0.1842000D+02 0.7240000D+01 0.2922000D+01
EXPONENTS  0.6633000D+03 0.1568000D+03 0.4998000D+02 0.1842000D+02 0.7240000D+01
EXPONENTS  0.2922000D+01 0.6633000D+03 0.1568000D+03 0.4998000D+02 0.1842000D+02
EXPONENTS  0.7240000D+01 0.2922000D+01 0.1568000D+03 0.4998000D+02 0.1842000D+02
EXPONENTS  0.7240000D+01 0.2922000D+01 0.3818000D+00 0.1568000D+03 0.4998000D+02
EXPONENTS  0.1842000D+02 0.7240000D+01 0.2922000D+01 0.3818000D+00 0.1568000D+03
EXPONENTS  0.4998000D+02 0.1842000D+02 0.7240000D+01 0.2922000D+01 0.3818000D+00
EXPONENTS  0.1022000D+01 0.1022000D+01 0.1022000D+01 0.1301000D+00 0.1301000D+00
EXPONENTS  0.1301000D+00 0.4190000D-01 0.4190000D-01 0.4190000D-01 0.1046000D+01
EXPONENTS  0.1046000D+01 0.1046000D+01 0.1046000D+01 0.1046000D+01 0.1046000D+01
EXPONENTS  0.3440000D+00 0.3440000D+00 0.3440000D+00 0.3440000D+00 0.3440000D+00
EXPONENTS  0.3440000D+00 0.1350000D+00 0.1350000D+00 0.1350000D+00 0.1350000D+00
EXPONENTS  0.1350000D+00 0.1350000D+00 0.7060000D+00 0.7060000D+00 0.7060000D+00
EXPONENTS  0.7060000D+00 0.7060000D+00 0.7060000D+00 0.7060000D+00 0.7060000D+00
EXPONENTS  0.7060000D+00 0.7060000D+00 0.3120000D+00 0.3120000D+00 0.3120000D+00
EXPONENTS  0.3120000D+00 0.3120000D+00 0.3120000D+00 0.3120000D+00 0.3120000D+00
EXPONENTS  0.3120000D+00 0.3120000D+00 0.1950000D+05 0.2923000D+04 0.6645000D+03
EXPONENTS  0.1875000D+03 0.6062000D+02 0.2142000D+02 0.7950000D+01 0.6645000D+03
EXPONENTS  0.1875000D+03 0.6062000D+02 0.2142000D+02 0.7950000D+01 0.8815000D+00
EXPONENTS  0.2257000D+01 0.3041000D+00 0.9158000D-01 0.4388000D+02 0.9926000D+01
EXPONENTS  0.2930000D+01 0.4388000D+02 0.9926000D+01 0.2930000D+01 0.4388000D+02
EXPONENTS  0.9926000D+01 0.2930000D+01 0.9132000D+00 0.9132000D+00 0.9132000D+00
EXPONENTS  0.2672000D+00 0.2672000D+00 0.2672000D+00 0.7361000D-01 0.7361000D-01
EXPONENTS  0.7361000D-01 0.3107000D+01 0.3107000D+01 0.3107000D+01 0.3107000D+01
EXPONENTS  0.3107000D+01 0.3107000D+01 0.8550000D+00 0.8550000D+00 0.8550000D+00
EXPONENTS  0.8550000D+00 0.8550000D+00 0.8550000D+00 0.2920000D+00 0.2920000D+00
EXPONENTS  0.2920000D+00 0.2920000D+00 0.2920000D+00 0.2920000D+00 0.1917000D+01
EXPONENTS  0.1917000D+01 0.1917000D+01 0.1917000D+01 0.1917000D+01 0.1917000D+01
EXPONENTS  0.1917000D+01 0.1917000D+01 0.1917000D+01 0.1917000D+01 0.7240000D+00
EXPONENTS  0.7240000D+00 0.7240000D+00 0.7240000D+00 0.7240000D+00 0.7240000D+00
EXPONENTS  0.7240000D+00 0.7240000D+00 0.7240000D+00 0.7240000D+00
MO    1     MO 0.0        OCC NO =    2.0000300  ORB. ENERGY =    0.000000
  0.12541490D-07  0.23379864D-07  0.39515155D-07  0.59398649D-07  0.72960601D-07
  0.61576173D-07  0.23154249D-07  0.45757132D-11  0.34200622D-10  0.12781553D-09
  0.35658543D-09  0.47772617D-09 -0.56410553D-09  0.87491307D-09  0.27137502D-08
  0.53077308D-08  0.97709083D-04  0.91608476D-04  0.65230692D-04 -0.52791438D-04
 -0.49495328D-04 -0.35243622D-04  0.49232628D-09  0.46158718D-09  0.32867757D-09
  0.31947163D-03 -0.17260813D-03  0.23908402D-07  0.40790771D-03 -0.22039051D-03
  0.15315872D-07  0.82154947D-05 -0.44386769D-05  0.39813517D-09 -0.30652816D-04
  0.30681428D-04 -0.28612098D-07  0.11313112D-03 -0.44852111D-03  0.24227047D-03
 -0.92194514D-04  0.92190497D-04  0.40172009D-08  0.34167227D-03  0.85979539D-04
 -0.46659084D-04 -0.19535207D-04  0.19537473D-04 -0.22660144D-08  0.72317857D-04
 -0.58231488D-04  0.31418723D-04  0.81597163D-04 -0.44082696D-04 -0.16932422D-07
  0.81621152D-04 -0.44083656D-04 -0.11983356D-04 -0.32641264D-03  0.17633175D-03
  0.12034153D-04  0.43588834D-04 -0.23589453D-04  0.12752654D-04  0.40583481D-08
 -0.23540794D-04  0.12748325D-04 -0.23902876D-04  0.94309152D-04 -0.51006286D-04
  0.23890701D-04  0.88799806D-04  0.19055369D-04  0.34367143D-04  0.50674332D-04
 -0.17465201D-03 -0.53472884D-03  0.57581836D-05  0.39786367D-05 -0.34117006D-04
 -0.11457823D-04  0.73389159D-04 -0.13714845D-03 -0.12871832D-03  0.66426190D-04
 -0.81997685D-04 -0.10568444D-04  0.52433286D-04 -0.20279810D-04 -0.32153476D-04
  0.26783870D-04 -0.41288301D-04 -0.14149075D-03  0.20688918D-04  0.56995468D-05
 -0.26388465D-04  0.25515743D-04  0.53889593D-04 -0.14851331D-04 -0.40079035D-04
 -0.72284191D-04 -0.10658300D-03  0.36734675D-03  0.11247253D-02 -0.12111561D-04
  0.62200214D-04 -0.35760616D-04  0.24138730D-04  0.25091754D-03 -0.14202988D-03
  0.27084642D-03  0.15040379D-03 -0.84377235D-04  0.22286949D-04  0.47191767D-05
 -0.72513370D-04  0.67794193D-04 -0.13184104D-03  0.25710856D-03 -0.14982716D-03
 -0.19520487D-04 -0.35976941D-04  0.55497428D-04 -0.26847071D-04  0.27883809D-04
 -0.13989502D-04  0.21024719D-04  0.37918947D-04  0.55911466D-04 -0.19270715D-03
 -0.58999410D-03  0.63527058D-05  0.34523971D-04  0.15470742D-04 -0.12672725D-04
  0.16649986D-03  0.13997786D-04 -0.14210565D-03  0.11048367D-03 -0.10473950D-04
 -0.11700555D-04 -0.13501808D-04  0.49124457D-04 -0.35622649D-04 -0.56347062D-04
  0.11526458D-03  0.11252836D-03 -0.25068041D-06  0.29354167D-04 -0.29103487D-04
 -0.19441104D-05  0.40229912D-04 -0.37074909D-04 -0.11232110D-06 -0.21014079D-06
 -0.36307668D-06 -0.58858995D-06 -0.89383033D-06 -0.12423401D-05 -0.14770471D-05
 -0.13158049D-05 -0.65345654D-06 -0.10520098D-06 -0.11099324D-08 -0.52625391D-09
 -0.17554949D-07 -0.61175484D-07 -0.22030282D-06 -0.48563016D-06 -0.68361052D-06
  0.32610450D-07  0.89462309D-06  0.52898503D-06 -0.11417410D-10 -0.13829272D-09
 -0.28839488D-09 -0.82706631D-09 -0.42948402D-10  0.35667111D-08  0.92156964D-08
 -0.75085156D-08  0.31533820D-07 -0.34284772D-09 -0.97996820D-09  0.10215063D+02
  0.13455627D+02  0.14843663D+02  0.12328824D+02  0.65469478D+01  0.16891468D+01
 -0.55192191D+01 -0.72701027D+01 -0.80200613D+01 -0.66612889D+01 -0.35373292D+01
 -0.91264943D+00  0.58629090D-03  0.77228226D-03  0.85194823D-03  0.70760971D-03
  0.37576039D-03  0.96948145D-04 -0.40428690D-03  0.39083856D-02  0.55112317D-02
  0.78825193D-02 -0.39915968D-04 -0.72290136D-02  0.21843695D-03 -0.21117079D-02
 -0.29777286D-02 -0.42589396D-02  0.21566671D-04  0.39058493D-02 -0.23402240D-07
  0.22623780D-06  0.31901891D-06  0.45628143D-06 -0.23105450D-08 -0.41845311D-06
  0.67438756D-01 -0.36437295D-01  0.38737052D-05 -0.56619705D-03  0.30591787D-03
 -0.33587401D-07 -0.50992503D-04  0.27551360D-04 -0.27965225D-08 -0.60447525D-05
  0.60943916D-05 -0.49639143D-07  0.21535711D-04 -0.86311096D-03  0.46632545D-03
  0.21215623D-05 -0.21407683D-05  0.19205998D-07 -0.75501359D-05  0.31350290D-03
 -0.16938014D-03 -0.60843201D-06  0.61126917D-06 -0.28371586D-08  0.21998723D-05
 -0.53731157D-04  0.29029494D-04  0.20680199D-05 -0.11116121D-05 -0.67494167D-09
  0.21004291D-05 -0.11150275D-05 -0.16619052D-04 -0.83044889D-05  0.44498638D-05
  0.16621077D-04  0.61553860D-04  0.12913997D-04 -0.69785175D-05 -0.31641707D-08
  0.12907430D-04 -0.69778378D-05  0.33688858D-05 -0.51649422D-04  0.27913390D-04
 -0.33593933D-05 -0.12606282D-04  0.13344783D-07  0.24874698D-07  0.42168154D-07
  0.63848288D-07  0.79824423D-07  0.68663318D-07  0.26333860D-07 -0.28868428D-10
 -0.38216393D-09 -0.13880889D-08 -0.41177396D-08 -0.47448632D-08  0.57633431D-08
  0.44766897D-09 -0.96960885D-08 -0.98783690D-08 -0.25610973D-03 -0.25046972D-03
 -0.16549593D-03  0.13837744D-03  0.13533011D-03  0.89418326D-04 -0.25718506D-07
 -0.25152137D-07 -0.16619080D-07 -0.75494190D-05  0.40827102D-05  0.35723757D-08
 -0.58754913D-04  0.31742604D-04 -0.14848628D-07 -0.17205848D-04  0.92962677D-05
 -0.23454210D-08 -0.33681232D-04  0.33684913D-04 -0.36806455D-08  0.12466337D-03
 -0.11638383D-03  0.62805802D-04  0.16900319D-04 -0.16904904D-04  0.45852141D-08
 -0.62522089D-04  0.89571085D-04 -0.48356426D-04 -0.85566621D-05  0.85631462D-05
 -0.64840311D-08  0.31639645D-04 -0.65183777D-04  0.35197228D-04 -0.62863459D-04
  0.33932481D-04  0.19875671D-07 -0.63050794D-04  0.33952613D-04  0.89580606D-04
  0.25164117D-03 -0.13575005D-03 -0.89640233D-04 -0.33128286D-03  0.22327980D-04
 -0.12053306D-04 -0.76147488D-08  0.22387327D-04 -0.12059626D-04 -0.28439507D-04
 -0.89371268D-04  0.48219546D-04  0.28462352D-04  0.10515361D-03
MO    2     MO 0.0        OCC NO =    2.0000300  ORB. ENERGY =    0.000000
 -0.18340942D-07 -0.34191210D-07 -0.57787803D-07 -0.86865846D-07 -0.10669913D-06
 -0.90050305D-07 -0.33861266D-07 -0.91220908D-11 -0.68181977D-10 -0.25481162D-09
 -0.71088474D-09 -0.95238956D-09  0.11245945D-08 -0.96005947D-09  0.42618046D-08
 -0.52532081D-08  0.52792389D-04  0.49496221D-04  0.35244258D-04  0.97707211D-04
  0.91606721D-04  0.65229443D-04 -0.46831952D-07 -0.43907932D-07 -0.31265063D-07
  0.17261165D-03  0.31946688D-03 -0.17417794D-06  0.22039296D-03  0.40790163D-03
 -0.20846182D-06  0.44387696D-05  0.82150305D-05 -0.42889270D-08  0.56594912D-04
 -0.56835760D-04  0.24084734D-06  0.60965847D-04 -0.24236291D-03 -0.44844641D-03
  0.17082771D-03 -0.17078276D-03 -0.44951368D-07  0.18445716D-03  0.46377526D-04
  0.86214157D-04  0.36163973D-04 -0.36193756D-04  0.29783512D-07  0.39024503D-04
 -0.31478805D-04 -0.58180297D-04  0.44091860D-04  0.81587999D-04  0.17112385D-06
  0.44094457D-04  0.81609659D-04  0.21817798D-04 -0.17637004D-03 -0.32637365D-03
 -0.22331169D-04  0.23344154D-04 -0.12735173D-04 -0.23602732D-04 -0.48724550D-07
 -0.12728767D-04 -0.23555949D-04  0.44391807D-04  0.50934288D-04  0.94364145D-04
 -0.44245633D-04  0.47988639D-04 -0.35278291D-04 -0.63625851D-04 -0.93816281D-04
  0.32334094D-03  0.98998692D-03 -0.10661080D-04  0.21642057D-05  0.63160762D-04
  0.21210944D-04  0.39736306D-04  0.25388905D-03  0.23827509D-03  0.35909003D-04
  0.15178941D-03  0.19538533D-04 -0.97081262D-04  0.37536293D-04  0.59544969D-04
  0.14571486D-04 -0.22186885D-04  0.26195662D-03 -0.38272293D-04 -0.10559234D-04
  0.48831528D-04  0.13797460D-04  0.29151892D-04  0.27467370D-04  0.11363680D-05
  0.20494865D-05  0.30219666D-05 -0.10414612D-04 -0.31904020D-04  0.34410339D-06
  0.50233205D-06  0.49358674D-05 -0.68660042D-06  0.34642062D-04  0.76329964D-04
 -0.77214463D-05  0.33512388D-04  0.67810072D-04 -0.66791010D-06  0.13083161D-04
 -0.11182452D-04 -0.19007090D-05  0.18975347D-04 -0.30753769D-04 -0.36339590D-04
  0.13114577D-04 -0.11512424D-04 -0.16021532D-05  0.15274217D-04  0.29858706D-04
  0.53492844D-04  0.34140595D-04  0.61573970D-04  0.90790782D-04 -0.31292021D-03
 -0.95809014D-03  0.10317628D-04  0.51742732D-04  0.32599287D-04 -0.20581113D-04
  0.19080435D-03  0.16057954D-03 -0.23081002D-03  0.10742734D-03  0.10771626D-03
 -0.19043503D-04  0.32787712D-05  0.54541253D-04 -0.57820024D-04 -0.12059583D-03
  0.23186430D-03  0.10535968D-03  0.23510057D-04  0.23782866D-04 -0.47292924D-04
 -0.30811958D-04  0.69082794D-05  0.41038170D-04  0.12995689D-06  0.24313547D-06
  0.42008417D-06  0.68100579D-06  0.10341726D-05  0.14374027D-05  0.17089616D-05
  0.15224024D-05  0.75605723D-06  0.12171882D-06  0.12842054D-08  0.60877014D-09
  0.20307553D-07  0.70767755D-07  0.25484615D-06  0.56177661D-06  0.79080016D-06
 -0.37723745D-07 -0.10348993D-05 -0.61192950D-06  0.13122842D-10  0.15894967D-09
  0.33147277D-09  0.95060620D-09  0.49363656D-10 -0.40994750D-08 -0.10592256D-07
  0.86300716D-08 -0.36619078D-07  0.77864897D-09  0.10040192D-08  0.55192188D+01
  0.72701022D+01  0.80200608D+01  0.66612884D+01  0.35373290D+01  0.91264937D+00
  0.10215061D+02  0.13455625D+02  0.14843661D+02  0.12328823D+02  0.65469470D+01
  0.16891466D+01 -0.54215931D-02 -0.71415064D-02 -0.78781995D-02 -0.65434615D-02
 -0.34747596D-02 -0.89650615D-03 -0.21843699D-03  0.21117082D-02  0.29777290D-02
  0.42589402D-02 -0.21566674D-04 -0.39058499D-02 -0.40428664D-03  0.39083831D-02
  0.55112281D-02  0.78825141D-02 -0.39915942D-04 -0.72290089D-02  0.21477417D-06
 -0.20762985D-05 -0.29277976D-05 -0.41875251D-05  0.21205037D-07  0.38403554D-05
  0.36437294D-01  0.67438744D-01 -0.35795881D-04 -0.30591756D-03 -0.56619812D-03
  0.30159241D-06 -0.27551352D-04 -0.50992511D-04  0.26929594D-07  0.10831427D-04
 -0.11289580D-04  0.45815268D-06  0.11427147D-04 -0.46634456D-03 -0.86309017D-03
 -0.37975561D-05  0.39651696D-05 -0.16761353D-06 -0.40036912D-05  0.16938736D-03
  0.31349361D-03  0.11042709D-05 -0.11325289D-05  0.28257957D-07  0.11752545D-05
 -0.29031453D-04 -0.53729005D-04  0.11244008D-05  0.20572771D-05  0.45870355D-08
  0.11276986D-05  0.20899044D-05  0.30777663D-04 -0.45009011D-05 -0.82617357D-05
 -0.30791424D-04  0.33222745D-04  0.69759740D-05  0.12915902D-04  0.27622590D-07
  0.69753302D-05  0.12909242D-04 -0.63010486D-05 -0.27903252D-04 -0.51656948D-04
  0.62181808D-05 -0.68346974D-05 -0.14104795D-07 -0.26291361D-07 -0.44569715D-07
 -0.67484576D-07 -0.84370583D-07 -0.72573831D-07 -0.27833626D-07  0.29231836D-10
  0.38697478D-09  0.14055628D-08  0.41695756D-08  0.48045937D-08 -0.58358946D-08
 -0.52050511D-09  0.98447901D-08  0.10113056D-07 -0.13837639D-03 -0.13532909D-03
 -0.89417651D-04 -0.25611086D-03 -0.25047083D-03 -0.16549667D-03  0.14777556D-06
  0.14452127D-06  0.95491314D-07 -0.40804926D-05 -0.75591686D-05  0.17562983D-09
 -0.31744127D-04 -0.58747392D-04  0.42766965D-07 -0.92963071D-05 -0.17205599D-04
  0.10531182D-07  0.62344965D-04 -0.62403611D-04  0.58645784D-07  0.67268669D-04
 -0.62910051D-04 -0.11629315D-03 -0.31270434D-04  0.31317354D-04 -0.46919726D-07
 -0.33730215D-04  0.48409022D-04  0.89524008D-04  0.15825411D-04 -0.15862734D-04
  0.37322845D-07  0.17065104D-04 -0.35224935D-04 -0.65154736D-04 -0.34000343D-04
 -0.62799985D-04 -0.13895352D-06 -0.34030621D-04 -0.62976963D-04 -0.16566872D-03
  0.13603165D-03  0.25137692D-03  0.16608558D-03 -0.17869261D-03  0.12074942D-04
  0.22307432D-04  0.49918554D-07  0.12084431D-04  0.22363545D-04  0.52585633D-04
 -0.48309255D-04 -0.89285842D-04 -0.52735389D-04  0.56714251D-04
MO    3     MO 0.0        OCC NO =    2.0000210  ORB. ENERGY =    0.000000
 -0.14454298D-01 -0.26945724D-01 -0.45541945D-01 -0.68458037D-01 -0.84088437D-01
 -0.70967675D-01 -0.26685699D-01 -0.38143042D-05 -0.28509561D-04 -0.10654674D-03
 -0.29724881D-03 -0.39823145D-03  0.47023709D-03 -0.87193255D-03 -0.19346153D-02
 -0.82096957D-04  0.20839571D-06  0.19538422D-06  0.13912521D-06  0.50637670D-06
  0.47476035D-06  0.33805765D-06  0.11672948D-02  0.10944131D-02  0.77928730D-03
  0.10488102D-06  0.26499887D-06  0.60721987D-03 -0.66731737D-07 -0.17041897D-06
 -0.37924703D-03  0.82282299D-09  0.20327938D-08  0.46679986D-05 -0.10556099D-03
 -0.10556208D-03  0.21112306D-03 -0.11590202D-08  0.11322338D-06  0.27300566D-06
 -0.24085058D-04 -0.24083101D-04  0.48168160D-04 -0.62666194D-09  0.25288143D-07
  0.65854924D-07  0.11426656D-04  0.11427479D-04 -0.22854135D-04  0.14135141D-09
 -0.12105874D-07 -0.30289380D-07 -0.15864568D-07  0.36269415D-04  0.77247988D-05
  0.39523163D-07 -0.10882945D-03 -0.11539639D-04  0.80705411D-08  0.21207628D-07
 -0.11634758D-04  0.38664174D-07  0.29107709D-08  0.51883957D-04 -0.85676172D-04
  0.82045988D-07 -0.15542637D-03  0.12858238D-03 -0.90778301D-07 -0.22550512D-06
  0.12844613D-03  0.54969656D-07 -0.48296526D-05 -0.87104775D-05 -0.12843594D-04
  0.75282138D-03  0.23596429D-03  0.50652288D-05  0.17373406D-07  0.95867312D-04
  0.28430547D-04  0.24841347D-07  0.19935290D-03 -0.42529856D-05  0.12654333D-07
  0.44036779D-04  0.38736505D-04 -0.73922456D-04  0.54243594D-04  0.19678862D-04
  0.46302506D-07  0.43267150D-07  0.76012768D-04 -0.96549850D-05 -0.12045524D-04
  0.21700509D-04 -0.66905680D-08  0.66476791D-08 -0.34561711D-04 -0.48294880D-05
 -0.87101804D-05 -0.12843156D-04  0.75282337D-03  0.23598216D-03  0.50654797D-05
  0.83013393D-04 -0.47926437D-04  0.28479145D-04  0.17263304D-03 -0.99702873D-04
 -0.41607238D-05  0.38128431D-04 -0.22000034D-04  0.38758855D-04  0.22173975D-04
 -0.41893024D-04  0.19719050D-04 -0.11096268D-03  0.65893364D-04 -0.37955459D-04
 -0.11441788D-04 -0.10241339D-04  0.21683127D-04  0.20472202D-05 -0.29944664D-04
  0.17327767D-04 -0.48293089D-05 -0.87098575D-05 -0.12842680D-04  0.75282704D-03
  0.23598111D-03  0.50654755D-05 -0.83015689D-04 -0.47905573D-04  0.28509105D-04
 -0.17266041D-03 -0.99659485D-04 -0.40980185D-05 -0.38120068D-04 -0.21990413D-04
  0.38772511D-04  0.22178909D-04 -0.41920896D-04  0.19741987D-04  0.11091646D-03
 -0.65905776D-04 -0.37979072D-04 -0.11431643D-04 -0.10240845D-04  0.21672488D-04
 -0.20402593D-05  0.29972329D-04  0.17320816D-04 -0.15460123D+00 -0.28924240D+00
 -0.49974672D+00 -0.81014815D+00 -0.12302877D+01 -0.17099842D+01 -0.20330401D+01
 -0.18111028D+01 -0.89943195D+00 -0.14480093D+00 -0.15277354D-02 -0.72283567D-03
 -0.24112588D-01 -0.84027541D-01 -0.30259678D+00 -0.66703695D+00 -0.93897274D+00
  0.44792060D-01  0.12288089D+01  0.72658700D+00 -0.15531636D-04 -0.18812604D-03
 -0.39231702D-03 -0.11250969D-02 -0.58424717D-04  0.48519636D-02  0.12536542D-01
 -0.10214184D-01  0.46599630D-01 -0.38424743D-03 -0.13193932D-03  0.10528204D-02
  0.13868108D-02  0.15298694D-02  0.12706763D-02  0.67476439D-03  0.17409274D-03
  0.25926996D-02  0.34151919D-02  0.37674912D-02  0.31291965D-02  0.16616902D-02
  0.42872474D-03  0.59415384D+01  0.78263960D+01  0.86337399D+01  0.71709970D+01
  0.38079984D+01  0.98248349D+00 -0.37356992D-07  0.36114337D-06  0.50924984D-06
  0.72836199D-06 -0.36883226D-08 -0.66797664D-06 -0.91979220D-07  0.88919592D-06
  0.12538591D-05  0.17933502D-05 -0.90812728D-08 -0.16446712D-05 -0.21080310D-03
  0.20379087D-02  0.28736640D-02  0.41100997D-02 -0.20812967D-04 -0.37693491D-02
  0.73817276D-05  0.18174441D-04  0.41655011D-01 -0.85901120D-07 -0.21057789D-06
 -0.48398218D-03 -0.17316735D-08 -0.43495243D-08 -0.98434741D-05 -0.71221948D-05
 -0.71222587D-05  0.14244454D-04  0.59896895D-10  0.72972444D-08  0.19350938D-07
 -0.11142885D-03 -0.11142883D-03  0.22285768D-03  0.28217506D-10  0.11888107D-06
  0.29015605D-06 -0.14325986D-04 -0.14325894D-04  0.28651880D-04  0.19894601D-10
  0.15319560D-07  0.37119581D-07  0.12559144D-08 -0.72137998D-05  0.54434309D-05
 -0.97534176D-08  0.21627890D-04 -0.81750465D-05  0.59856744D-08  0.13509938D-07
 -0.81552462D-05 -0.74932071D-08  0.82427630D-08  0.20732272D-05 -0.33741942D-04
  0.11374871D-07 -0.61322116D-05  0.50615819D-04 -0.36103160D-07 -0.87470051D-07
  0.50610008D-04  0.20809757D-08 -0.87952151D-03 -0.16394296D-02 -0.27791984D-02
 -0.42080823D-02 -0.52610297D-02 -0.45254289D-02 -0.17355994D-02 -0.68426782D-06
 -0.90584246D-05 -0.32901846D-04 -0.97602708D-04 -0.11246741D-03  0.13660842D-03
 -0.95970091D-04 -0.15941354D-03  0.12430629D-04  0.66796046D-06  0.65325074D-06
  0.43163038D-06  0.17825297D-05  0.17432752D-05  0.11518556D-05  0.39019523D-02
  0.38160241D-02  0.25214085D-02  0.14972201D-06  0.40431118D-06  0.87920651D-03
  0.41281120D-08  0.81148734D-08  0.21379636D-04  0.15464830D-08  0.44023407D-08
  0.93385198D-05 -0.35648334D-04 -0.35646056D-04  0.71294390D-04  0.80943713D-09
  0.36655296D-07  0.97781255D-07  0.21098165D-04  0.21097223D-04 -0.42195388D-04
 -0.34394524D-09 -0.21916375D-07 -0.57062776D-07  0.18119019D-04  0.18119072D-04
 -0.36238091D-04  0.36646280D-10 -0.18055753D-07 -0.51502150D-07 -0.98360972D-08
 -0.30067216D-05  0.46423315D-04 -0.14371255D-07  0.88800915D-05 -0.69642799D-04
  0.43879547D-07  0.14007329D-06 -0.69627145D-04 -0.91911687D-09  0.58166072D-08
  0.95514170D-06 -0.25396112D-04  0.72459088D-08 -0.27911534D-05  0.38096667D-04
 -0.24695730D-07 -0.74271719D-07  0.38091669D-04  0.26953639D-09
MO    4     MO 0.0        OCC NO =    2.0000123  ORB. ENERGY =    0.000000
  0.26824578D-01  0.50006417D-01  0.84517657D-01  0.12704580D+00  0.15605301D+00
  0.13170324D+00  0.49523857D-01 -0.14573690D-05 -0.10892930D-04 -0.40709367D-04
 -0.11357280D-03 -0.15215623D-03  0.17966814D-03  0.26461660D-02 -0.36110245D-02
 -0.42290895D-04  0.64784720D-06  0.60739793D-06  0.43250351D-06  0.16031656D-05
  0.15030697D-05  0.10702752D-05  0.36697138D-02  0.34405899D-02  0.24499050D-02
  0.22831859D-06  0.56483127D-06  0.13052563D-02 -0.74201022D-07 -0.18843881D-06
 -0.41707951D-03  0.68435990D-09  0.14706687D-08  0.37027393D-05 -0.31918803D-03
 -0.31919063D-03  0.63837866D-03 -0.12555368D-08  0.33946241D-06  0.83469772D-06
  0.95953537D-05  0.96002853D-05 -0.19195639D-04 -0.70847370D-09 -0.92167164D-08
 -0.25262027D-07 -0.17859897D-04 -0.17859110D-04  0.35719008D-04 -0.20318586D-10
  0.18585866D-07  0.47683916D-07  0.10278088D-07 -0.42206723D-04  0.22575196D-04
 -0.54142993D-07  0.12655870D-03 -0.33919016D-04  0.23308728D-07  0.61467010D-07
 -0.33806572D-04 -0.43928248D-07  0.12223715D-07  0.82084367D-04 -0.16373924D-03
  0.13739444D-06 -0.24582411D-03  0.24571607D-03 -0.17406559D-06 -0.42898589D-06
  0.24550165D-03  0.87275314D-07 -0.90318896D-04 -0.16289385D-03 -0.24018688D-03
  0.10230638D-02  0.68431392D-03  0.42681483D-05 -0.12751661D-08 -0.57759703D-04
  0.33549791D-04  0.31304776D-07  0.30466376D-03 -0.43226451D-04  0.27536697D-07
  0.11105804D-03  0.75813236D-04 -0.14238929D-03  0.24264778D-04  0.11812452D-03
  0.67925521D-07  0.11051245D-06  0.14267567D-03 -0.14794239D-04 -0.21042309D-04
  0.35836549D-04 -0.12747723D-07  0.10090937D-07 -0.62803172D-04 -0.90318490D-04
 -0.16289312D-03 -0.24018581D-03  0.10230753D-02  0.68432821D-03  0.42693054D-05
 -0.50020773D-04  0.28906169D-04  0.33526531D-04  0.26383742D-03 -0.15239689D-03
 -0.43077499D-04  0.96158312D-04 -0.55493446D-04  0.75869574D-04 -0.17446114D-04
 -0.10075882D-03  0.11820494D-03 -0.14425539D-03  0.12359322D-03 -0.71097875D-04
 -0.19468735D-04 -0.16335581D-04  0.35804316D-04  0.53700205D-05 -0.54409270D-04
  0.31476849D-04 -0.90318742D-04 -0.16289357D-03 -0.24018648D-03  0.10230788D-02
  0.68433300D-03  0.42690736D-05  0.50039750D-04  0.28893133D-04  0.33508669D-04
 -0.26389203D-03 -0.15233026D-03 -0.42984190D-04 -0.96146074D-04 -0.55469239D-04
  0.75903891D-04 -0.17451629D-04 -0.10079449D-03  0.11824612D-03  0.14418909D-03
 -0.12351543D-03 -0.71117722D-04 -0.19450817D-04 -0.16334451D-04  0.35785268D-04
 -0.53569398D-05  0.54457250D-04  0.31465195D-04  0.91315998D-01  0.17084249D+00
  0.29517793D+00  0.47851810D+00  0.72667565D+00  0.10100108D+01  0.12008254D+01
  0.10697370D+01  0.53125403D+00  0.85527404D-01  0.90236463D-03  0.42754024D-03
  0.14262027D-01  0.49700308D-01  0.17897886D+00  0.39453661D+00  0.55538021D+00
 -0.26493446D-01 -0.72681146D+00 -0.42975906D+00  0.62781550D-05  0.76043789D-04
  0.15858130D-03  0.45478357D-03  0.23616278D-04 -0.19612473D-02 -0.50674864D-02
  0.41287494D-02 -0.28545776D-01  0.14183139D-02 -0.18170940D-03  0.17614252D-02
  0.23202091D-02  0.25595538D-02  0.21259098D-02  0.11289171D-02  0.29126652D-03
  0.43056599D-02  0.56715613D-02  0.62566199D-02  0.51966127D-02  0.27595456D-02
  0.71197718D-03  0.99145673D+01  0.13059804D+02  0.14407009D+02  0.11966149D+02
  0.63543570D+01  0.16394573D+01 -0.59861758D-07  0.57870496D-06  0.81603441D-06
  0.11671451D-05 -0.59102584D-08 -0.10703821D-05 -0.14624280D-06  0.14137813D-05
  0.19935793D-05  0.28513457D-05 -0.14438813D-07 -0.26149529D-05 -0.33686792D-03
  0.32566223D-02  0.45921773D-02  0.65680284D-02 -0.33259571D-04 -0.60235015D-02
  0.12890713D-04  0.31508899D-04  0.72556786D-01 -0.54025544D-07 -0.13442486D-06
 -0.30644411D-03 -0.67125024D-09 -0.18312612D-08 -0.39587388D-05  0.45444066D-03
  0.45444060D-03 -0.90888126D-03 -0.11402521D-09 -0.48498648D-06 -0.11820902D-05
 -0.30967015D-03 -0.30967023D-03  0.61934038D-03  0.66373546D-10  0.33030575D-06
  0.80619124D-06  0.43296174D-05  0.43297215D-05 -0.86593389D-05  0.48828133D-11
 -0.48072479D-08 -0.10681982D-07  0.18056224D-07 -0.14494220D-04 -0.46951660D-04
 -0.41216945D-08  0.43605128D-04  0.70408301D-04 -0.50046977D-07 -0.12246882D-06
  0.70446679D-04 -0.15627545D-07  0.15089372D-07  0.42133561D-05 -0.62583464D-04
  0.21460521D-07 -0.12477060D-04  0.93880734D-04 -0.66728638D-07 -0.16300824D-06
  0.93869659D-04  0.44625786D-08 -0.63571002D-02 -0.11849646D-01 -0.20087789D-01