 Entering Gaussian System, Link 0=g09
 Input=GAUSSIAN-YCl_5.com
 Output=GAUSSIAN-YCl_5.log
 Initial command:
 /home/bruns/programas/chemistry/gaussian/g09/l1.exe /home/bruns/programas/chemistry/gaussian/work/Gau-20119.inp -scrdir=/home/bruns/programas/chemistry/gaussian/work/
 Entering Link 1 = /home/bruns/programas/chemistry/gaussian/g09/l1.exe PID=     20121.
  
 Copyright (c) 1988,1990,1992,1993,1995,1998,2003,2009,2010,
            Gaussian, Inc.  All Rights Reserved.
  
 This is part of the Gaussian(R) 09 program.  It is based on
 the Gaussian(R) 03 system (copyright 2003, Gaussian, Inc.),
 the Gaussian(R) 98 system (copyright 1998, Gaussian, Inc.),
 the Gaussian(R) 94 system (copyright 1995, Gaussian, Inc.),
 the Gaussian 92(TM) system (copyright 1992, Gaussian, Inc.),
 the Gaussian 90(TM) system (copyright 1990, Gaussian, Inc.),
 the Gaussian 88(TM) system (copyright 1988, Gaussian, Inc.),
 the Gaussian 86(TM) system (copyright 1986, Carnegie Mellon
 University), and the Gaussian 82(TM) system (copyright 1983,
 Carnegie Mellon University). Gaussian is a federally registered
 trademark of Gaussian, Inc.
  
 This software contains proprietary and confidential information,
 including trade secrets, belonging to Gaussian, Inc.
  
 This software is provided under written license and may be
 used, copied, transmitted, or stored only in accord with that
 written license.
  
 The following legend is applicable only to US Government
 contracts under FAR:
  
                    RESTRICTED RIGHTS LEGEND
  
 Use, reproduction and disclosure by the US Government is
 subject to restrictions as set forth in subparagraphs (a)
 and (c) of the Commercial Computer Software - Restricted
 Rights clause in FAR 52.227-19.
  
 Gaussian, Inc.
 340 Quinnipiac St., Bldg. 40, Wallingford CT 06492
  
  
 ---------------------------------------------------------------
 Warning -- This program may not be used in any manner that
 competes with the business of Gaussian, Inc. or will provide
 assistance to any competitor of Gaussian, Inc.  The licensee
 of this program is prohibited from giving any competitor of
 Gaussian, Inc. access to this program.  By using this program,
 the user acknowledges that Gaussian, Inc. is engaged in the
 business of creating and licensing software in the field of
 computational chemistry and represents and warrants to the
 licensee that it is not a competitor of Gaussian, Inc. and that
 it will not use this program in any manner prohibited above.
 ---------------------------------------------------------------
  

 Cite this work as:
 Gaussian 09, Revision B.01,
 M. J. Frisch, G. W. Trucks, H. B. Schlegel, G. E. Scuseria, 
 M. A. Robb, J. R. Cheeseman, G. Scalmani, V. Barone, B. Mennucci, 
 G. A. Petersson, H. Nakatsuji, M. Caricato, X. Li, H. P. Hratchian, 
 A. F. Izmaylov, J. Bloino, G. Zheng, J. L. Sonnenberg, M. Hada, 
 M. Ehara, K. Toyota, R. Fukuda, J. Hasegawa, M. Ishida, T. Nakajima, 
 Y. Honda, O. Kitao, H. Nakai, T. Vreven, J. A. Montgomery, Jr., 
 J. E. Peralta, F. Ogliaro, M. Bearpark, J. J. Heyd, E. Brothers, 
 K. N. Kudin, V. N. Staroverov, T. Keith, R. Kobayashi, J. Normand, 
 K. Raghavachari, A. Rendell, J. C. Burant, S. S. Iyengar, J. Tomasi, 
 M. Cossi, N. Rega, J. M. Millam, M. Klene, J. E. Knox, J. B. Cross, 
 V. Bakken, C. Adamo, J. Jaramillo, R. Gomperts, R. E. Stratmann, 
 O. Yazyev, A. J. Austin, R. Cammi, C. Pomelli, J. W. Ochterski, 
 R. L. Martin, K. Morokuma, V. G. Zakrzewski, G. A. Voth, 
 P. Salvador, J. J. Dannenberg, S. Dapprich, A. D. Daniels, 
 O. Farkas, J. B. Foresman, J. V. Ortiz, J. Cioslowski, 
 and D. J. Fox, Gaussian, Inc., Wallingford CT, 2010.
 
 ******************************************
 Gaussian 09:  EM64L-G09RevB.01 12-Aug-2010
                10-Aug-2021 
 ******************************************
 %nproc=8
 Will use up to    8 processors via shared memory.
 %mem=8GB
 -----------------------------------------------------
 # QCISD aug-cc-pvtz nosymm density=current output=wfn
 -----------------------------------------------------
 1/30=1,38=1/1;
 2/12=2,15=1,17=6,18=5,40=1/2;
 3/5=16,6=1,7=10,11=9,16=1,25=1,30=1,71=1/1,2,3;
 4//1;
 5/5=2,38=5/2;
 8/6=4,9=120000,10=1/1,4;
 9/5=8,15=1/13;
 11/28=-7,31=1,32=3,42=3/11;
 10/5=6,13=10,31=1/2;
 6/7=2,8=2,9=2,10=2,22=-1,31=1/1;
 99/5=1,6=1100,9=1/99;
 ----------
 title line
 ----------
 Symbolic Z-matrix:
 Charge = -1 Multiplicity = 1
 C                     0.00018   0.00003  -0.49771 
 H                     0.00002  -1.05257  -0.62073 
 H                    -0.91131   0.52637  -0.62125 
 H                     0.91175   0.52613  -0.62157 
 Cl                    0.00056  -0.00904   1.64472 
 F                    -0.00019  -0.00092  -2.59346 
 
                          Input orientation:                          
 ---------------------------------------------------------------------
 Center     Atomic      Atomic             Coordinates (Angstroms)
 Number     Number       Type             X           Y           Z
 ---------------------------------------------------------------------
      1          6           0        0.000175    0.000029   -0.497709
      2          1           0        0.000019   -1.052570   -0.620726
      3          1           0       -0.911312    0.526365   -0.621245
      4          1           0        0.911750    0.526132   -0.621570
      5         17           0        0.000555   -0.009038    1.644718
      6          9           0       -0.000186   -0.000921   -2.593460
 ---------------------------------------------------------------------
                    Distance matrix (angstroms):
                    1          2          3          4          5
     1  C    0.000000
     2  H    1.059763   0.000000
     3  H    1.059764   1.823063   0.000000
     4  H    1.059762   1.823062   1.823062   0.000000
     5  Cl   2.142446   2.494233   2.500549   2.500549   0.000000
     6  F    2.095751   2.235541   2.235579   2.235568   4.238186
                    6
     6  F    0.000000
 Symmetry turned off by external request.
 This structure is nearly, but not quite of a higher symmetry.
 Consider Symm=Loose if the higher symmetry is desired.
 Stoichiometry    CH3ClF(1-)
 Framework group  C1[X(CH3ClF)]
 Deg. of freedom    12
 Full point group                 C1      NOp   1
 Rotational constants (GHZ):    150.8671008      2.2147207      2.2147181
 Standard basis: Aug-CC-pVTZ (5D, 7F)
 Integral buffers will be    131072 words long.
 Raffenetti 1 integral format.
 Two-electron integral symmetry is turned off.
   211 basis functions,   339 primitive gaussians,   244 cartesian basis functions
    18 alpha electrons       18 beta electrons
       nuclear repulsion energy        84.9840855460 Hartrees.
 NAtoms=    6 NActive=    6 NUniq=    6 SFac= 1.00D+00 NAtFMM=   50 NAOKFM=F Big=F
 One-electron integrals computed using PRISM.
 NBasis=   211 RedAO= T  NBF=   211
 NBsUse=   211 1.00D-06 NBFU=   211
 Harris functional with IExCor=  205 diagonalized for initial guess.
 ExpMin= 2.53D-02 ExpMax= 4.56D+05 ExpMxC= 1.44D+03 IAcc=3 IRadAn=         0 AccDes= 0.00D+00
 HarFok:  IExCor=  205 AccDes= 0.00D+00 IRadAn=         0 IDoV= 1
 ScaDFX=  1.000000  1.000000  1.000000  1.000000
 FoFCou: FMM=F IPFlag=           0 FMFlag=      100000 FMFlg1=           0
         NFxFlg=           0 DoJE=T BraDBF=F KetDBF=T FulRan=T
         Omega=  0.000000  0.000000  1.000000  0.000000  0.000000 ICntrl=     500 IOpCl=  0
         NMat0=    1 NMatS0=    1 NMatT0=    0 NMatD0=    1 NMtDS0=    0 NMtDT0=    0
         I1Cent=           4 NGrid=           0.
 Symmetry not used in FoFCou.
 Requested convergence on RMS density matrix=1.00D-08 within 128 cycles.
 Requested convergence on MAX density matrix=1.00D-06.
 Requested convergence on             energy=1.00D-06.
 No special actions if energy rises.
 Keep R1 ints in memory in canonical form, NReq=454274131.
 DSYEVD returned Info=         317 IAlg= 4 N=   211 NDim=   211 NE2=     2970790 trying DSYEV.
 SCF Done:  E(RHF) =  -598.617121863     A.U. after   12 cycles
             Convg  =    0.9414D-08             -V/T =  2.0001
 ExpMin= 2.53D-02 ExpMax= 4.56D+05 ExpMxC= 1.44D+03 IAcc=3 IRadAn=         5 AccDes= 0.00D+00
 HarFok:  IExCor=  205 AccDes= 0.00D+00 IRadAn=         5 IDoV=-2
 ScaDFX=  1.000000  1.000000  1.000000  1.000000
 DSYEVD returned Info=          93 IAlg= 4 N=    46 NDim=    46 NE2=    21472034 trying DSYEV.
 DSYEVD returned Info=         101 IAlg= 4 N=    50 NDim=    50 NE2=    21472034 trying DSYEV.
 DSYEVD returned Info=          93 IAlg= 4 N=    46 NDim=    46 NE2=    21472034 trying DSYEV.
 Range of M.O.s used for correlation:     8   211
 NBasis=   211 NAE=    18 NBE=    18 NFC=     7 NFV=     0
 NROrb=    204 NOA=    11 NOB=    11 NVA=   193 NVB=   193

 **** Warning!!: The largest alpha MO coefficient is  0.35240210D+02

 Semi-Direct transformation.
 ModeAB=           2 MOrb=            11 LenV=    1072528222
 LASXX=     44979418 LTotXX=    44979418 LenRXX=    44979418
 LTotAB=    45631872 MaxLAS=    67073160 LenRXY=    67073160
 NonZer=    89958836 LenScr=   135708672 LnRSAI=           0
 LnScr1=           0 LExtra=           0 Total=    247761250
 MaxDsk=          -1 SrtSym=           F ITran=            4
 JobTyp=0 Pass  1:  I=   1 to  11.
 (rs|ai) integrals will be sorted in core.
 Spin components of T(2) and E(2):
     alpha-alpha T2 =       0.2567357764D-01 E2=     -0.8208211476D-01
     alpha-beta  T2 =       0.1452559576D+00 E2=     -0.5099784446D+00
     beta-beta   T2 =       0.2567357764D-01 E2=     -0.8208211476D-01
 ANorm=    0.1093893556D+01
 E2 =    -0.6741426741D+00 EUMP2 =    -0.59929126453752D+03
 R2 and R3 integrals will be kept in memory, NReq=   900794930.
 Iterations=  50 Convergence= 0.100D-07
 Iteration Nr.   1
 **********************
 DD1Dir will call FoFMem   1 times, MxPair=       132
 NAB=    66 NAA=     0 NBB=     0.
 MP4(R+Q)=  0.14438910D-01
 E3=       -0.18700977D-01        EUMP3=      -0.59930996551D+03
 E4(DQ)=   -0.45151658D-03        UMP4(DQ)=   -0.59931041703D+03
 E4(SDQ)=  -0.98178276D-02        UMP4(SDQ)=  -0.59931978334D+03
 DE(Corr)= -0.67840474     E(Corr)=     -599.29552660    
 NORM(A)=   0.10996850D+01
 Iteration Nr.   2
 **********************
 DD1Dir will call FoFMem   1 times, MxPair=       132
 NAB=    66 NAA=     0 NBB=     0.
 DE(Corr)= -0.70060470     E(CORR)=     -599.31772657     Delta=-2.22D-02
 NORM(A)=   0.11070393D+01
 Iteration Nr.   3
 **********************
 DD1Dir will call FoFMem   1 times, MxPair=       132
 NAB=    66 NAA=     0 NBB=     0.
 DE(Corr)= -0.69820771     E(CORR)=     -599.31532957     Delta= 2.40D-03
 NORM(A)=   0.11110245D+01
 Iteration Nr.   4
 **********************
 DD1Dir will call FoFMem   1 times, MxPair=       132
 NAB=    66 NAA=     0 NBB=     0.
 DE(Corr)= -0.70126684     E(CORR)=     -599.31838870     Delta=-3.06D-03
 NORM(A)=   0.11131284D+01
 Iteration Nr.   5
 **********************
 DD1Dir will call FoFMem   1 times, MxPair=       132
 NAB=    66 NAA=     0 NBB=     0.
 DE(Corr)= -0.70186183     E(CORR)=     -599.31898369     Delta=-5.95D-04
 NORM(A)=   0.11141595D+01
 Iteration Nr.   6
 **********************
 DD1Dir will call FoFMem   1 times, MxPair=       132
 NAB=    66 NAA=     0 NBB=     0.
 DE(Corr)= -0.70200862     E(CORR)=     -599.31913048     Delta=-1.47D-04
 NORM(A)=   0.11144853D+01
 Iteration Nr.   7
 **********************
 DD1Dir will call FoFMem   1 times, MxPair=       132
 NAB=    66 NAA=     0 NBB=     0.
 DE(Corr)= -0.70203834     E(CORR)=     -599.31916020     Delta=-2.97D-05
 NORM(A)=   0.11145164D+01
 Iteration Nr.   8
 **********************
 DD1Dir will call FoFMem   1 times, MxPair=       132
 NAB=    66 NAA=     0 NBB=     0.
 DE(Corr)= -0.70205222     E(CORR)=     -599.31917408     Delta=-1.39D-05
 NORM(A)=   0.11145342D+01
 Iteration Nr.   9
 **********************
 DD1Dir will call FoFMem   1 times, MxPair=       132
 NAB=    66 NAA=     0 NBB=     0.
 DE(Corr)= -0.70202900     E(CORR)=     -599.31915086     Delta= 2.32D-05
 NORM(A)=   0.11145374D+01
 Iteration Nr.  10
 **********************
 DD1Dir will call FoFMem   1 times, MxPair=       132
 NAB=    66 NAA=     0 NBB=     0.
 DE(Corr)= -0.70204830     E(CORR)=     -599.31917016     Delta=-1.93D-05
 NORM(A)=   0.11145376D+01
 Iteration Nr.  11
 **********************
 DD1Dir will call FoFMem   1 times, MxPair=       132
 NAB=    66 NAA=     0 NBB=     0.
 DE(Corr)= -0.70203911     E(CORR)=     -599.31916097     Delta= 9.19D-06
 NORM(A)=   0.11145405D+01
 Iteration Nr.  12
 **********************
 DD1Dir will call FoFMem   1 times, MxPair=       132
 NAB=    66 NAA=     0 NBB=     0.
 DE(Corr)= -0.70204286     E(CORR)=     -599.31916472     Delta=-3.75D-06
 NORM(A)=   0.11145409D+01
 Iteration Nr.  13
 **********************
 DD1Dir will call FoFMem   1 times, MxPair=       132
 NAB=    66 NAA=     0 NBB=     0.
 DE(Corr)= -0.70204343     E(CORR)=     -599.31916529     Delta=-5.66D-07
 NORM(A)=   0.11145416D+01
 Iteration Nr.  14
 **********************
 DD1Dir will call FoFMem   1 times, MxPair=       132
 NAB=    66 NAA=     0 NBB=     0.
 DE(Corr)= -0.70204365     E(CORR)=     -599.31916551     Delta=-2.24D-07
 NORM(A)=   0.11145417D+01
 Iteration Nr.  15
 **********************
 DD1Dir will call FoFMem   1 times, MxPair=       132
 NAB=    66 NAA=     0 NBB=     0.
 DE(Corr)= -0.70204356     E(CORR)=     -599.31916542     Delta= 9.05D-08
 NORM(A)=   0.11145417D+01
 Iteration Nr.  16
 **********************
 DD1Dir will call FoFMem   1 times, MxPair=       132
 NAB=    66 NAA=     0 NBB=     0.
 DE(Corr)= -0.70204376     E(CORR)=     -599.31916563     Delta=-2.03D-07
 NORM(A)=   0.11145415D+01
 Iteration Nr.  17
 **********************
 DD1Dir will call FoFMem   1 times, MxPair=       132
 NAB=    66 NAA=     0 NBB=     0.
 DE(Corr)= -0.70204363     E(CORR)=     -599.31916550     Delta= 1.31D-07
 NORM(A)=   0.11145414D+01
 Iteration Nr.  18
 **********************
 DD1Dir will call FoFMem   1 times, MxPair=       132
 NAB=    66 NAA=     0 NBB=     0.
 DE(Corr)= -0.70204367     E(CORR)=     -599.31916553     Delta=-3.67D-08
 NORM(A)=   0.11145412D+01
 Iteration Nr.  19
 **********************
 DD1Dir will call FoFMem   1 times, MxPair=       132
 NAB=    66 NAA=     0 NBB=     0.
 DE(Corr)= -0.70204362     E(CORR)=     -599.31916548     Delta= 5.28D-08
 NORM(A)=   0.11145411D+01
 Iteration Nr.  20
 **********************
 DD1Dir will call FoFMem   1 times, MxPair=       132
 NAB=    66 NAA=     0 NBB=     0.
 DE(Corr)= -0.70204362     E(CORR)=     -599.31916548     Delta=-2.71D-09
 NORM(A)=   0.11145411D+01
 Iteration Nr.  21
 **********************
 DD1Dir will call FoFMem   1 times, MxPair=       132
 NAB=    66 NAA=     0 NBB=     0.
 DE(Corr)= -0.70204360     E(CORR)=     -599.31916546     Delta= 1.93D-08
 NORM(A)=   0.11145410D+01
 Iteration Nr.  22
 **********************
 DD1Dir will call FoFMem   1 times, MxPair=       132
 NAB=    66 NAA=     0 NBB=     0.
 DE(Corr)= -0.70204360     E(CORR)=     -599.31916546     Delta= 3.01D-09
 NORM(A)=   0.11145410D+01
 Iteration Nr.  23
 **********************
 DD1Dir will call FoFMem   1 times, MxPair=       132
 NAB=    66 NAA=     0 NBB=     0.
 DE(Corr)= -0.70204359     E(CORR)=     -599.31916546     Delta= 4.74D-09
 NORM(A)=   0.11145410D+01
 Iteration Nr.  24
 **********************
 DD1Dir will call FoFMem   1 times, MxPair=       132
 NAB=    66 NAA=     0 NBB=     0.
 DE(Corr)= -0.70204359     E(CORR)=     -599.31916546     Delta=-6.74D-10
 NORM(A)=   0.11145410D+01
 Iteration Nr.  25
 **********************
 DD1Dir will call FoFMem   1 times, MxPair=       132
 NAB=    66 NAA=     0 NBB=     0.
 DE(Corr)= -0.70204359     E(CORR)=     -599.31916545     Delta= 4.12D-09
 NORM(A)=   0.11145410D+01
 Iteration Nr.  26
 **********************
 DD1Dir will call FoFMem   1 times, MxPair=       132
 NAB=    66 NAA=     0 NBB=     0.
 DE(Corr)= -0.70204359     E(CORR)=     -599.31916545     Delta=-2.48D-09
 NORM(A)=   0.11145410D+01
 Iteration Nr.  27
 **********************
 DD1Dir will call FoFMem   1 times, MxPair=       132
 NAB=    66 NAA=     0 NBB=     0.
 DE(Corr)= -0.70204359     E(CORR)=     -599.31916545     Delta= 1.10D-10
 NORM(A)=   0.11145410D+01
 Iteration Nr.  28
 **********************
 DD1Dir will call FoFMem   1 times, MxPair=       132
 NAB=    66 NAA=     0 NBB=     0.
 DE(Corr)= -0.70204359     E(CORR)=     -599.31916545     Delta= 6.46D-10
 NORM(A)=   0.11145410D+01
 Largest amplitude= 6.61D-02

 Z-AMPLITUDE ITERATIONS

 Iteration Nr.   1
 **********************
 DD1Dir will call FoFMem   1 times, MxPair=       132
 NAB=    66 NAA=     0 NBB=     0.
 DE(Z)  -0.68265142D+00          E(Z)=    -0.59929977328D+03
 NORM(A)=   0.11146927D+01
 Iteration Nr.   2
 **********************
 DD1Dir will call FoFMem   1 times, MxPair=       132
 NAB=    66 NAA=     0 NBB=     0.
 DE(Z)  -0.68266806D+00          E(Z)=    -0.59929978993D+03
 NORM(A)=   0.11146294D+01
 Iteration Nr.   3
 **********************
 DD1Dir will call FoFMem   1 times, MxPair=       132
 NAB=    66 NAA=     0 NBB=     0.
 DE(Z)  -0.68265982D+00          E(Z)=    -0.59929978169D+03
 NORM(A)=   0.11147901D+01
 Iteration Nr.   4
 **********************
 DD1Dir will call FoFMem   1 times, MxPair=       132
 NAB=    66 NAA=     0 NBB=     0.
 DE(Z)  -0.68267628D+00          E(Z)=    -0.59929979815D+03
 NORM(A)=   0.11149007D+01
 Iteration Nr.   5
 **********************
 DD1Dir will call FoFMem   1 times, MxPair=       132
 NAB=    66 NAA=     0 NBB=     0.
 DE(Z)  -0.68268648D+00          E(Z)=    -0.59929980835D+03
 NORM(A)=   0.11078855D+01
 Iteration Nr.   6
 **********************
 DD1Dir will call FoFMem   1 times, MxPair=       132
 NAB=    66 NAA=     0 NBB=     0.
 DE(Z)  -0.68198236D+00          E(Z)=    -0.59929910422D+03
 NORM(A)=   0.11078810D+01
 Iteration Nr.   7
 **********************
 DD1Dir will call FoFMem   1 times, MxPair=       132
 NAB=    66 NAA=     0 NBB=     0.
 DE(Z)  -0.68198381D+00          E(Z)=    -0.59929910567D+03
 NORM(A)=   0.11078753D+01
 Iteration Nr.   8
 **********************
 DD1Dir will call FoFMem   1 times, MxPair=       132
 NAB=    66 NAA=     0 NBB=     0.
 DE(Z)  -0.68198267D+00          E(Z)=    -0.59929910453D+03
 NORM(A)=   0.11078713D+01
 Iteration Nr.   9
 **********************
 DD1Dir will call FoFMem   1 times, MxPair=       132
 NAB=    66 NAA=     0 NBB=     0.
 DE(Z)  -0.68198242D+00          E(Z)=    -0.59929910428D+03
 NORM(A)=   0.11078703D+01
 Iteration Nr.  10
 **********************
 DD1Dir will call FoFMem   1 times, MxPair=       132
 NAB=    66 NAA=     0 NBB=     0.
 DE(Z)  -0.68198271D+00          E(Z)=    -0.59929910457D+03
 NORM(A)=   0.11078700D+01
 Iteration Nr.  11
 **********************
 DD1Dir will call FoFMem   1 times, MxPair=       132
 NAB=    66 NAA=     0 NBB=     0.
 DE(Z)  -0.68198257D+00          E(Z)=    -0.59929910444D+03
 NORM(A)=   0.11078699D+01
 Iteration Nr.  12
 **********************
 DD1Dir will call FoFMem   1 times, MxPair=       132
 NAB=    66 NAA=     0 NBB=     0.
 DE(Z)  -0.68198262D+00          E(Z)=    -0.59929910448D+03
 NORM(A)=   0.11078699D+01
 Iteration Nr.  13
 **********************
 DD1Dir will call FoFMem   1 times, MxPair=       132
 NAB=    66 NAA=     0 NBB=     0.
 DE(Z)  -0.68198268D+00          E(Z)=    -0.59929910455D+03
 NORM(A)=   0.11078699D+01
 Iteration Nr.  14
 **********************
 DD1Dir will call FoFMem   1 times, MxPair=       132
 NAB=    66 NAA=     0 NBB=     0.
 DE(Z)  -0.68198265D+00          E(Z)=    -0.59929910451D+03
 NORM(A)=   0.11078699D+01
 Iteration Nr.  15
 **********************
 DD1Dir will call FoFMem   1 times, MxPair=       132
 NAB=    66 NAA=     0 NBB=     0.
 DE(Z)  -0.68198267D+00          E(Z)=    -0.59929910453D+03
 NORM(A)=   0.11078699D+01
 Iteration Nr.  16
 **********************
 DD1Dir will call FoFMem   1 times, MxPair=       132
 NAB=    66 NAA=     0 NBB=     0.
 DE(Z)  -0.68198267D+00          E(Z)=    -0.59929910453D+03
 NORM(A)=   0.11078699D+01
 Iteration Nr.  17
 **********************
 DD1Dir will call FoFMem   1 times, MxPair=       132
 NAB=    66 NAA=     0 NBB=     0.
 DE(Z)  -0.68198267D+00          E(Z)=    -0.59929910453D+03
 NORM(A)=   0.11078699D+01
 Iteration Nr.  18
 **********************
 DD1Dir will call FoFMem   1 times, MxPair=       132
 NAB=    66 NAA=     0 NBB=     0.
 DE(Z)  -0.68198267D+00          E(Z)=    -0.59929910453D+03
 NORM(A)=   0.11078699D+01
 Discarding MO integrals.
          Differentiating once with respect to electric field.
                with respect to dipole field.
          Electric field/nuclear overlap derivatives assumed to be zero.
          Keep R1 ints in memory in canonical form, NReq=448662239.
          There are     1 degrees of freedom in the 1st order CPHF.  IDoFFX=0.
 LinEq1:  Iter=  0 NonCon=     1 RMS=3.11D-03 Max=1.20D-01
 AX will form     1 AO Fock derivatives at one time.
 LinEq1:  Iter=  1 NonCon=     1 RMS=6.94D-04 Max=9.46D-03
 LinEq1:  Iter=  2 NonCon=     1 RMS=2.30D-04 Max=5.72D-03
 LinEq1:  Iter=  3 NonCon=     1 RMS=9.49D-05 Max=1.45D-03
 LinEq1:  Iter=  4 NonCon=     1 RMS=3.84D-05 Max=4.10D-04
 LinEq1:  Iter=  5 NonCon=     1 RMS=1.06D-05 Max=2.26D-04
 LinEq1:  Iter=  6 NonCon=     1 RMS=2.42D-06 Max=4.24D-05
 LinEq1:  Iter=  7 NonCon=     1 RMS=6.06D-07 Max=9.14D-06
 LinEq1:  Iter=  8 NonCon=     1 RMS=1.49D-07 Max=1.80D-06
 LinEq1:  Iter=  9 NonCon=     1 RMS=3.03D-08 Max=7.47D-07
 LinEq1:  Iter= 10 NonCon=     1 RMS=6.54D-09 Max=8.90D-08
 LinEq1:  Iter= 11 NonCon=     1 RMS=1.05D-09 Max=1.16D-08
 LinEq1:  Iter= 12 NonCon=     1 RMS=1.68D-10 Max=2.85D-09
 LinEq1:  Iter= 13 NonCon=     0 RMS=2.40D-11 Max=3.21D-10
 Linear equations converged to 1.000D-10 1.000D-09 after    13 iterations.
 End of Minotr Frequency-dependent properties file   721 does not exist.
 End of Minotr Frequency-dependent properties file   722 does not exist.

 **********************************************************************

            Population analysis using the QCI/CC density.

 **********************************************************************

     Natural Orbital Coefficients:
                           1         2         3         4         5
     Eigenvalues --     2.00003   2.00003   2.00002   2.00001   2.00001
   1 1   C  1S          0.00013   0.00000  -0.04328   0.08033   0.97619
   2        2S          0.00001   0.00000   0.00131   0.00050  -0.01332
   3        3S          0.00001   0.00000  -0.00132   0.00400   0.03985
   4        4S         -0.00019   0.00000  -0.01265  -0.02361   0.00311
   5        5S         -0.00004   0.00000  -0.00120  -0.00062  -0.00061
   6        6PX         0.00000   0.00005   0.00000   0.00000   0.00000
   7        6PY         0.00005   0.00000   0.00000   0.00000   0.00000
   8        6PZ         0.00000   0.00000   0.00053   0.00168   0.00087
   9        7PX         0.00000   0.00085   0.00000   0.00000   0.00000
  10        7PY         0.00084   0.00000  -0.00001  -0.00002  -0.00001
  11        7PZ         0.00000   0.00000   0.00142   0.00304  -0.00091
  12        8PX         0.00000   0.00457   0.00000   0.00000   0.00000
  13        8PY         0.00456   0.00000   0.00003   0.00004   0.00000
  14        8PZ        -0.00001   0.00000  -0.00373  -0.00410  -0.00309
  15        9PX         0.00000   0.00042   0.00000   0.00000   0.00000
  16        9PY         0.00042   0.00000   0.00000   0.00000   0.00000
  17        9PZ         0.00000   0.00000   0.00021   0.00017  -0.00049
  18       10D 0        0.00000   0.00000   0.00011   0.00033  -0.00057
  19       10D+1        0.00000  -0.00015   0.00000   0.00000   0.00000
  20       10D-1       -0.00015   0.00000   0.00000   0.00000   0.00000
  21       10D+2        0.00004   0.00000   0.00000   0.00000   0.00000
  22       10D-2        0.00000   0.00004   0.00000   0.00000   0.00000
  23       11D 0        0.00001   0.00000   0.00022  -0.00009  -0.00029
  24       11D+1        0.00000   0.00025   0.00000   0.00000   0.00000
  25       11D-1        0.00026   0.00000   0.00001   0.00002   0.00001
  26       11D+2        0.00101   0.00000   0.00000  -0.00001  -0.00001
  27       11D-2        0.00000   0.00101   0.00000   0.00000   0.00000
  28       12D 0       -0.00003   0.00000  -0.00078   0.00122  -0.00236
  29       12D+1        0.00000  -0.00131   0.00000   0.00000   0.00000
  30       12D-1       -0.00130   0.00000   0.00001   0.00001   0.00000
  31       12D+2        0.00162   0.00000   0.00001   0.00001   0.00000
  32       12D-2        0.00000   0.00163   0.00000   0.00000   0.00000
  33       13F 0        0.00000   0.00000   0.00001   0.00003   0.00019
  34       13F+1        0.00000  -0.00019   0.00000   0.00000   0.00000
  35       13F-1       -0.00019   0.00000   0.00000   0.00000   0.00000
  36       13F+2        0.00002   0.00000   0.00000   0.00000   0.00000
  37       13F-2        0.00000   0.00002   0.00000   0.00000   0.00000
  38       13F+3        0.00000   0.00000   0.00000   0.00000   0.00000
  39       13F-3        0.00000   0.00000  -0.00006   0.00007   0.00090
  40       14F 0        0.00000   0.00000  -0.00113  -0.00215  -0.00019
  41       14F+1        0.00000   0.00058   0.00000   0.00000   0.00000
  42       14F-1        0.00057   0.00000   0.00001   0.00001   0.00001
  43       14F+2        0.00035   0.00000   0.00000   0.00001   0.00001
  44       14F-2        0.00000   0.00033   0.00000   0.00000   0.00000
  45       14F+3        0.00000   0.00000   0.00000   0.00000   0.00000
  46       14F-3       -0.00002   0.00000  -0.00086  -0.00136  -0.00191
  47 2   H  1S         -0.00016   0.00000  -0.00002  -0.00035  -0.00135
  48        2S          0.00123   0.00000   0.00245   0.00331  -0.00068
  49        3S          0.00872   0.00000   0.00185   0.00534  -0.00435
  50        4S         -0.00027   0.00000   0.00011   0.00010  -0.00013
  51        5PX         0.00000   0.00000   0.00000   0.00000   0.00000
  52        5PY         0.00003   0.00000   0.00004  -0.00003  -0.00048
  53        5PZ         0.00001   0.00000   0.00001   0.00002  -0.00009
  54        6PX         0.00000   0.00019   0.00000   0.00000   0.00000
  55        6PY         0.00066   0.00000   0.00045   0.00069  -0.00080
  56        6PZ         0.00063   0.00000  -0.00001  -0.00009   0.00024
  57        7PX         0.00000   0.00092   0.00000   0.00000   0.00000
  58        7PY         0.00210   0.00000   0.00054   0.00136  -0.00102
  59        7PZ         0.00029   0.00000   0.00048   0.00093  -0.00006
  60        8D 0        0.00004   0.00000   0.00001   0.00007   0.00014
  61        8D+1        0.00000  -0.00002   0.00000   0.00000   0.00000
  62        8D-1        0.00010   0.00000   0.00002   0.00005  -0.00004
  63        8D+2       -0.00005   0.00000  -0.00004  -0.00005   0.00028
  64        8D-2        0.00000   0.00001   0.00000   0.00000   0.00000
  65        9D 0        0.00039   0.00000   0.00015   0.00025   0.00063
  66        9D+1        0.00000   0.00024   0.00000   0.00000   0.00000
  67        9D-1        0.00013   0.00000  -0.00014  -0.00025   0.00001
  68        9D+2       -0.00013   0.00000   0.00001   0.00003  -0.00010
  69        9D-2        0.00000   0.00012   0.00000   0.00000   0.00000
  70 3   H  1S          0.00008  -0.00014  -0.00002  -0.00035  -0.00135
  71        2S         -0.00055   0.00104   0.00245   0.00334  -0.00066
  72        3S         -0.00432   0.00754   0.00181   0.00527  -0.00434
  73        4S          0.00014  -0.00023   0.00011   0.00009  -0.00013
  74        5PX        -0.00001   0.00003   0.00004  -0.00002  -0.00042
  75        5PY         0.00001  -0.00001  -0.00002   0.00001   0.00024
  76        5PZ        -0.00001   0.00001   0.00001   0.00001  -0.00009
  77        6PX        -0.00020   0.00055   0.00040   0.00061  -0.00069
  78        6PY         0.00031  -0.00020  -0.00023  -0.00035   0.00040
  79        6PZ        -0.00031   0.00053  -0.00001  -0.00010   0.00024
  80        7PX        -0.00050   0.00181   0.00046   0.00117  -0.00088
  81        7PY         0.00121  -0.00051  -0.00027  -0.00067   0.00051
  82        7PZ        -0.00013   0.00023   0.00047   0.00092  -0.00006
  83        8D 0       -0.00002   0.00003   0.00001   0.00006   0.00014
  84        8D+1       -0.00005   0.00007   0.00002   0.00004  -0.00003
  85        8D-1        0.00001  -0.00005  -0.00001  -0.00002   0.00002
  86        8D+2        0.00000   0.00003   0.00002   0.00003  -0.00014
  87        8D-2        0.00003  -0.00003  -0.00004  -0.00005   0.00024
  88        9D 0       -0.00019   0.00034   0.00015   0.00025   0.00063
  89        9D+1        0.00005   0.00016  -0.00012  -0.00022   0.00001
  90        9D-1        0.00022   0.00005   0.00007   0.00013   0.00000
  91        9D+2        0.00006   0.00011   0.00000  -0.00001   0.00005
  92        9D-2        0.00011  -0.00007   0.00001   0.00002  -0.00009
  93 4   H  1S          0.00008   0.00014  -0.00002  -0.00035  -0.00135
  94        2S         -0.00055  -0.00104   0.00245   0.00334  -0.00066
  95        3S         -0.00432  -0.00755   0.00181   0.00527  -0.00434
  96        4S          0.00014   0.00023   0.00011   0.00009  -0.00013
  97        5PX         0.00001   0.00003  -0.00004   0.00002   0.00042
  98        5PY         0.00001   0.00001  -0.00002   0.00001   0.00024
  99        5PZ        -0.00001  -0.00001   0.00001   0.00001  -0.00009
 100        6PX         0.00020   0.00055  -0.00040  -0.00061   0.00069
 101        6PY         0.00031   0.00020  -0.00023  -0.00035   0.00040
 102        6PZ        -0.00031  -0.00053  -0.00001  -0.00010   0.00024
 103        7PX         0.00050   0.00181  -0.00046  -0.00117   0.00088
 104        7PY         0.00121   0.00051  -0.00027  -0.00067   0.00051
 105        7PZ        -0.00013  -0.00023   0.00047   0.00092  -0.00006
 106        8D 0       -0.00002  -0.00003   0.00001   0.00006   0.00014
 107        8D+1        0.00005   0.00007  -0.00002  -0.00004   0.00003
 108        8D-1        0.00001   0.00005  -0.00001  -0.00002   0.00002
 109        8D+2        0.00000  -0.00003   0.00002   0.00003  -0.00014
 110        8D-2       -0.00003  -0.00003   0.00004   0.00005  -0.00024
 111        9D 0       -0.00019  -0.00034   0.00015   0.00025   0.00063
 112        9D+1       -0.00005   0.00016   0.00012   0.00022  -0.00001
 113        9D-1        0.00022  -0.00005   0.00007   0.00013   0.00000
 114        9D+2        0.00006  -0.00011   0.00000  -0.00001   0.00005
 115        9D-2       -0.00011  -0.00007  -0.00001  -0.00002   0.00009
 116 5   Cl 1S          0.00007   0.00000  -0.25059   0.14801  -0.02283
 117        2S         -0.00023   0.00000   0.84589  -0.50031   0.07825
 118        3S          0.00000   0.00000  -0.02309   0.00933  -0.00239
 119        4S         -0.00002   0.00000   0.06655  -0.04076   0.00643
 120        5S          0.00003   0.00000  -0.00211   0.00777   0.00351
 121        6S          0.00000   0.00000  -0.00154  -0.00213   0.00300
 122        7PX         0.00011   0.97886   0.00009   0.00015  -0.00001
 123        7PY         0.97884  -0.00010  -0.00302  -0.00550   0.00019
 124        7PZ         0.00629  -0.00017   0.50090   0.83585  -0.04717
 125        8PX         0.00000  -0.01915   0.00000   0.00000   0.00000
 126        8PY        -0.01915   0.00000   0.00005   0.00008   0.00000
 127        8PZ        -0.00013   0.00000  -0.00878  -0.01404   0.00011
 128        9PX         0.00001   0.05233   0.00001   0.00001   0.00000
 129        9PY         0.05233  -0.00001  -0.00017  -0.00032   0.00001
 130        9PZ         0.00034  -0.00001   0.02844   0.04954  -0.00268
 131       10PX         0.00000  -0.00578   0.00000   0.00000   0.00000
 132       10PY        -0.00578   0.00000   0.00002   0.00002   0.00002
 133       10PZ        -0.00005   0.00000  -0.00435  -0.00275  -0.00347
 134       11PX         0.00000  -0.00214   0.00000   0.00000   0.00000
 135       11PY        -0.00215   0.00000   0.00000   0.00000   0.00000
 136       11PZ        -0.00001   0.00000  -0.00036  -0.00015  -0.00053
 137       12D 0        0.00000   0.00000   0.00001  -0.00051  -0.00017
 138       12D+1        0.00000  -0.00032   0.00000   0.00000   0.00000
 139       12D-1       -0.00032   0.00000   0.00000   0.00000   0.00000
 140       12D+2        0.00001   0.00000   0.00000   0.00000   0.00000
 141       12D-2        0.00000   0.00001   0.00000   0.00000   0.00000
 142       13D 0        0.00001   0.00000   0.00088   0.00244   0.00042
 143       13D+1        0.00000   0.00081   0.00000   0.00000   0.00000
 144       13D-1        0.00081   0.00000  -0.00001  -0.00002   0.00000
 145       13D+2       -0.00002   0.00000   0.00000   0.00000   0.00000
 146       13D-2        0.00000  -0.00002   0.00000   0.00000   0.00000
 147       14D 0        0.00000   0.00000   0.00058  -0.00018   0.00080
 148       14D+1        0.00000  -0.00071   0.00000   0.00000   0.00000
 149       14D-1       -0.00071   0.00000  -0.00001   0.00000  -0.00001
 150       14D+2        0.00003   0.00000   0.00000   0.00000   0.00000
 151       14D-2        0.00000   0.00003   0.00000   0.00000   0.00000
 152       15F 0        0.00000   0.00000   0.00001  -0.00007  -0.00003
 153       15F+1        0.00000  -0.00001   0.00000   0.00000   0.00000
 154       15F-1       -0.00001   0.00000   0.00000   0.00000   0.00000
 155       15F+2        0.00003   0.00000   0.00000   0.00000   0.00000
 156       15F-2        0.00000   0.00003   0.00000   0.00000   0.00000
 157       15F+3        0.00000   0.00000   0.00000   0.00000   0.00000
 158       15F-3        0.00000   0.00000   0.00001   0.00003   0.00000
 159       16F 0        0.00000   0.00000  -0.00032  -0.00058  -0.00031
 160       16F+1        0.00000  -0.00022   0.00000   0.00000   0.00000
 161       16F-1       -0.00022   0.00000   0.00000   0.00001   0.00000
 162       16F+2       -0.00004   0.00000   0.00000   0.00000   0.00000
 163       16F-2        0.00000  -0.00003   0.00000   0.00000   0.00000
 164       16F+3        0.00000   0.00000   0.00000   0.00000   0.00000
 165       16F-3        0.00000   0.00000  -0.00002  -0.00005   0.00002
 166 6   F  1S         -0.00001   0.00000  -0.00144  -0.01041  -0.04976
 167        2S          0.00000   0.00000   0.00020   0.00043   0.00080
 168        3S          0.00000   0.00000  -0.00007  -0.00045  -0.00202
 169        4S          0.00001   0.00000  -0.00055  -0.00105   0.00056
 170        5S          0.00004   0.00000   0.00010  -0.00168   0.00178
 171        6PX         0.00000  -0.00004   0.00000   0.00000   0.00000
 172        6PY        -0.00004   0.00000   0.00000   0.00000   0.00000
 173        6PZ         0.00000   0.00000   0.00058   0.00111   0.00011
 174        7PX         0.00000  -0.00001   0.00000   0.00000   0.00000
 175        7PY        -0.00001   0.00000   0.00000   0.00000   0.00000
 176        7PZ         0.00000   0.00000   0.00069   0.00132   0.00002
 177        8PX         0.00000  -0.00025   0.00000   0.00000   0.00000
 178        8PY        -0.00024   0.00000   0.00000   0.00000   0.00000
 179        8PZ         0.00001   0.00000   0.00008   0.00017   0.00048
 180        9PX         0.00000  -0.00036   0.00000   0.00000   0.00000
 181        9PY        -0.00036   0.00000   0.00000   0.00000   0.00000
 182        9PZ         0.00001   0.00000   0.00017  -0.00009   0.00071
 183       10D 0        0.00000   0.00000   0.00001   0.00001  -0.00002
 184       10D+1        0.00000  -0.00001   0.00000   0.00000   0.00000
 185       10D-1       -0.00001   0.00000   0.00000   0.00000   0.00000
 186       10D+2        0.00001   0.00000   0.00000   0.00000   0.00000
 187       10D-2        0.00000   0.00001   0.00000   0.00000   0.00000
 188       11D 0        0.00000   0.00000  -0.00003  -0.00010   0.00001
 189       11D+1        0.00000   0.00005   0.00000   0.00000   0.00000
 190       11D-1        0.00005   0.00000   0.00000   0.00000   0.00000
 191       11D+2       -0.00003   0.00000   0.00000   0.00000   0.00000
 192       11D-2        0.00000  -0.00003   0.00000   0.00000   0.00000
 193       12D 0        0.00000   0.00000  -0.00019  -0.00012   0.00011
 194       12D+1        0.00000  -0.00023   0.00000   0.00000   0.00000
 195       12D-1       -0.00022   0.00000   0.00000   0.00000   0.00000
 196       12D+2        0.00011   0.00000   0.00000   0.00000   0.00000
 197       12D-2        0.00000   0.00011   0.00000   0.00000   0.00000
 198       13F 0        0.00000   0.00000   0.00001  -0.00001  -0.00004
 199       13F+1        0.00000   0.00002   0.00000   0.00000   0.00000
 200       13F-1        0.00002   0.00000   0.00000   0.00000   0.00000
 201       13F+2       -0.00002   0.00000   0.00000   0.00000   0.00000
 202       13F-2        0.00000  -0.00002   0.00000   0.00000   0.00000
 203       13F+3        0.00000   0.00000   0.00000   0.00000   0.00000
 204       13F-3        0.00000   0.00000   0.00000   0.00000   0.00000
 205       14F 0        0.00000   0.00000  -0.00004   0.00002   0.00013
 206       14F+1        0.00000  -0.00006   0.00000   0.00000   0.00000
 207       14F-1       -0.00006   0.00000   0.00000   0.00000   0.00000
 208       14F+2        0.00004   0.00000   0.00000   0.00000   0.00000
 209       14F-2        0.00000   0.00004   0.00000   0.00000   0.00000
 210       14F+3        0.00000   0.00000   0.00000   0.00000   0.00000
 211       14F-3        0.00000   0.00000   0.00000   0.00000  -0.00001
                           6         7         8         9        10
     Eigenvalues --     2.00000   2.00000   1.98361   1.97543   1.96949
   1 1   C  1S          0.05039  -0.00046   0.01542  -0.07338  -0.14372
   2        2S         -0.00012  -0.00001  -0.04201   0.19910   0.39728
   3        3S          0.00230  -0.00003  -0.01040   0.04619   0.09614
   4        4S         -0.00699   0.00016   0.00557   0.07907   0.19079
   5        5S         -0.00016   0.00010   0.00785  -0.00690  -0.02889
   6        6PX         0.00000   0.00000   0.00000   0.00000   0.00000
   7        6PY         0.00000   0.00000   0.00001  -0.00017   0.00012
   8        6PZ         0.00004   0.00000   0.00646   0.01034  -0.02723
   9        7PX         0.00000   0.00000   0.00000   0.00000   0.00000
  10        7PY         0.00000   0.00000   0.00000  -0.00020   0.00015
  11        7PZ        -0.00075   0.00000   0.00706   0.01790  -0.03246
  12        8PX         0.00000   0.00000   0.00000   0.00000   0.00000
  13        8PY         0.00000   0.00000  -0.00007  -0.00002   0.00022
  14        8PZ         0.00519   0.00009   0.01660   0.00589  -0.02271
  15        9PX         0.00000   0.00000   0.00000   0.00000   0.00000
  16        9PY         0.00000   0.00000   0.00000   0.00000   0.00005
  17        9PZ         0.00011   0.00001  -0.00071   0.00033  -0.00407
  18       10D 0        0.00004   0.00000   0.00051  -0.00214  -0.00956
  19       10D+1        0.00000   0.00000   0.00000   0.00000   0.00000
  20       10D-1        0.00000   0.00000   0.00000  -0.00002  -0.00001
  21       10D+2        0.00000   0.00000   0.00000  -0.00001   0.00001
  22       10D-2        0.00000   0.00000   0.00000   0.00000   0.00000
  23       11D 0       -0.00023  -0.00002  -0.00529   0.00462  -0.01876
  24       11D+1        0.00000   0.00000   0.00000   0.00000  -0.00001
  25       11D-1        0.00000   0.00000  -0.00001  -0.00010   0.00000
  26       11D+2        0.00000   0.00000  -0.00001   0.00000   0.00002
  27       11D-2        0.00000   0.00000   0.00000   0.00000   0.00000
  28       12D 0        0.00027   0.00008   0.00206  -0.00841  -0.01668
  29       12D+1        0.00000   0.00000   0.00000   0.00000  -0.00001
  30       12D-1        0.00000   0.00000  -0.00002   0.00002   0.00004
  31       12D+2        0.00000   0.00000  -0.00002   0.00001   0.00000
  32       12D-2        0.00000   0.00000   0.00000   0.00000   0.00000
  33       13F 0       -0.00007   0.00000   0.00000   0.00242   0.00064
  34       13F+1        0.00000   0.00000   0.00000   0.00000   0.00000
  35       13F-1        0.00000   0.00000   0.00000  -0.00002   0.00000
  36       13F+2        0.00000   0.00000   0.00000   0.00000   0.00000
  37       13F-2        0.00000   0.00000   0.00000   0.00000   0.00000
  38       13F+3        0.00000   0.00000   0.00000   0.00000   0.00000
  39       13F-3        0.00001   0.00000  -0.00014   0.00194   0.00397
  40       14F 0        0.00127  -0.00001   0.00471   0.00261  -0.00198
  41       14F+1        0.00000   0.00000   0.00000   0.00000   0.00000
  42       14F-1        0.00000   0.00000  -0.00001  -0.00001   0.00002
  43       14F+2        0.00000   0.00000   0.00000  -0.00002  -0.00001
  44       14F-2        0.00000   0.00000   0.00000   0.00000   0.00000
  45       14F+3        0.00000   0.00000   0.00000   0.00000   0.00000
  46       14F-3       -0.00044   0.00003   0.00188  -0.00100   0.00404
  47 2   H  1S         -0.00008   0.00000  -0.00858   0.03728   0.08043
  48        2S          0.00097  -0.00006  -0.01534   0.04393   0.08361
  49        3S          0.00180   0.00004  -0.00102  -0.00490  -0.01199
  50        4S          0.00003   0.00000  -0.00047   0.00051   0.00043
  51        5PX         0.00000   0.00000   0.00000   0.00000   0.00000
  52        5PY         0.00001   0.00000  -0.00109   0.00400   0.00862
  53        5PZ        -0.00004   0.00000   0.00028   0.00096   0.00034
  54        6PX         0.00000   0.00000   0.00000   0.00000   0.00000
  55        6PY         0.00007   0.00000  -0.00074   0.00082   0.00121
  56        6PZ         0.00032  -0.00001   0.00008   0.00239  -0.00053
  57        7PX         0.00000   0.00000   0.00000   0.00000   0.00000
  58        7PY         0.00043   0.00001   0.00133  -0.00497  -0.01030
  59        7PZ        -0.00055   0.00001  -0.00281  -0.00174  -0.00132
  60        8D 0        0.00006   0.00000   0.00014  -0.00035  -0.00091
  61        8D+1        0.00000   0.00000   0.00000   0.00000   0.00000
  62        8D-1       -0.00001   0.00000  -0.00015   0.00049   0.00023
  63        8D+2       -0.00002   0.00000   0.00003  -0.00055  -0.00137
  64        8D-2        0.00000   0.00000   0.00000   0.00000   0.00000
  65        9D 0        0.00009  -0.00001  -0.00006   0.00122   0.00100
  66        9D+1        0.00000   0.00000   0.00000   0.00000   0.00000
  67        9D-1        0.00014   0.00000  -0.00006   0.00003  -0.00038
  68        9D+2        0.00004   0.00000  -0.00098   0.00225   0.00415
  69        9D-2        0.00000   0.00000   0.00000   0.00000   0.00000
  70 3   H  1S         -0.00008   0.00000  -0.00857   0.03712   0.08057
  71        2S          0.00098  -0.00006  -0.01529   0.04369   0.08377
  72        3S          0.00181   0.00004  -0.00085  -0.00491  -0.01206
  73        4S          0.00003   0.00000  -0.00047   0.00051   0.00037
  74        5PX         0.00001   0.00000  -0.00094   0.00345   0.00748
  75        5PY        -0.00001   0.00000   0.00054  -0.00199  -0.00432
  76        5PZ        -0.00004   0.00000   0.00028   0.00095   0.00035
  77        6PX         0.00007   0.00000  -0.00063   0.00069   0.00105
  78        6PY        -0.00004   0.00000   0.00036  -0.00040  -0.00060
  79        6PZ         0.00032  -0.00001   0.00008   0.00244  -0.00051
  80        7PX         0.00038   0.00001   0.00117  -0.00429  -0.00896
  81        7PY        -0.00022   0.00000  -0.00069   0.00248   0.00517
  82        7PZ        -0.00055   0.00001  -0.00280  -0.00173  -0.00131
  83        8D 0        0.00006   0.00000   0.00014  -0.00035  -0.00091
  84        8D+1       -0.00001   0.00000  -0.00013   0.00043   0.00020
  85        8D-1        0.00000   0.00000   0.00007  -0.00025  -0.00012
  86        8D+2        0.00001   0.00000  -0.00002   0.00027   0.00069
  87        8D-2       -0.00001   0.00000   0.00003  -0.00047  -0.00119
  88        9D 0        0.00009  -0.00001  -0.00006   0.00123   0.00101
  89        9D+1        0.00012   0.00000  -0.00005   0.00003  -0.00033
  90        9D-1       -0.00007   0.00000   0.00003  -0.00002   0.00019
  91        9D+2       -0.00002   0.00000   0.00049  -0.00113  -0.00207
  92        9D-2        0.00003   0.00000  -0.00085   0.00195   0.00360
  93 4   H  1S         -0.00008   0.00000  -0.00857   0.03712   0.08057
  94        2S          0.00098  -0.00006  -0.01529   0.04369   0.08377
  95        3S          0.00181   0.00004  -0.00085  -0.00491  -0.01206
  96        4S          0.00003   0.00000  -0.00047   0.00051   0.00037
  97        5PX        -0.00001   0.00000   0.00094  -0.00345  -0.00748
  98        5PY        -0.00001   0.00000   0.00054  -0.00199  -0.00431
  99        5PZ        -0.00004   0.00000   0.00028   0.00095   0.00035
 100        6PX        -0.00007   0.00000   0.00063  -0.00069  -0.00105
 101        6PY        -0.00004   0.00000   0.00036  -0.00040  -0.00060
 102        6PZ         0.00032  -0.00001   0.00008   0.00244  -0.00050
 103        7PX        -0.00038  -0.00001  -0.00118   0.00429   0.00896
 104        7PY        -0.00022   0.00000  -0.00069   0.00248   0.00516
 105        7PZ        -0.00055   0.00001  -0.00280  -0.00173  -0.00132
 106        8D 0        0.00006   0.00000   0.00014  -0.00035  -0.00091
 107        8D+1        0.00001   0.00000   0.00013  -0.00043  -0.00020
 108        8D-1        0.00000   0.00000   0.00007  -0.00025  -0.00012
 109        8D+2        0.00001   0.00000  -0.00002   0.00027   0.00069
 110        8D-2        0.00001   0.00000  -0.00003   0.00047   0.00119
 111        9D 0        0.00009  -0.00001  -0.00006   0.00123   0.00101
 112        9D+1       -0.00012   0.00000   0.00005  -0.00003   0.00033
 113        9D-1       -0.00007   0.00000   0.00003  -0.00002   0.00019
 114        9D+2       -0.00002   0.00000   0.00049  -0.00113  -0.00208
 115        9D-2       -0.00003   0.00000   0.00085  -0.00195  -0.00360
 116 5   Cl 1S          0.00007   0.99708  -0.00064   0.06648  -0.03479
 117        2S         -0.00007   0.01040   0.00292  -0.25193   0.13076
 118        3S          0.00005   0.00017  -0.00391   0.52472  -0.27821
 119        4S          0.00008   0.00026  -0.00025   0.06428  -0.03748
 120        5S         -0.00181  -0.00020  -0.01230   0.35096  -0.17054
 121        6S         -0.00050  -0.00011  -0.00461   0.02452   0.01130
 122        7PX         0.00000   0.00000   0.00000   0.00000   0.00001
 123        7PY        -0.00004   0.00000  -0.00001   0.00000  -0.00009
 124        7PZ         0.00732   0.00016   0.00152   0.00459   0.02880
 125        8PX         0.00000   0.00000   0.00000   0.00000  -0.00001
 126        8PY         0.00000   0.00000   0.00002  -0.00004   0.00022
 127        8PZ         0.00051  -0.00003  -0.00227  -0.00602  -0.07208
 128        9PX         0.00000   0.00000   0.00000   0.00000  -0.00001
 129        9PY         0.00000   0.00000   0.00001  -0.00003   0.00009
 130        9PZ         0.00032   0.00003  -0.00264   0.00068  -0.03141
 131       10PX         0.00000   0.00000   0.00000   0.00000  -0.00001
 132       10PY        -0.00001   0.00000  -0.00004  -0.00003   0.00021
 133       10PZ         0.00096   0.00015   0.00271   0.00302  -0.05237
 134       11PX         0.00000   0.00000   0.00000   0.00000   0.00000
 135       11PY         0.00000   0.00000   0.00000  -0.00001   0.00003
 136       11PZ         0.00002   0.00002  -0.00040   0.00263  -0.00875
 137       12D 0       -0.00003   0.00001  -0.00035   0.00448   0.00453
 138       12D+1        0.00000   0.00000   0.00000   0.00000   0.00000
 139       12D-1        0.00000   0.00000   0.00000  -0.00003  -0.00003
 140       12D+2        0.00000   0.00000   0.00000   0.00000   0.00000
 141       12D-2        0.00000   0.00000   0.00000   0.00000   0.00000
 142       13D 0       -0.00022   0.00000  -0.00163   0.00820   0.00969
 143       13D+1        0.00000   0.00000   0.00000   0.00000   0.00000
 144       13D-1        0.00001   0.00000   0.00002  -0.00006  -0.00008
 145       13D+2        0.00000   0.00000   0.00000   0.00000   0.00000
 146       13D-2        0.00000   0.00000   0.00000   0.00000   0.00000
 147       14D 0       -0.00014  -0.00004  -0.00184  -0.00018   0.00538
 148       14D+1        0.00000   0.00000   0.00000   0.00000   0.00000
 149       14D-1        0.00001   0.00000   0.00003   0.00000  -0.00007
 150       14D+2        0.00000   0.00000   0.00000   0.00000   0.00000
 151       14D-2        0.00000   0.00000   0.00000   0.00000   0.00000
 152       15F 0        0.00005   0.00000   0.00023  -0.00180  -0.00191
 153       15F+1        0.00000   0.00000   0.00000   0.00000   0.00000
 154       15F-1        0.00000   0.00000   0.00000   0.00002   0.00002
 155       15F+2        0.00000   0.00000   0.00000   0.00000   0.00000
 156       15F-2        0.00000   0.00000   0.00000   0.00000   0.00000
 157       15F+3        0.00000   0.00000   0.00000   0.00000   0.00000
 158       15F-3       -0.00001   0.00000  -0.00001   0.00002   0.00009
 159       16F 0       -0.00005   0.00001   0.00005  -0.00093  -0.00171
 160       16F+1        0.00000   0.00000   0.00000   0.00000   0.00000
 161       16F-1        0.00000   0.00000  -0.00001   0.00002   0.00003
 162       16F+2        0.00000   0.00000   0.00000   0.00000   0.00000
 163       16F-2        0.00000   0.00000   0.00000   0.00000   0.00000
 164       16F+3        0.00000   0.00000   0.00000   0.00000   0.00000
 165       16F-3        0.00003   0.00000   0.00002  -0.00001  -0.00021
 166 6   F  1S          0.97743  -0.00002   0.21189   0.01315   0.02162
 167        2S         -0.01503   0.00000  -0.53161  -0.03405  -0.05732
 168        3S          0.04206   0.00000  -0.16471  -0.01081  -0.01853
 169        4S          0.00193  -0.00001  -0.36876  -0.02363  -0.04391
 170        5S         -0.00083  -0.00006  -0.04529   0.00420   0.00781
 171        6PX         0.00000   0.00000   0.00000   0.00000   0.00002
 172        6PY         0.00000   0.00000   0.00005  -0.00002  -0.00002
 173        6PZ         0.00048   0.00000   0.01352   0.01270   0.08749
 174        7PX         0.00000   0.00000   0.00000   0.00000   0.00002
 175        7PY         0.00000   0.00000   0.00006  -0.00002  -0.00002
 176        7PZ        -0.00012   0.00000   0.01475   0.01551   0.10527
 177        8PX         0.00000   0.00000   0.00000   0.00000   0.00002
 178        8PY         0.00000   0.00000   0.00005  -0.00002  -0.00002
 179        8PZ         0.00240  -0.00001   0.01247   0.01225   0.08373
 180        9PX         0.00000   0.00000   0.00000   0.00000   0.00000
 181        9PY         0.00000   0.00000   0.00001   0.00000  -0.00001
 182        9PZ        -0.00008  -0.00002   0.00220   0.00316   0.02424
 183       10D 0       -0.00002   0.00000  -0.00013   0.00017   0.00060
 184       10D+1        0.00000   0.00000   0.00000   0.00000   0.00000
 185       10D-1        0.00000   0.00000   0.00000   0.00000   0.00000
 186       10D+2        0.00000   0.00000   0.00000   0.00000   0.00000
 187       10D-2        0.00000   0.00000   0.00000   0.00000   0.00000
 188       11D 0       -0.00003   0.00000  -0.00104   0.00091   0.00275
 189       11D+1        0.00000   0.00000   0.00000   0.00000   0.00000
 190       11D-1        0.00000   0.00000   0.00000   0.00000   0.00000
 191       11D+2        0.00000   0.00000   0.00000   0.00000   0.00000
 192       11D-2        0.00000   0.00000   0.00000   0.00000   0.00000
 193       12D 0        0.00080   0.00000  -0.00055   0.00035   0.00386
 194       12D+1        0.00000   0.00000   0.00000   0.00000   0.00000
 195       12D-1        0.00000   0.00000   0.00000   0.00000   0.00000
 196       12D+2        0.00000   0.00000   0.00000   0.00000   0.00000
 197       12D-2        0.00000   0.00000   0.00000   0.00000   0.00000
 198       13F 0       -0.00006   0.00000  -0.00002   0.00013   0.00027
 199       13F+1        0.00000   0.00000   0.00000   0.00000   0.00000
 200       13F-1        0.00000   0.00000   0.00000   0.00000   0.00000
 201       13F+2        0.00000   0.00000   0.00000   0.00000   0.00000
 202       13F-2        0.00000   0.00000   0.00000   0.00000   0.00000
 203       13F+3        0.00000   0.00000   0.00000   0.00000   0.00000
 204       13F-3        0.00001   0.00000   0.00001   0.00002   0.00003
 205       14F 0        0.00020   0.00000  -0.00040  -0.00006   0.00063
 206       14F+1        0.00000   0.00000   0.00000   0.00000   0.00000
 207       14F-1        0.00000   0.00000   0.00000   0.00000   0.00000
 208       14F+2        0.00000   0.00000   0.00000   0.00000   0.00000
 209       14F-2        0.00000   0.00000   0.00000   0.00000   0.00000
 210       14F+3        0.00000   0.00000   0.00000   0.00000   0.00000
 211       14F-3       -0.00001   0.00000  -0.00007  -0.00006  -0.00009
                          11        12        13        14        15
     Eigenvalues --     1.96437   1.96437   1.95923   1.95923   1.94911
   1 1   C  1S         -0.00006   0.00000   0.00002   0.00000   0.00000
   2        2S          0.00018   0.00000  -0.00006   0.00000   0.00000
   3        3S          0.00004   0.00000  -0.00002   0.00000   0.00000
   4        4S          0.00010   0.00000  -0.00010   0.00000  -0.00001
   5        5S          0.00011   0.00000  -0.00013   0.00000   0.00000
   6        6PX         0.00098   0.09782   0.00244   0.23107   0.06785
   7        6PY         0.09786  -0.00098   0.23100  -0.00244   0.00002
   8        6PZ         0.00005  -0.00002   0.00003  -0.00004  -0.00001
   9        7PX         0.00132   0.13106   0.00323   0.30625   0.09431
  10        7PY         0.13111  -0.00131   0.30620  -0.00323   0.00003
  11        7PZ         0.00008  -0.00002   0.00002  -0.00005  -0.00002
  12        8PX         0.00096   0.09592   0.00249   0.23627   0.07256
  13        8PY         0.09601  -0.00096   0.23652  -0.00249   0.00002
  14        8PZ         0.00007  -0.00002   0.00013  -0.00004  -0.00001
  15        9PX        -0.00002  -0.00221   0.00020   0.01896   0.01226
  16        9PY        -0.00217   0.00002   0.01895  -0.00020   0.00000
  17        9PZ         0.00001   0.00000   0.00003   0.00000   0.00000
  18       10D 0       -0.00001   0.00000   0.00001   0.00000   0.00000
  19       10D+1       -0.00003  -0.00271  -0.00002  -0.00128  -0.00373
  20       10D-1       -0.00270   0.00003  -0.00127   0.00001   0.00000
  21       10D+2        0.00623  -0.00006   0.01482  -0.00015   0.00000
  22       10D-2        0.00006   0.00624   0.00015   0.01483   0.00504
  23       11D 0       -0.00002   0.00000   0.00001   0.00000   0.00001
  24       11D+1       -0.00013  -0.01274   0.00007   0.00761  -0.01549
  25       11D-1       -0.01272   0.00012   0.00768  -0.00009  -0.00001
  26       11D+2        0.02065  -0.00020   0.04536  -0.00046   0.00001
  27       11D-2        0.00020   0.02063   0.00046   0.04531   0.01713
  28       12D 0        0.00000   0.00000   0.00000   0.00000   0.00000
  29       12D+1       -0.00006  -0.00608   0.00005   0.00566   0.00122
  30       12D-1       -0.00610   0.00006   0.00571  -0.00007   0.00000
  31       12D+2        0.02007  -0.00019   0.03605  -0.00037   0.00001
  32       12D-2        0.00019   0.02008   0.00037   0.03593   0.01011
  33       13F 0        0.00000   0.00000   0.00000   0.00000   0.00000
  34       13F+1        0.00000   0.00025  -0.00002  -0.00201  -0.00223
  35       13F-1        0.00025   0.00000  -0.00201   0.00002   0.00000
  36       13F+2       -0.00064   0.00001  -0.00011   0.00000   0.00000
  37       13F-2       -0.00001  -0.00064   0.00000  -0.00013  -0.00032
  38       13F+3        0.00000   0.00000   0.00000   0.00000   0.00000
  39       13F-3        0.00000   0.00000   0.00000   0.00000   0.00000
  40       14F 0        0.00001   0.00000   0.00002   0.00000   0.00000
  41       14F+1        0.00000   0.00039  -0.00006  -0.00583  -0.00727
  42       14F-1        0.00038   0.00000  -0.00583   0.00006   0.00000
  43       14F+2       -0.00385   0.00004  -0.00010   0.00000   0.00000
  44       14F-2       -0.00004  -0.00388   0.00000  -0.00016  -0.00321
  45       14F+3        0.00000   0.00001   0.00000   0.00001   0.00000
  46       14F-3        0.00000   0.00000   0.00000   0.00000   0.00000
  47 2   H  1S         -0.06728   0.00067  -0.15155   0.00158  -0.00002
  48        2S         -0.06068   0.00060  -0.15434   0.00161  -0.00002
  49        3S          0.05798  -0.00057   0.11963  -0.00125   0.00000
  50        4S         -0.00575   0.00006   0.01739  -0.00018   0.00000
  51        5PX         0.00002   0.00209   0.00004   0.00437   0.00105
  52        5PY        -0.00528   0.00005  -0.01239   0.00013   0.00000
  53        5PZ         0.00003   0.00000  -0.00279   0.00003   0.00000
  54        6PX         0.00008   0.00803   0.00014   0.01362   0.00373
  55        6PY         0.00720  -0.00007   0.01124  -0.00012   0.00000
  56        6PZ        -0.00277   0.00003   0.00041  -0.00001   0.00000
  57        7PX         0.00009   0.00926   0.00015   0.01332   0.00281
  58        7PY         0.01407  -0.00014   0.04566  -0.00048   0.00000
  59        7PZ         0.00062  -0.00001   0.00760  -0.00008   0.00000
  60        8D 0        0.00041   0.00000   0.00136  -0.00001   0.00000
  61        8D+1        0.00000   0.00002   0.00000   0.00031  -0.00003
  62        8D-1       -0.00075   0.00001  -0.00024   0.00000   0.00000
  63        8D+2        0.00060  -0.00001   0.00192  -0.00002   0.00000
  64        8D-2        0.00001   0.00105   0.00002   0.00224   0.00060
  65        9D 0       -0.00054   0.00001   0.00145  -0.00002   0.00000
  66        9D+1       -0.00002  -0.00154   0.00001   0.00098  -0.00118
  67        9D-1       -0.00334   0.00003   0.00341  -0.00004   0.00000
  68        9D+2       -0.00161   0.00002  -0.00267   0.00003   0.00000
  69        9D-2        0.00002   0.00165   0.00003   0.00287   0.00113
  70 3   H  1S          0.03312  -0.05862   0.07438  -0.13207  -0.04047
  71        2S          0.02987  -0.05288   0.07575  -0.13463  -0.03983
  72        3S         -0.02845   0.05039  -0.05870   0.10373   0.00459
  73        4S          0.00283  -0.00506  -0.00853   0.01515   0.00096
  74        5PX         0.00316  -0.00347   0.00717  -0.00828  -0.00243
  75        5PY         0.00028   0.00319   0.00026   0.00726   0.00201
  76        5PZ        -0.00001   0.00002   0.00138  -0.00244   0.00015
  77        6PX         0.00043   0.00741   0.00116   0.01181   0.00514
  78        6PY         0.00784   0.00027   0.01306   0.00088  -0.00082
  79        6PZ         0.00136  -0.00242  -0.00021   0.00032  -0.00101
  80        7PX        -0.00195   0.01288  -0.01356   0.03763   0.00798
  81        7PY         0.01044  -0.00218   0.02132  -0.01419  -0.00298
  82        7PZ        -0.00032   0.00059  -0.00375   0.00662   0.00258
  83        8D 0       -0.00020   0.00036  -0.00067   0.00118   0.00035
  84        8D+1        0.00033  -0.00056   0.00024  -0.00011  -0.00023
  85        8D-1       -0.00017   0.00033   0.00018   0.00024   0.00011
  86        8D+2        0.00094   0.00018   0.00216   0.00012   0.00003
  87        8D-2        0.00020   0.00071   0.00016   0.00200   0.00054
  88        9D 0        0.00027  -0.00048  -0.00072   0.00128  -0.00014
  89        9D+1        0.00075  -0.00289  -0.00102   0.00282  -0.00064
  90        9D-1       -0.00197   0.00079   0.00160  -0.00107  -0.00031
  91        9D+2        0.00085   0.00140   0.00152   0.00238   0.00095
  92        9D-2        0.00140  -0.00081   0.00239  -0.00131  -0.00052
  93 4   H  1S          0.03427   0.05795   0.07711   0.13050   0.04049
  94        2S          0.03092   0.05228   0.07854   0.13302   0.03985
  95        3S         -0.02945  -0.04982  -0.06085  -0.10248  -0.00459
  96        4S          0.00293   0.00500  -0.00884  -0.01496  -0.00096
  97        5PX        -0.00323  -0.00341  -0.00734  -0.00813  -0.00243
  98        5PY         0.00021  -0.00319   0.00011  -0.00726  -0.00201
  99        5PZ        -0.00001  -0.00002   0.00143   0.00241  -0.00015
 100        6PX        -0.00028   0.00741  -0.00091   0.01183   0.00514
 101        6PY         0.00783  -0.00043   0.01304  -0.00116   0.00082
 102        6PZ         0.00141   0.00239  -0.00022  -0.00032   0.00101
 103        7PX         0.00221   0.01284   0.01435   0.03734   0.00798
 104        7PY         0.01048   0.00197   0.02161   0.01374   0.00298
 105        7PZ        -0.00033  -0.00059  -0.00389  -0.00655  -0.00258
 106        8D 0       -0.00021  -0.00035  -0.00069  -0.00117  -0.00035
 107        8D+1       -0.00034  -0.00055  -0.00024  -0.00010  -0.00023
 108        8D-1       -0.00018  -0.00033   0.00018  -0.00025  -0.00011
 109        8D+2        0.00094  -0.00020   0.00216  -0.00016  -0.00003
 110        8D-2       -0.00019   0.00072  -0.00012   0.00200   0.00054
 111        9D 0        0.00028   0.00047  -0.00075  -0.00127   0.00014
 112        9D+1       -0.00080  -0.00287   0.00108   0.00280  -0.00064
 113        9D-1       -0.00199  -0.00075   0.00162   0.00104   0.00031
 114        9D+2        0.00082  -0.00142   0.00147  -0.00241  -0.00095
 115        9D-2       -0.00142  -0.00078  -0.00242  -0.00125  -0.00052
 116 5   Cl 1S          0.00003   0.00000   0.00008   0.00000   0.00000
 117        2S         -0.00010   0.00000  -0.00030   0.00000   0.00000
 118        3S          0.00021   0.00000   0.00063  -0.00001   0.00000
 119        4S          0.00003   0.00000   0.00010   0.00000   0.00000
 120        5S          0.00018   0.00000   0.00059  -0.00001   0.00000
 121        6S         -0.00006   0.00000   0.00012   0.00000   0.00000
 122        7PX        -0.00009  -0.00878  -0.00046  -0.04352   0.22360
 123        7PY        -0.00882   0.00009  -0.04368   0.00046   0.00007
 124        7PZ        -0.00009   0.00000  -0.00041   0.00001  -0.00004
 125        8PX         0.00021   0.02079   0.00108   0.10284  -0.51152
 126        8PY         0.02088  -0.00021   0.10321  -0.00109  -0.00016
 127        8PZ         0.00019  -0.00001   0.00094  -0.00003   0.00009
 128        9PX         0.00010   0.00965   0.00050   0.04756  -0.24710
 129        9PY         0.00969  -0.00010   0.04774  -0.00050  -0.00008
 130        9PZ         0.00009   0.00000   0.00044  -0.00001   0.00004
 131       10PX         0.00010   0.01037   0.00059   0.05568  -0.36767
 132       10PY         0.01042  -0.00010   0.05587  -0.00059  -0.00012
 133       10PZ         0.00010   0.00000   0.00039  -0.00001   0.00006
 134       11PX         0.00002   0.00212   0.00004   0.00338  -0.06214
 135       11PY         0.00212  -0.00002   0.00340  -0.00004  -0.00002
 136       11PZ         0.00003   0.00000  -0.00002   0.00000   0.00001
 137       12D 0       -0.00003   0.00000  -0.00010   0.00000   0.00000
 138       12D+1       -0.00002  -0.00188  -0.00007  -0.00617   0.00023
 139       12D-1       -0.00189   0.00002  -0.00620   0.00007   0.00000
 140       12D+2        0.00011   0.00000   0.00052  -0.00001   0.00000
 141       12D-2        0.00000   0.00012   0.00000   0.00057   0.00024
 142       13D 0       -0.00003   0.00000  -0.00014   0.00000   0.00000
 143       13D+1       -0.00003  -0.00290  -0.00012  -0.01095   0.00070
 144       13D-1       -0.00291   0.00003  -0.01096   0.00012   0.00000
 145       13D+2        0.00031   0.00000   0.00060  -0.00001   0.00000
 146       13D-2        0.00000   0.00033   0.00001   0.00069   0.00056
 147       14D 0        0.00000   0.00000  -0.00001   0.00000   0.00000
 148       14D+1        0.00000   0.00007   0.00000   0.00004   0.00337
 149       14D-1        0.00006   0.00000   0.00005   0.00000   0.00000
 150       14D+2       -0.00065   0.00001  -0.00006   0.00000   0.00000
 151       14D-2       -0.00001  -0.00066   0.00000  -0.00008   0.00005
 152       15F 0        0.00001   0.00000   0.00004   0.00000   0.00000
 153       15F+1        0.00001   0.00088   0.00003   0.00262  -0.00141
 154       15F-1        0.00089  -0.00001   0.00263  -0.00003   0.00000
 155       15F+2       -0.00011   0.00000  -0.00032   0.00000   0.00000
 156       15F-2        0.00000  -0.00012   0.00000  -0.00036  -0.00009
 157       15F+3        0.00000   0.00000   0.00000   0.00000   0.00000
 158       15F-3        0.00000   0.00000   0.00000   0.00000   0.00000
 159       16F 0        0.00001   0.00000   0.00002   0.00000   0.00000
 160       16F+1        0.00001   0.00059   0.00002   0.00202  -0.00180
 161       16F-1        0.00059  -0.00001   0.00200  -0.00002   0.00000
 162       16F+2        0.00002   0.00000   0.00020   0.00000   0.00000
 163       16F-2        0.00000   0.00001   0.00000   0.00017  -0.00019
 164       16F+3        0.00000   0.00000   0.00000   0.00000   0.00000
 165       16F-3        0.00000   0.00000   0.00000   0.00000   0.00000
 166 6   F  1S         -0.00001   0.00000  -0.00001   0.00000   0.00000
 167        2S          0.00003   0.00000   0.00002   0.00000   0.00000
 168        3S          0.00001   0.00000   0.00001   0.00000   0.00000
 169        4S          0.00002   0.00000   0.00005   0.00000   0.00000
 170        5S          0.00001   0.00000   0.00009   0.00000   0.00000
 171        6PX         0.00333   0.33220  -0.00171  -0.16193  -0.02260
 172        6PY         0.33218  -0.00333  -0.16198   0.00171  -0.00001
 173        6PZ        -0.00047  -0.00005   0.00023   0.00003   0.00001
 174        7PX         0.00397   0.39628  -0.00203  -0.19201  -0.02674
 175        7PY         0.39625  -0.00398  -0.19206   0.00202  -0.00001
 176        7PZ        -0.00056  -0.00006   0.00027   0.00003   0.00001
 177        8PX         0.00321   0.32038  -0.00170  -0.16152  -0.02291
 178        8PY         0.32035  -0.00321  -0.16156   0.00170  -0.00001
 179        8PZ        -0.00045  -0.00005   0.00026   0.00002   0.00001
 180        9PX         0.00101   0.10071  -0.00060  -0.05696  -0.01115
 181        9PY         0.10070  -0.00101  -0.05697   0.00060   0.00000
 182        9PZ        -0.00014  -0.00002   0.00011   0.00001   0.00000
 183       10D 0        0.00000   0.00000   0.00000   0.00000   0.00000
 184       10D+1        0.00001   0.00060   0.00000   0.00009   0.00012
 185       10D-1        0.00060  -0.00001   0.00009   0.00000   0.00000
 186       10D+2        0.00002   0.00000   0.00004   0.00000   0.00000
 187       10D-2        0.00000   0.00002   0.00000   0.00004   0.00001
 188       11D 0        0.00000   0.00000   0.00000   0.00000   0.00000
 189       11D+1        0.00002   0.00242   0.00001   0.00122   0.00059
 190       11D-1        0.00242  -0.00002   0.00122  -0.00001   0.00000
 191       11D+2        0.00005   0.00000   0.00025   0.00000   0.00000
 192       11D-2        0.00000   0.00005   0.00000   0.00025   0.00018
 193       12D 0       -0.00001   0.00000   0.00002   0.00000   0.00000
 194       12D+1        0.00006   0.00593  -0.00004  -0.00355   0.00031
 195       12D-1        0.00593  -0.00006  -0.00356   0.00004   0.00000
 196       12D+2        0.00002   0.00000  -0.00027   0.00000   0.00000
 197       12D-2        0.00000   0.00004   0.00000  -0.00029  -0.00037
 198       13F 0        0.00000   0.00000   0.00000   0.00000   0.00000
 199       13F+1        0.00000   0.00022   0.00000   0.00025   0.00006
 200       13F-1        0.00022   0.00000   0.00025   0.00000   0.00000
 201       13F+2        0.00005   0.00000   0.00011   0.00000   0.00000
 202       13F-2        0.00000   0.00006   0.00000   0.00011   0.00006
 203       13F+3        0.00000   0.00000   0.00000   0.00000   0.00000
 204       13F-3        0.00000   0.00000   0.00000   0.00000   0.00000
 205       14F 0        0.00000   0.00000   0.00000   0.00000   0.00000
 206       14F+1        0.00001   0.00146  -0.00001  -0.00087   0.00001
 207       14F-1        0.00146  -0.00001  -0.00087   0.00001   0.00000
 208       14F+2       -0.00013   0.00000  -0.00024   0.00000   0.00000
 209       14F-2        0.00000  -0.00013   0.00000  -0.00024  -0.00016
 210       14F+3        0.00000   0.00000   0.00000   0.00000   0.00000
 211       14F-3        0.00000   0.00000   0.00000   0.00000   0.00000
                          16        17        18        19        20
     Eigenvalues --     1.94911   1.94879   1.93535   0.06018   0.02494
   1 1   C  1S         -0.00032   0.05334  -0.01580  -0.02406   0.00000
   2        2S          0.00091  -0.15185   0.05098   0.06679   0.00002
   3        3S          0.00020  -0.03584   0.01676   0.02431   0.00001
   4        4S          0.00284  -0.29232   0.08712  -0.22162  -0.00011
   5        5S          0.00043  -0.05764   0.03919  -0.02903  -0.00002
   6        6PX        -0.00002  -0.00001  -0.00002   0.00005   0.15433
   7        6PY         0.06816   0.00056  -0.00023   0.00006   0.00807
   8        6PZ         0.00039  -0.04569  -0.12871   0.27936  -0.00003
   9        7PX        -0.00003  -0.00001  -0.00003   0.00008   0.28632
  10        7PY         0.09470   0.00083  -0.00032   0.00017   0.01498
  11        7PZ         0.00054  -0.06474  -0.18058   0.44329  -0.00005
  12        8PX        -0.00002  -0.00001  -0.00001   0.00004   0.13092
  13        8PY         0.07285   0.00084  -0.00049   0.00025   0.00688
  14        8PZ         0.00046  -0.06421  -0.07659   0.20175  -0.00005
  15        9PX         0.00000   0.00000   0.00000   0.00000   0.02938
  16        9PY         0.01226   0.00013  -0.00012   0.00008   0.00154
  17        9PZ         0.00002  -0.00123  -0.00166  -0.00006   0.00000
  18       10D 0       -0.00008   0.00935  -0.01106  -0.00881  -0.00001
  19       10D+1        0.00000   0.00000   0.00000   0.00000   0.02550
  20       10D-1       -0.00373  -0.00004   0.00004   0.00003   0.00133
  21       10D+2        0.00502   0.00005  -0.00002  -0.00002   0.00021
  22       10D-2        0.00000   0.00000   0.00000   0.00000   0.00391
  23       11D 0       -0.00052   0.04984  -0.04570   0.06670  -0.00001
  24       11D+1        0.00000   0.00002  -0.00001   0.00002   0.05971
  25       11D-1       -0.01546  -0.00015   0.00013  -0.00043   0.00312
  26       11D+2        0.01703   0.00020  -0.00009   0.00001   0.00371
  27       11D-2       -0.00001   0.00000   0.00000   0.00000   0.06983
  28       12D 0       -0.00026   0.02816  -0.00380  -0.01697  -0.00001
  29       12D+1        0.00000   0.00001   0.00000  -0.00001   0.01862
  30       12D-1        0.00115   0.00001  -0.00002  -0.00002   0.00099
  31       12D+2        0.01011   0.00019  -0.00006   0.00000   0.00078
  32       12D-2       -0.00001   0.00000   0.00000   0.00000   0.01433
  33       13F 0        0.00001  -0.00208  -0.00328  -0.00586   0.00001
  34       13F+1        0.00000   0.00000   0.00000   0.00000  -0.00957
  35       13F-1       -0.00223  -0.00002   0.00003  -0.00003  -0.00050
  36       13F+2       -0.00034   0.00000   0.00000  -0.00002   0.00016
  37       13F-2        0.00000   0.00000   0.00000   0.00000   0.00311
  38       13F+3        0.00000   0.00000   0.00000   0.00000   0.00000
  39       13F-3        0.00003  -0.00308   0.00115  -0.00053   0.00000
  40       14F 0        0.00000  -0.00547  -0.00087   0.01161   0.00000
  41       14F+1        0.00000   0.00000   0.00000   0.00001  -0.00250
  42       14F-1       -0.00724  -0.00006   0.00003  -0.00016  -0.00013
  43       14F+2       -0.00328  -0.00002   0.00000  -0.00015  -0.00011
  44       14F-2        0.00000   0.00000   0.00000   0.00001  -0.00226
  45       14F+3        0.00000  -0.00001   0.00000  -0.00001   0.00001
  46       14F-3        0.00016  -0.01509   0.00917  -0.03771  -0.00001
  47 2   H  1S         -0.04660  -0.03421   0.02901  -0.00655   0.00211
  48        2S         -0.04629  -0.00343   0.02299   0.08061   0.01354
  49        3S          0.00508   0.02233   0.02034   0.06890   0.00864
  50        4S          0.00105   0.00011   0.00190   0.00732   0.00377
  51        5PX         0.00000   0.00000   0.00000   0.00000   0.00278
  52        5PY        -0.00360  -0.00217   0.00249  -0.00198  -0.00046
  53        5PZ         0.00021  -0.00267  -0.00322   0.01430  -0.00064
  54        6PX         0.00000   0.00000   0.00000   0.00001   0.00744
  55        6PY         0.00552   0.00561  -0.00157   0.00992   0.00310
  56        6PZ        -0.00117  -0.00099  -0.01030   0.02788  -0.00030
  57        7PX         0.00000   0.00000   0.00000   0.00000  -0.00188
  58        7PY         0.00962   0.01126  -0.00171   0.01274   0.00265
  59        7PZ         0.00282   0.00813   0.00322  -0.01417   0.00028
  60        8D 0        0.00041   0.00015  -0.00085   0.00056   0.00013
  61        8D+1        0.00000   0.00000   0.00000   0.00000   0.00180
  62        8D-1       -0.00029  -0.00021  -0.00171   0.00669  -0.00021
  63        8D+2        0.00052   0.00053  -0.00061   0.00185   0.00014
  64        8D-2        0.00000   0.00000   0.00000   0.00000   0.00210
  65        9D 0       -0.00014   0.00082  -0.00283   0.00589  -0.00018
  66        9D+1        0.00000   0.00000   0.00000   0.00000   0.00442
  67        9D-1       -0.00048   0.00201  -0.00054  -0.00596   0.00081
  68        9D+2       -0.00110   0.00107   0.00036  -0.00113  -0.00049
  69        9D-2        0.00000   0.00000   0.00000   0.00000   0.00114
  70 3   H  1S          0.02369  -0.03359   0.02876  -0.00697   0.03398
  71        2S          0.02295  -0.00295   0.02274   0.07968   0.21629
  72        3S         -0.00306   0.02181   0.02031   0.06869   0.13741
  73        4S         -0.00056   0.00012   0.00194   0.00717   0.06035
  74        5PX         0.00203  -0.00184   0.00215  -0.00175  -0.00561
  75        5PY        -0.00011   0.00107  -0.00124   0.00102   0.00499
  76        5PZ        -0.00007  -0.00268  -0.00321   0.01429  -0.01023
  77        6PX        -0.00087   0.00476  -0.00132   0.00843   0.04488
  78        6PY         0.00427  -0.00271   0.00075  -0.00490  -0.02123
  79        6PZ         0.00059  -0.00100  -0.01029   0.02836  -0.00485
  80        7PX        -0.00312   0.00958  -0.00140   0.01099   0.03616
  81        7PY         0.00464  -0.00544   0.00078  -0.00639  -0.02204
  82        7PZ        -0.00156   0.00805   0.00314  -0.01393   0.00429
  83        8D 0       -0.00020   0.00014  -0.00084   0.00062   0.00214
  84        8D+1        0.00012  -0.00018  -0.00148   0.00584  -0.00242
  85        8D-1       -0.00010   0.00010   0.00085  -0.00337   0.00253
  86        8D+2        0.00058  -0.00026   0.00030  -0.00093  -0.00009
  87        8D-2        0.00003   0.00046  -0.00053   0.00162   0.00245
  88        9D 0        0.00007   0.00083  -0.00282   0.00601  -0.00275
  89        9D+1       -0.00034   0.00175  -0.00048  -0.00507   0.01242
  90        9D-1       -0.00099  -0.00102   0.00026   0.00291  -0.00438
  91        9D+2        0.00058  -0.00053  -0.00018   0.00056   0.00451
  92        9D-2        0.00094   0.00095   0.00030  -0.00099  -0.00656
  93 4   H  1S          0.02366  -0.03359   0.02876  -0.00697  -0.03610
  94        2S          0.02291  -0.00296   0.02274   0.07968  -0.22978
  95        3S         -0.00305   0.02181   0.02031   0.06869  -0.14601
  96        4S         -0.00055   0.00012   0.00194   0.00717  -0.06412
  97        5PX        -0.00203   0.00184  -0.00215   0.00176  -0.00613
  98        5PY        -0.00011   0.00107  -0.00124   0.00102  -0.00500
  99        5PZ        -0.00006  -0.00268  -0.00321   0.01429   0.01087
 100        6PX         0.00087  -0.00476   0.00131  -0.00842   0.04721
 101        6PY         0.00427  -0.00271   0.00075  -0.00489   0.02335
 102        6PZ         0.00059  -0.00100  -0.01029   0.02836   0.00513
 103        7PX         0.00311  -0.00958   0.00140  -0.01100   0.03853
 104        7PY         0.00463  -0.00544   0.00078  -0.00638   0.02322
 105        7PZ        -0.00156   0.00805   0.00314  -0.01392  -0.00459
 106        8D 0       -0.00020   0.00014  -0.00084   0.00062  -0.00227
 107        8D+1       -0.00012   0.00018   0.00148  -0.00584  -0.00268
 108        8D-1       -0.00010   0.00010   0.00085  -0.00337  -0.00249
 109        8D+2        0.00058  -0.00026   0.00030  -0.00094   0.00033
 110        8D-2       -0.00003  -0.00046   0.00053  -0.00162   0.00247
 111        9D 0        0.00007   0.00083  -0.00282   0.00600   0.00291
 112        9D+1        0.00034  -0.00175   0.00048   0.00507   0.01293
 113        9D-1       -0.00099  -0.00102   0.00026   0.00291   0.00514
 114        9D+2        0.00058  -0.00053  -0.00018   0.00056  -0.00466
 115        9D-2       -0.00095  -0.00095  -0.00030   0.00099  -0.00704
 116 5   Cl 1S         -0.00006   0.01021   0.00050  -0.01679   0.00000
 117        2S          0.00021  -0.03897  -0.00167   0.05629   0.00000
 118        3S         -0.00043   0.08054   0.01125  -0.15674   0.00000
 119        4S         -0.00006   0.01243   0.00452  -0.03985   0.00000
 120        5S         -0.00029   0.06906   0.01221  -0.04599   0.00003
 121        6S         -0.00007   0.02043  -0.01254   0.01585   0.00002
 122        7PX        -0.00007   0.00000  -0.00004  -0.00003   0.02103
 123        7PY         0.22356   0.00168   0.00106   0.00092   0.00110
 124        7PZ         0.00092   0.02663  -0.21012  -0.16340   0.00001
 125        8PX         0.00016   0.00000   0.00008   0.00006  -0.03281
 126        8PY        -0.51145  -0.00385  -0.00232  -0.00200  -0.00171
 127        8PZ        -0.00212  -0.06220   0.46462   0.36064  -0.00002
 128        9PX         0.00008   0.00000   0.00004   0.00004  -0.03495
 129        9PY        -0.24706  -0.00185  -0.00108  -0.00116  -0.00182
 130        9PZ        -0.00102  -0.03102   0.21829   0.20646  -0.00001
 131       10PX         0.00012   0.00000   0.00006   0.00001   0.01693
 132       10PY        -0.36764  -0.00266  -0.00151  -0.00014   0.00087
 133       10PZ        -0.00139  -0.07222   0.31777   0.02931  -0.00002
 134       11PX         0.00002   0.00000   0.00001   0.00000   0.00592
 135       11PY        -0.06216  -0.00042  -0.00016  -0.00005   0.00031
 136       11PZ        -0.00019  -0.02400   0.04619   0.00728  -0.00001
 137       12D 0        0.00001  -0.00473  -0.01240   0.06747  -0.00003
 138       12D+1        0.00000   0.00000   0.00000   0.00002  -0.05784
 139       12D-1        0.00021   0.00003   0.00014  -0.00058  -0.00302
 140       12D+2        0.00025   0.00001   0.00000  -0.00001   0.00003
 141       12D-2        0.00000   0.00000   0.00000   0.00000   0.00128
 142       13D 0        0.00002  -0.00754  -0.01943   0.09788  -0.00004
 143       13D+1        0.00000   0.00000  -0.00001   0.00003  -0.08635
 144       13D-1        0.00067   0.00006   0.00022  -0.00094  -0.00451
 145       13D+2        0.00056   0.00000   0.00000  -0.00001   0.00004
 146       13D-2        0.00000   0.00000   0.00000   0.00000   0.00200
 147       14D 0       -0.00002   0.00153  -0.01323   0.03014   0.00000
 148       14D+1        0.00000   0.00000   0.00000   0.00001  -0.00949
 149       14D-1        0.00334   0.00000   0.00013  -0.00026  -0.00049
 150       14D+2        0.00008   0.00000   0.00000  -0.00001   0.00001
 151       14D-2        0.00000   0.00000   0.00000   0.00000   0.00039
 152       15F 0       -0.00002   0.00098   0.00459  -0.00358   0.00000
 153       15F+1        0.00000   0.00000   0.00000   0.00000   0.00495
 154       15F-1       -0.00140  -0.00002  -0.00006   0.00004   0.00026
 155       15F+2       -0.00012   0.00000   0.00000   0.00001  -0.00001
 156       15F-2        0.00000   0.00000   0.00000   0.00000  -0.00025
 157       15F+3        0.00000   0.00000   0.00000   0.00000   0.00000
 158       15F-3        0.00000  -0.00007   0.00004   0.00004   0.00000
 159       16F 0       -0.00003   0.00137   0.00401   0.00164   0.00000
 160       16F+1        0.00000   0.00000   0.00000   0.00000   0.00030
 161       16F-1       -0.00179  -0.00003  -0.00007   0.00004   0.00001
[...]
  78        6PY        -0.25417   0.39521  -1.71478   0.35084  -0.07480
  79        6PZ        -0.33009  -0.02409   0.00091  -0.16350  -0.08161
  80        7PX         1.00948  -9.87302  -0.43220  -1.70682  -4.62460
  81        7PY        -0.18181  -0.39351 -10.36527   1.01675  -0.88744
  82        7PZ        -1.57973  -2.87491   1.61738   0.02280  -0.39625
  83        8D 0       -0.03686   0.00880  -0.00769   0.02479   0.00924
  84        8D+1        0.01095  -0.02947  -0.00716   0.00812   0.00909
  85        8D-1       -0.00421  -0.00809  -0.03840  -0.00473   0.00060
  86        8D+2        0.05966   0.04975   0.09452   0.02477   0.01272
  87        8D-2       -0.11267   0.03562   0.04312  -0.04322   0.02947
  88        9D 0       -0.48007   0.42484  -0.26120  -0.15022   0.12393
  89        9D+1       -0.23137  -0.05160   0.24468  -0.03610  -0.15573
  90        9D-1        0.11686   0.25499   0.24729   0.02191  -0.00533
  91        9D+2       -0.08237  -1.39526  -1.04717  -0.35571  -0.50320
  92        9D-2        0.27052   0.56035  -1.36777   0.62319  -0.13260
  93 4   H  1S         -0.03587  -0.00807  -0.00731  -0.00974   0.01402
  94        2S          0.14486   2.98276   1.73459  -0.50637  -1.18082
  95        3S          6.69567  24.17332  14.30897  -3.16280 -13.66461
  96        4S          1.62052  -1.66838  -0.85559  -1.90823  -5.87594
  97        5PX        -0.02874   0.10879  -0.00101  -0.08050  -0.07572
  98        5PY        -0.02021   0.00015   0.10547  -0.04704   0.00717
  99        5PZ         0.05927   0.00921   0.00764   0.03091   0.00575
 100        6PX        -0.53565  -2.18223  -0.42635   0.59989   0.82657
 101        6PY        -0.25391  -0.39289  -1.71512   0.35068  -0.02884
 102        6PZ        -0.32992   0.02471   0.00108  -0.16370  -0.09036
 103        7PX        -1.00576  -9.87278   0.41903   1.70687   4.89883
 104        7PY        -0.18192   0.40749 -10.36482   1.01632  -0.61280
 105        7PZ        -1.58073   2.87585   1.62044   0.02228  -0.43905
 106        8D 0       -0.03685  -0.00880  -0.00771   0.02479   0.01018
 107        8D+1       -0.01098  -0.02947   0.00708  -0.00812  -0.00969
 108        8D-1       -0.00425   0.00812  -0.03838  -0.00474   0.00006
 109        8D+2        0.05974  -0.04981   0.09444   0.02479   0.01096
 110        8D-2        0.11263   0.03575  -0.04314   0.04320  -0.03079
 111        9D 0       -0.48005  -0.42473  -0.26152  -0.15024   0.13727
 112        9D+1        0.23116  -0.05203  -0.24445   0.03613   0.16661
 113        9D-1        0.11701  -0.25540   0.24659   0.02211   0.00382
 114        9D+2       -0.08305   1.39665  -1.04497  -0.35598  -0.49560
 115        9D-2       -0.27067   0.55790   1.36900  -0.62299   0.11244
 116 5   Cl 1S          0.02030   0.00000   0.00083   0.01177   0.00008
 117        2S          0.28082   0.00006   0.01152   0.16375   0.00122
 118        3S          0.78301   0.00017   0.03210   0.46006   0.00310
 119        4S         -0.04217  -0.00001  -0.00176  -0.01472  -0.00053
 120        5S         -4.35970  -0.00092  -0.18462  -3.02610  -0.02525
 121        6S         -9.82272  -0.00197  -0.35899 -13.25292  -0.05152
 122        7PX         0.00000   0.00079   0.00000   0.00000  -0.00009
 123        7PY         0.00004   0.00000   0.00078   0.00012  -0.00295
 124        7PZ        -0.00459   0.00000  -0.00004  -0.02274  -0.00012
 125        8PX        -0.00001   0.01856   0.00001  -0.00005  -0.00174
 126        8PY         0.00068  -0.00001   0.01816   0.00249  -0.05893
 127        8PZ        -0.06475  -0.00001  -0.00032  -0.31759  -0.00127
 128        9PX         0.00000  -0.00389   0.00000   0.00001   0.00029
 129        9PY        -0.00006   0.00000  -0.00390  -0.00035   0.00991
 130        9PZ         0.00190   0.00000  -0.00049   0.07964   0.00051
 131       10PX         0.00106  -0.07154   0.00000   0.00090   0.01234
 132       10PY        -0.02742   0.00004  -0.06049  -0.03665   0.42182
 133       10PZ         5.91766   0.00123   0.23066   5.08195   0.02361
 134       11PX         0.00041  -1.15163  -0.00078   0.00059  -0.00728
 135       11PY         0.03850   0.00081  -1.14572  -0.01797  -0.24859
 136       11PZ         0.79309   0.00035   0.02135   3.36046   0.01013
 137       12D 0        0.06817   0.00000   0.00299   0.00182  -0.00016
 138       12D+1        0.00001   0.03059   0.00002   0.00000  -0.00011
 139       12D-1       -0.00145  -0.00002   0.03092   0.00008  -0.00359
 140       12D+2       -0.00026   0.00001  -0.00773  -0.00008   0.01214
 141       12D-2        0.00000  -0.00765   0.00000   0.00000   0.00035
 142       13D 0       -0.38848  -0.00005  -0.01659  -0.07055   0.00042
 143       13D+1       -0.00009  -0.11264  -0.00009  -0.00002   0.00075
 144       13D-1        0.00598   0.00008  -0.11361   0.00017   0.02530
 145       13D+2        0.00106  -0.00002   0.01749   0.00026  -0.04384
 146       13D-2        0.00000   0.01748  -0.00001   0.00000  -0.00126
 147       14D 0       -1.39472  -0.00038  -0.05114  -1.24207  -0.00382
 148       14D+1       -0.00050   0.30732   0.00020  -0.00038  -0.00951
 149       14D-1        0.00531  -0.00020   0.30471   0.02093  -0.32377
 150       14D+2        0.00119   0.00008  -0.06107  -0.00068   0.20112
 151       14D-2        0.00002  -0.06818   0.00004   0.00000   0.00577
 152       15F 0       -0.04306  -0.00001  -0.00166   0.00123   0.00016
 153       15F+1       -0.00002   0.00459   0.00001   0.00000  -0.00054
 154       15F-1        0.00106   0.00000   0.00463   0.00074  -0.01849
 155       15F+2        0.00037   0.00000  -0.00924   0.00025   0.01031
 156       15F-2        0.00000  -0.01010   0.00000  -0.00001   0.00029
 157       15F+3        0.00000   0.00000   0.00000   0.00001   0.00001
 158       15F-3       -0.00937   0.00000   0.00020   0.02294  -0.00020
 159       16F 0        0.23349   0.00005   0.00882   0.08902  -0.00040
 160       16F+1        0.00011  -0.01496  -0.00002   0.00004   0.00184
 161       16F-1       -0.00364   0.00000  -0.01528  -0.00402   0.06284
 162       16F+2       -0.00207  -0.00002   0.04441  -0.00035  -0.04222
 163       16F-2       -0.00001   0.04727   0.00001   0.00001  -0.00121
 164       16F+3        0.00001   0.00002   0.00001  -0.00002  -0.00003
 165       16F-3        0.01949   0.00002  -0.00061  -0.04285   0.00053
 166 6   F  1S          0.04018   0.00001   0.00181  -0.02260   0.00004
 167        2S          0.14135   0.00003   0.00652  -0.08582   0.00025
 168        3S         -0.07203  -0.00002  -0.00307   0.03663   0.00005
 169        4S         -0.37932  -0.00008  -0.01901  -0.02100  -0.00236
 170        5S         -0.05746   0.00001  -0.00291  -5.93543  -0.03912
 171        6PX         0.00000  -0.00721   0.00000   0.00000   0.00005
 172        6PY         0.00025   0.00001  -0.00737  -0.00005   0.00170
 173        6PZ         0.00539   0.00000   0.00021   0.00222  -0.00001
 174        7PX        -0.00002   0.03736   0.00003   0.00000  -0.00018
 175        7PY        -0.00151  -0.00003   0.03795   0.00020  -0.00611
 176        7PZ        -0.06369  -0.00002  -0.00255   0.00264   0.00016
 177        8PX         0.00017  -0.26274  -0.00017  -0.00004   0.00004
 178        8PY         0.01223   0.00019  -0.26334  -0.00071   0.00078
 179        8PZ         0.62912   0.00018   0.02364  -0.24691  -0.00383
 180        9PX         0.00004  -0.84507  -0.00058  -0.00043  -0.00671
 181        9PY         0.04152   0.00059  -0.83320   0.00104  -0.23103
 182        9PZ        -0.86623  -0.00002  -0.03316  -2.49221  -0.01684
 183       10D 0        0.01136   0.00001   0.00054  -0.00797  -0.00001
 184       10D+1        0.00001  -0.01478  -0.00001   0.00000   0.00006
 185       10D-1        0.00072   0.00001  -0.01476  -0.00004   0.00216
 186       10D+2       -0.00014   0.00000   0.00499   0.00002   0.00283
 187       10D-2        0.00000   0.00487   0.00000   0.00000   0.00008
 188       11D 0       -0.04201  -0.00002  -0.00197   0.01569  -0.00002
 189       11D+1       -0.00002   0.04749   0.00004   0.00000  -0.00011
 190       11D-1       -0.00232  -0.00003   0.04745   0.00011  -0.00370
 191       11D+2        0.00037   0.00001  -0.01697  -0.00007  -0.01005
 192       11D-2        0.00000  -0.01644   0.00000   0.00000  -0.00029
 193       12D 0        0.41641   0.00013   0.01685  -0.01117  -0.00061
 194       12D+1        0.00016  -0.13774  -0.00010   0.00000  -0.00092
 195       12D-1        0.00788   0.00009  -0.13801   0.00018  -0.03225
 196       12D+2       -0.00125  -0.00004   0.06336   0.00036   0.01902
 197       12D-2       -0.00001   0.06152   0.00000   0.00000   0.00055
 198       13F 0       -0.02738   0.00000  -0.00098  -0.00759  -0.00006
 199       13F+1       -0.00001  -0.01898  -0.00001   0.00000   0.00023
 200       13F-1        0.00059   0.00002  -0.01840  -0.00020   0.00812
 201       13F+2        0.00032   0.00000  -0.00913  -0.00017   0.00262
 202       13F-2        0.00000  -0.00908  -0.00001   0.00000   0.00008
 203       13F+3        0.00000  -0.00016   0.00000   0.00000   0.00000
 204       13F-3        0.01271   0.00000   0.00054  -0.00138   0.00004
 205       14F 0        0.06817   0.00000   0.00247   0.01182   0.00004
 206       14F+1        0.00002   0.04091   0.00002   0.00000  -0.00052
 207       14F-1       -0.00112  -0.00003   0.03986   0.00038  -0.01802
 208       14F+2       -0.00099   0.00000   0.02521   0.00032  -0.00639
 209       14F-2        0.00000   0.02530   0.00002   0.00000  -0.00019
 210       14F+3       -0.00001   0.00021   0.00000   0.00000   0.00000
 211       14F-3       -0.01713   0.00000  -0.00071   0.00261  -0.00006
                         211
     Eigenvalues --     0.00000
   1 1   C  1S          0.00006
   2        2S          0.00032
   3        3S          0.00003
   4        4S          0.00286
   5        5S          0.00327
   6        6PX         0.00732
   7        6PY        -0.00022
   8        6PZ         0.00000
   9        7PX        -1.52775
  10        7PY         0.04503
  11        7PZ         0.00026
  12        8PX       -17.32431
  13        8PY         0.50767
  14        8PZ         0.00341
  15        9PX        -7.87949
  16        9PY         0.23032
  17        9PZ         0.00174
  18       10D 0        0.00000
  19       10D+1        0.00153
  20       10D-1       -0.00004
  21       10D+2        0.00063
  22       10D-2       -0.02170
  23       11D 0       -0.00014
  24       11D+1        0.20772
  25       11D-1       -0.00605
  26       11D+2        0.01221
  27       11D-2       -0.40571
  28       12D 0        0.00089
  29       12D+1        1.28544
  30       12D-1       -0.03753
  31       12D+2       -0.01622
  32       12D-2        0.56807
  33       13F 0        0.00003
  34       13F+1       -0.03882
  35       13F-1        0.00112
  36       13F+2        0.00026
  37       13F-2       -0.00911
  38       13F+3        0.00014
  39       13F-3       -0.00002
  40       14F 0       -0.00027
  41       14F+1        0.40472
  42       14F-1       -0.01186
  43       14F+2       -0.00223
  44       14F-2        0.07579
  45       14F+3        0.00137
  46       14F-3        0.00018
  47 2   H  1S         -0.00078
  48        2S          0.06485
  49        3S          0.75505
  50        4S          0.32451
  51        5PX        -0.05206
  52        5PY        -0.00338
  53        5PZ        -0.00029
  54        6PX         0.51947
  55        6PY         0.03840
  56        6PZ         0.00465
  57        7PX         3.48679
  58        7PY         0.21604
  59        7PZ         0.02306
  60        8D 0       -0.00054
  61        8D+1       -0.00545
  62        8D-1       -0.00043
  63        8D+2       -0.00122
  64        8D-2       -0.02898
  65        9D 0       -0.00781
  66        9D+1        0.09075
  67        9D-1        0.00776
  68        9D+2       -0.00764
  69        9D-2        0.57232
  70 3   H  1S          0.02334
  71        2S         -1.94220
  72        3S        -22.84246
  73        4S         -9.83553
  74        5PX         0.07708
  75        5PY        -0.07288
  76        5PZ         0.00936
  77        6PX        -0.88139
  78        6PY         0.79198
  79        6PZ        -0.14766
  80        7PX        -4.85679
  81        7PY         4.71992
  82        7PZ        -0.71795
  83        8D 0        0.01641
  84        8D+1        0.01054
  85        8D-1       -0.00937
  86        8D+2       -0.02966
  87        8D-2        0.02348
  88        9D 0        0.23488
  89        9D+1       -0.18710
  90        9D-1        0.15862
  91        9D+2        0.11418
  92        9D-2        0.34731
  93 4   H  1S         -0.02256
  94        2S          1.87676
  95        3S         22.08551
  96        4S          9.51003
  97        5PX         0.07282
  98        5PY         0.07340
  99        5PZ        -0.00907
 100        6PX        -0.83491
 101        6PY        -0.79478
 102        6PZ         0.14297
 103        7PX        -4.58073
 104        7PY        -4.76235
 105        7PZ         0.69533
 106        8D 0       -0.01585
 107        8D+1        0.00997
 108        8D-1        0.00938
 109        8D+2        0.03036
 110        8D-2        0.02172
 111        9D 0       -0.22717
 112        9D+1       -0.17786
 113        9D-1       -0.15874
 114        9D+2       -0.14312
 115        9D-2        0.35445
 116 5   Cl 1S          0.00000
 117        2S          0.00004
 118        3S          0.00009
 119        4S         -0.00002
 120        5S         -0.00073
 121        6S         -0.00150
 122        7PX         0.00300
 123        7PY        -0.00009
 124        7PZ         0.00000
 125        8PX         0.05947
 126        8PY        -0.00172
 127        8PZ        -0.00005
 128        9PX        -0.01006
 129        9PY         0.00029
 130        9PZ         0.00002
 131       10PX        -0.42206
 132       10PY         0.01232
 133       10PZ         0.00076
 134       11PX         0.24921
 135       11PY        -0.00726
 136       11PZ         0.00025
 137       12D 0       -0.00001
 138       12D+1        0.00363
 139       12D-1       -0.00010
 140       12D+2        0.00035
 141       12D-2       -0.01216
 142       13D 0        0.00002
 143       13D+1       -0.02537
 144       13D-1        0.00073
 145       13D+2       -0.00127
 146       13D-2        0.04386
 147       14D 0       -0.00021
 148       14D+1        0.32434
 149       14D-1       -0.00942
 150       14D+2        0.00586
 151       14D-2       -0.20210
 152       15F 0        0.00000
 153       15F+1        0.01839
 154       15F-1       -0.00054
 155       15F+2        0.00030
 156       15F-2       -0.01040
 157       15F+3       -0.00028
 158       15F-3       -0.00001
 159       16F 0        0.00002
 160       16F+1       -0.06276
 161       16F-1        0.00182
 162       16F+2       -0.00124
 163       16F-2        0.04259
 164       16F+3        0.00070
 165       16F-3        0.00002
 166 6   F  1S          0.00000
 167        2S          0.00001
 168        3S          0.00000
 169        4S         -0.00007
 170        5S         -0.00114
 171        6PX        -0.00169
 172        6PY         0.00005
 173        6PZ         0.00000
 174        7PX         0.00613
 175        7PY        -0.00018
 176        7PZ         0.00000
 177        8PX        -0.00155
 178        8PY         0.00002
 179        8PZ        -0.00011
 180        9PX         0.22966
 181        9PY        -0.00675
 182        9PZ        -0.00053
 183       10D 0        0.00000
 184       10D+1       -0.00221
 185       10D-1        0.00006
 186       10D+2        0.00008
 187       10D-2       -0.00286
 188       11D 0        0.00000
 189       11D+1        0.00386
 190       11D-1       -0.00011
 191       11D+2       -0.00029
 192       11D-2        0.01010
 193       12D 0       -0.00003
 194       12D+1        0.03119
 195       12D-1       -0.00094
 196       12D+2        0.00055
 197       12D-2       -0.01914
 198       13F 0        0.00000
 199       13F+1       -0.00800
 200       13F-1        0.00024
 201       13F+2        0.00007
 202       13F-2       -0.00271
 203       13F+3        0.00003
 204       13F-3        0.00000
 205       14F 0       -0.00001
 206       14F+1        0.01770
 207       14F-1       -0.00053
 208       14F+2       -0.00018
 209       14F-2        0.00648
 210       14F+3       -0.00005
 211       14F-3        0.00000
          Condensed to atoms (all electrons):
              1          2          3          4          5          6
     1  C    7.012172  -0.010407  -0.008679  -0.008679  -0.050898  -0.099839
     2  H   -0.010407   0.547470   0.020268   0.020268  -0.018786   0.004525
     3  H   -0.008679   0.020268   0.546863   0.019674  -0.018719   0.004245
     4  H   -0.008679   0.020268   0.019674   0.546862  -0.018720   0.004243
     5  Cl  -0.050898  -0.018786  -0.018719  -0.018720  17.709255   0.026400
     6  F   -0.099839   0.004525   0.004245   0.004243   0.026400   9.907587
 Mulliken atomic charges:
              1
     1  C   -0.833670
     2  H    0.436662
     3  H    0.436349
     4  H    0.436351
     5  Cl  -0.628532
     6  F   -0.847160
 Sum of Mulliken atomic charges =  -1.00000
 Mulliken charges with hydrogens summed into heavy atoms:
              1
     1  C    0.475692
     5  Cl  -0.628532
     6  F   -0.847160
 Sum of Mulliken charges with hydrogens summed into heavy atoms =  -1.00000
 Electronic spatial extent (au):  <R**2>=            490.3181
 Charge=             -1.0000 electrons
 Dipole moment (field-independent basis, Debye):
    X=             -0.0006    Y=              0.0263    Z=              4.0660  Tot=              4.0660
 Quadrupole moment (field-independent basis, Debye-Ang):
   XX=            -28.1813   YY=            -28.1816   ZZ=            -62.8201
   XY=              0.0000   XZ=             -0.0050   YZ=              0.0285
 Traceless Quadrupole moment (field-independent basis, Debye-Ang):
   XX=             11.5463   YY=             11.5461   ZZ=            -23.0924
   XY=              0.0000   XZ=             -0.0050   YZ=              0.0285
 Octapole moment (field-independent basis, Debye-Ang**2):
  XXX=             -0.0244  YYY=             -0.5250  ZZZ=             49.6856  XYY=             -0.0086
  XXY=              1.0905  XXZ=             -4.2370  XZZ=             -0.0066  YZZ=              0.2096
  YYZ=             -4.2355  XYZ=             -0.0001
 Hexadecapole moment (field-independent basis, Debye-Ang**3):
 XXXX=            -41.2687 YYYY=            -41.2733 ZZZZ=           -761.6374 XXXY=              0.0006
 XXXZ=             -0.0507 YYYX=              0.0001 YYYZ=              1.2695 ZZZX=             -0.0657
 ZZZY=              0.5942 XXYY=            -13.7585 XXZZ=           -103.3827 YYZZ=           -103.3896
 XXYZ=             -0.4256 YYXZ=             -0.0166 ZZXY=              0.0003
 N-N= 8.498408554601D+01 E-N=-1.604180184587D+03  KE= 5.991954524324D+02
 1\1\GINC-TRAPISTA\SP\RQCISD-FC\Aug-CC-pVTZ\C1H3Cl1F1(1-)\BRUNS\10-Aug-
 2021\0\\# QCISD aug-cc-pvtz nosymm density=current output=wfn\\title l
 ine\\-1,1\C,0,0.000175,0.000029,-0.497709\H,0,0.000019,-1.05257,-0.620
 726\H,0,-0.911312,0.526365,-0.621245\H,0,0.91175,0.526132,-0.62157\Cl,
 0,0.000555,-0.009038,1.644718\F,0,-0.000186,-0.000921,-2.59346\\Versio
 n=EM64L-G09RevB.01\HF=-598.6171219\MP2=-599.2912645\MP3=-599.3099655\M
 P4D=-599.3248559\MP4DQ=-599.310417\MP4SDQ=-599.3197833\QCISD=-599.3191
 655\RMSD=9.414e-09\Dipole=0.0002718,0.0016118,1.5872109\Quadrupole=8.5
 84423,8.5842162,-17.1686392,0.0000084,-0.0036923,0.0211723\PG=C01 [X(C
 1H3Cl1F1)]\\@

 Writing a WFN file to GAUSSIAN-YCl_5.wfn.


 GARBAGE IN, GARBAGE OUT
 Job cpu time:  0 days  9 hours  7 minutes 13.4 seconds.
 File lengths (MBytes):  RWF=  29002 Int=      0 D2E=      0 Chk=      4 Scr=      1
 Normal termination of Gaussian 09 at Tue Aug 10 23:08:31 2021.
