 title line
GAUSSIAN            211 MOL ORBITALS    339 PRIMITIVES        6 NUCLEI
  C    1    (CENTRE  1)   0.00033070  0.00005480 -0.94053370  CHARGE =  6.0
  H    2    (CENTRE  2)   0.00003590 -1.98906904 -1.17300214  CHARGE =  1.0
  H    3    (CENTRE  3)  -1.72213010  0.99468570 -1.17398291  CHARGE =  1.0
  H    4    (CENTRE  4)   1.72295780  0.99424539 -1.17459707  CHARGE =  1.0
  Cl   5    (CENTRE  5)   0.00104880  0.00181792  3.10806659  CHARGE = 17.0
  F    6    (CENTRE  6)  -0.00035149 -0.02063770 -4.90092914  CHARGE =  9.0
CENTRE ASSIGNMENTS    1  1  1  1  1  1  1  1  1  1  1  1  1  1  1  1  1  1  1  1
CENTRE ASSIGNMENTS    1  1  1  1  1  1  1  1  1  1  1  1  1  1  1  1  1  1  1  1
CENTRE ASSIGNMENTS    1  1  1  1  1  1  1  1  1  1  1  1  1  1  1  1  1  1  1  1
CENTRE ASSIGNMENTS    1  1  1  1  1  1  1  1  1  1  1  1  2  2  2  2  2  2  2  2
CENTRE ASSIGNMENTS    2  2  2  2  2  2  2  2  2  2  2  2  2  2  2  2  2  2  2  3
CENTRE ASSIGNMENTS    3  3  3  3  3  3  3  3  3  3  3  3  3  3  3  3  3  3  3  3
CENTRE ASSIGNMENTS    3  3  3  3  3  3  4  4  4  4  4  4  4  4  4  4  4  4  4  4
CENTRE ASSIGNMENTS    4  4  4  4  4  4  4  4  4  4  4  4  4  5  5  5  5  5  5  5
CENTRE ASSIGNMENTS    5  5  5  5  5  5  5  5  5  5  5  5  5  5  5  5  5  5  5  5
CENTRE ASSIGNMENTS    5  5  5  5  5  5  5  5  5  5  5  5  5  5  5  5  5  5  5  5
CENTRE ASSIGNMENTS    5  5  5  5  5  5  5  5  5  5  5  5  5  5  5  5  5  5  5  5
CENTRE ASSIGNMENTS    5  5  5  5  5  5  5  5  5  5  5  5  5  5  5  5  5  5  5  5
CENTRE ASSIGNMENTS    5  5  5  5  5  5  5  5  5  5  5  5  5  5  5  5  5  5  5  5
CENTRE ASSIGNMENTS    5  5  5  5  5  5  5  6  6  6  6  6  6  6  6  6  6  6  6  6
CENTRE ASSIGNMENTS    6  6  6  6  6  6  6  6  6  6  6  6  6  6  6  6  6  6  6  6
CENTRE ASSIGNMENTS    6  6  6  6  6  6  6  6  6  6  6  6  6  6  6  6  6  6  6  6
CENTRE ASSIGNMENTS    6  6  6  6  6  6  6  6  6  6  6  6  6  6  6  6  6  6  6
TYPE ASSIGNMENTS      1  1  1  1  1  1  1  1  1  1  1  1  1  1  1  1  2  2  2  3
TYPE ASSIGNMENTS      3  3  4  4  4  2  3  4  2  3  4  2  3  4  5  6  7  8  9 10
TYPE ASSIGNMENTS      5  6  7  8  9 10  5  6  7  8  9 10 11 12 13 17 14 15 18 19
TYPE ASSIGNMENTS     16 20 11 12 13 17 14 15 18 19 16 20  1  1  1  1  1  1  2  3
TYPE ASSIGNMENTS      4  2  3  4  2  3  4  5  6  7  8  9 10  5  6  7  8  9 10  1
TYPE ASSIGNMENTS      1  1  1  1  1  2  3  4  2  3  4  2  3  4  5  6  7  8  9 10
TYPE ASSIGNMENTS      5  6  7  8  9 10  1  1  1  1  1  1  2  3  4  2  3  4  2  3
TYPE ASSIGNMENTS      4  5  6  7  8  9 10  5  6  7  8  9 10  1  1  1  1  1  1  1
TYPE ASSIGNMENTS      1  1  1  1  1  1  1  1  1  1  1  1  1  1  1  1  1  1  1  1
TYPE ASSIGNMENTS      1  1  1  1  2  2  2  2  2  2  3  3  3  3  3  3  4  4  4  4
TYPE ASSIGNMENTS      4  4  2  2  2  2  2  2  3  3  3  3  3  3  4  4  4  4  4  4
TYPE ASSIGNMENTS      2  3  4  2  3  4  2  3  4  5  6  7  8  9 10  5  6  7  8  9
TYPE ASSIGNMENTS     10  5  6  7  8  9 10 11 12 13 17 14 15 18 19 16 20 11 12 13
TYPE ASSIGNMENTS     17 14 15 18 19 16 20  1  1  1  1  1  1  1  1  1  1  1  1  1
TYPE ASSIGNMENTS      1  1  1  2  2  2  3  3  3  4  4  4  2  3  4  2  3  4  2  3
TYPE ASSIGNMENTS      4  5  6  7  8  9 10  5  6  7  8  9 10  5  6  7  8  9 10 11
TYPE ASSIGNMENTS     12 13 17 14 15 18 19 16 20 11 12 13 17 14 15 18 19 16 20
EXPONENTS  0.8236000D+04 0.1235000D+04 0.2808000D+03 0.7927000D+02 0.2559000D+02
EXPONENTS  0.8997000D+01 0.3319000D+01 0.2808000D+03 0.7927000D+02 0.2559000D+02
EXPONENTS  0.8997000D+01 0.3319000D+01 0.3643000D+00 0.9059000D+00 0.1285000D+00
EXPONENTS  0.4402000D-01 0.1871000D+02 0.4133000D+01 0.1200000D+01 0.1871000D+02
EXPONENTS  0.4133000D+01 0.1200000D+01 0.1871000D+02 0.4133000D+01 0.1200000D+01
EXPONENTS  0.3827000D+00 0.3827000D+00 0.3827000D+00 0.1209000D+00 0.1209000D+00
EXPONENTS  0.1209000D+00 0.3569000D-01 0.3569000D-01 0.3569000D-01 0.1097000D+01
EXPONENTS  0.1097000D+01 0.1097000D+01 0.1097000D+01 0.1097000D+01 0.1097000D+01
EXPONENTS  0.3180000D+00 0.3180000D+00 0.3180000D+00 0.3180000D+00 0.3180000D+00
EXPONENTS  0.3180000D+00 0.1000000D+00 0.1000000D+00 0.1000000D+00 0.1000000D+00
EXPONENTS  0.1000000D+00 0.1000000D+00 0.7610000D+00 0.7610000D+00 0.7610000D+00
EXPONENTS  0.7610000D+00 0.7610000D+00 0.7610000D+00 0.7610000D+00 0.7610000D+00
EXPONENTS  0.7610000D+00 0.7610000D+00 0.2680000D+00 0.2680000D+00 0.2680000D+00
EXPONENTS  0.2680000D+00 0.2680000D+00 0.2680000D+00 0.2680000D+00 0.2680000D+00
EXPONENTS  0.2680000D+00 0.2680000D+00 0.3387000D+02 0.5095000D+01 0.1159000D+01
EXPONENTS  0.3258000D+00 0.1027000D+00 0.2526000D-01 0.1407000D+01 0.1407000D+01
EXPONENTS  0.1407000D+01 0.3880000D+00 0.3880000D+00 0.3880000D+00 0.1020000D+00
EXPONENTS  0.1020000D+00 0.1020000D+00 0.1057000D+01 0.1057000D+01 0.1057000D+01
EXPONENTS  0.1057000D+01 0.1057000D+01 0.1057000D+01 0.2470000D+00 0.2470000D+00
EXPONENTS  0.2470000D+00 0.2470000D+00 0.2470000D+00 0.2470000D+00 0.3387000D+02
EXPONENTS  0.5095000D+01 0.1159000D+01 0.3258000D+00 0.1027000D+00 0.2526000D-01
EXPONENTS  0.1407000D+01 0.1407000D+01 0.1407000D+01 0.3880000D+00 0.3880000D+00
EXPONENTS  0.3880000D+00 0.1020000D+00 0.1020000D+00 0.1020000D+00 0.1057000D+01
EXPONENTS  0.1057000D+01 0.1057000D+01 0.1057000D+01 0.1057000D+01 0.1057000D+01
EXPONENTS  0.2470000D+00 0.2470000D+00 0.2470000D+00 0.2470000D+00 0.2470000D+00
EXPONENTS  0.2470000D+00 0.3387000D+02 0.5095000D+01 0.1159000D+01 0.3258000D+00
EXPONENTS  0.1027000D+00 0.2526000D-01 0.1407000D+01 0.1407000D+01 0.1407000D+01
EXPONENTS  0.3880000D+00 0.3880000D+00 0.3880000D+00 0.1020000D+00 0.1020000D+00
EXPONENTS  0.1020000D+00 0.1057000D+01 0.1057000D+01 0.1057000D+01 0.1057000D+01
EXPONENTS  0.1057000D+01 0.1057000D+01 0.2470000D+00 0.2470000D+00 0.2470000D+00
EXPONENTS  0.2470000D+00 0.2470000D+00 0.2470000D+00 0.4561000D+06 0.6833000D+05
EXPONENTS  0.1555000D+05 0.4405000D+04 0.1439000D+04 0.5204000D+03 0.2031000D+03
EXPONENTS  0.8396000D+02 0.3620000D+02 0.1583000D+02 0.6334000D+01 0.4405000D+04
EXPONENTS  0.1439000D+04 0.5204000D+03 0.2031000D+03 0.8396000D+02 0.3620000D+02
EXPONENTS  0.1583000D+02 0.6334000D+01 0.2694000D+01 0.1439000D+04 0.2031000D+03
EXPONENTS  0.8396000D+02 0.3620000D+02 0.1583000D+02 0.6334000D+01 0.2694000D+01
EXPONENTS  0.4313000D+00 0.9768000D+00 0.1625000D+00 0.5910000D-01 0.6633000D+03
EXPONENTS  0.1568000D+03 0.4998000D+02 0.1842000D+02 0.7240000D+01 0.2922000D+01
EXPONENTS  0.6633000D+03 0.1568000D+03 0.4998000D+02 0.1842000D+02 0.7240000D+01
EXPONENTS  0.2922000D+01 0.6633000D+03 0.1568000D+03 0.4998000D+02 0.1842000D+02
EXPONENTS  0.7240000D+01 0.2922000D+01 0.1568000D+03 0.4998000D+02 0.1842000D+02
EXPONENTS  0.7240000D+01 0.2922000D+01 0.3818000D+00 0.1568000D+03 0.4998000D+02
EXPONENTS  0.1842000D+02 0.7240000D+01 0.2922000D+01 0.3818000D+00 0.1568000D+03
EXPONENTS  0.4998000D+02 0.1842000D+02 0.7240000D+01 0.2922000D+01 0.3818000D+00
EXPONENTS  0.1022000D+01 0.1022000D+01 0.1022000D+01 0.1301000D+00 0.1301000D+00
EXPONENTS  0.1301000D+00 0.4190000D-01 0.4190000D-01 0.4190000D-01 0.1046000D+01
EXPONENTS  0.1046000D+01 0.1046000D+01 0.1046000D+01 0.1046000D+01 0.1046000D+01
EXPONENTS  0.3440000D+00 0.3440000D+00 0.3440000D+00 0.3440000D+00 0.3440000D+00
EXPONENTS  0.3440000D+00 0.1350000D+00 0.1350000D+00 0.1350000D+00 0.1350000D+00
EXPONENTS  0.1350000D+00 0.1350000D+00 0.7060000D+00 0.7060000D+00 0.7060000D+00
EXPONENTS  0.7060000D+00 0.7060000D+00 0.7060000D+00 0.7060000D+00 0.7060000D+00
EXPONENTS  0.7060000D+00 0.7060000D+00 0.3120000D+00 0.3120000D+00 0.3120000D+00
EXPONENTS  0.3120000D+00 0.3120000D+00 0.3120000D+00 0.3120000D+00 0.3120000D+00
EXPONENTS  0.3120000D+00 0.3120000D+00 0.1950000D+05 0.2923000D+04 0.6645000D+03
EXPONENTS  0.1875000D+03 0.6062000D+02 0.2142000D+02 0.7950000D+01 0.6645000D+03
EXPONENTS  0.1875000D+03 0.6062000D+02 0.2142000D+02 0.7950000D+01 0.8815000D+00
EXPONENTS  0.2257000D+01 0.3041000D+00 0.9158000D-01 0.4388000D+02 0.9926000D+01
EXPONENTS  0.2930000D+01 0.4388000D+02 0.9926000D+01 0.2930000D+01 0.4388000D+02
EXPONENTS  0.9926000D+01 0.2930000D+01 0.9132000D+00 0.9132000D+00 0.9132000D+00
EXPONENTS  0.2672000D+00 0.2672000D+00 0.2672000D+00 0.7361000D-01 0.7361000D-01
EXPONENTS  0.7361000D-01 0.3107000D+01 0.3107000D+01 0.3107000D+01 0.3107000D+01
EXPONENTS  0.3107000D+01 0.3107000D+01 0.8550000D+00 0.8550000D+00 0.8550000D+00
EXPONENTS  0.8550000D+00 0.8550000D+00 0.8550000D+00 0.2920000D+00 0.2920000D+00
EXPONENTS  0.2920000D+00 0.2920000D+00 0.2920000D+00 0.2920000D+00 0.1917000D+01
EXPONENTS  0.1917000D+01 0.1917000D+01 0.1917000D+01 0.1917000D+01 0.1917000D+01
EXPONENTS  0.1917000D+01 0.1917000D+01 0.1917000D+01 0.1917000D+01 0.7240000D+00
EXPONENTS  0.7240000D+00 0.7240000D+00 0.7240000D+00 0.7240000D+00 0.7240000D+00
EXPONENTS  0.7240000D+00 0.7240000D+00 0.7240000D+00 0.7240000D+00
MO    1     MO 0.0        OCC NO =    2.0000300  ORB. ENERGY =    0.000000
  0.34992649D-05  0.65233348D-05  0.11025324D-04  0.16573119D-04  0.20357108D-04
  0.17180681D-04  0.64603848D-05 -0.58743530D-08 -0.43907149D-07 -0.16409104D-06
 -0.45778846D-06 -0.61331032D-06  0.72420513D-06  0.11692590D-05 -0.50165696D-05
 -0.21098420D-05 -0.38163102D-07 -0.35780334D-07 -0.25477729D-07  0.11107478D-03
  0.10413967D-03  0.74153647D-04  0.28078123D-05  0.26325025D-05  0.18744986D-05
 -0.12687099D-06  0.36227343D-03 -0.16775350D-05 -0.16202664D-06  0.46280329D-03
  0.17019332D-05 -0.33589829D-08  0.92799446D-05  0.18140704D-07  0.63442821D-04
 -0.64670828D-04  0.12280073D-05 -0.18508177D-06  0.15503330D-06 -0.50994797D-03
  0.19354769D-03 -0.19420478D-03  0.65709178D-06 -0.26629670D-06 -0.10094914D-06
  0.98953997D-04  0.41340365D-04 -0.40937683D-04 -0.40268131D-06 -0.71612856D-07
  0.88208208D-08 -0.65753062D-04 -0.28141244D-07  0.92633591D-04 -0.40533889D-06
 -0.37207132D-07  0.91936886D-04  0.26199998D-04  0.12163086D-06 -0.36983766D-03
 -0.24983982D-04 -0.19828331D-06  0.18315935D-07 -0.26438105D-04  0.35735792D-06
  0.98339346D-09 -0.27382409D-04  0.49873533D-04 -0.55931200D-07  0.10669672D-03
 -0.50945607D-04 -0.26352903D-07 -0.40081394D-04 -0.72288444D-04 -0.10658927D-03
  0.36959458D-03  0.11244114D-02 -0.12157161D-04  0.11059249D-07  0.71781717D-04
  0.23540432D-04  0.45418767D-07  0.28852425D-03  0.27261793D-03 -0.95987311D-08
  0.17247025D-03  0.22718914D-04 -0.11020054D-03  0.42461675D-04  0.67738865D-04
  0.77781178D-07  0.12282784D-06  0.29845889D-03 -0.43580987D-04 -0.12100318D-04
  0.55681305D-04 -0.16833005D-09  0.98302951D-08  0.31618045D-04  0.19921281D-04
  0.35928850D-04  0.52977069D-04 -0.17990189D-03 -0.56254031D-03  0.62171510D-05
 -0.28659903D-04  0.21025375D-04 -0.12081740D-04 -0.87685229D-04  0.13408265D-03
 -0.13531409D-03 -0.42051515D-04  0.99896896D-04 -0.11227849D-04  0.95305190D-05
  0.24139925D-04 -0.33670444D-04  0.78524035D-04 -0.14999511D-03  0.39334310D-04
  0.20645259D-04  0.68822385D-05 -0.27527498D-04  0.26259070D-04  0.13261471D-04
  0.53503236D-04  0.19887975D-04  0.35868782D-04  0.52888499D-04 -0.17959745D-03
 -0.56161452D-03  0.62075623D-05  0.28607820D-04  0.20990049D-04 -0.12071203D-04
  0.87444170D-04  0.13397489D-03 -0.13512471D-03  0.41932263D-04  0.99846537D-04
 -0.11225404D-04  0.95739728D-05  0.24093469D-04 -0.33667441D-04 -0.78398112D-04
  0.14977512D-03  0.39184938D-04  0.20623386D-04  0.68535211D-05 -0.27476907D-04
 -0.26231748D-04 -0.13318967D-04  0.53528794D-04  0.44113478D-04  0.82531609D-04
  0.14259632D-03  0.23116538D-03  0.35104681D-03  0.48792204D-03  0.58010192D-03
  0.51677495D-03  0.25664137D-03  0.41317089D-04  0.43591969D-06  0.20722233D-06
  0.69125902D-05  0.24088993D-04  0.86748363D-04  0.19122597D-03  0.26918445D-03
 -0.12840976D-04 -0.35227460D-03 -0.20829777D-03  0.38073563D-08  0.46116382D-07
  0.96170853D-07  0.27580126D-06  0.14321976D-07 -0.11893888D-05 -0.30731523D-05
  0.25038598D-05 -0.12576704D-04  0.13402597D-05  0.35580883D-06 -0.40407010D-02
 -0.53225485D-02 -0.58716042D-02 -0.48768270D-02 -0.25897305D-02 -0.66816400D-03
  0.11610741D+02  0.15294062D+02  0.16871745D+02  0.14013305D+02  0.74414537D+01
  0.19199340D+01  0.12690198D-02  0.16715959D-02  0.18440320D-02  0.15316129D-02
  0.81332898D-03  0.20984313D-03  0.15997292D-06 -0.15465153D-05 -0.21807480D-05
 -0.31190465D-05  0.15794413D-07  0.28604599D-05 -0.45950680D-03  0.44422161D-02
  0.62639883D-02  0.89591604D-02 -0.45367927D-04 -0.82163951D-02 -0.17029605D-07
  0.16463126D-06  0.23214727D-06  0.33203200D-06 -0.16813633D-08 -0.30450466D-06
 -0.26677237D-04  0.76652150D-01  0.82724497D-05  0.22370617D-06 -0.64372057D-03
 -0.21417346D-07  0.20160917D-07 -0.57962485D-04 -0.41484103D-07  0.12580694D-04
 -0.12283242D-04 -0.29745254D-06 -0.19208357D-06  0.33809238D-06 -0.98050530D-03
 -0.43138166D-05  0.45237783D-05 -0.20996171D-06  0.69473274D-07 -0.12341052D-06
  0.35590726D-03  0.13265812D-05 -0.12783820D-05 -0.48199202D-07 -0.12573969D-07
  0.20909179D-07 -0.61004276D-04  0.53866815D-08  0.23052089D-05  0.87368657D-07
 -0.72148178D-08  0.24414961D-05  0.34997916D-04 -0.89452266D-08 -0.93571228D-05
 -0.35260022D-04 -0.54993069D-07 -0.64536862D-08  0.14661943D-04  0.45757312D-07
 -0.38659276D-08  0.14617650D-04 -0.72213766D-05  0.23226986D-07 -0.58603479D-04
  0.70841047D-05 -0.15653461D-07 -0.55916254D-05 -0.10422799D-04 -0.17668967D-04
 -0.26753205D-04 -0.33447399D-04 -0.28770761D-04 -0.11034206D-04  0.10079090D-07
  0.13342828D-06  0.48463578D-06  0.14376629D-05  0.16566161D-05 -0.20122070D-05
 -0.21427725D-06  0.34107866D-05  0.38545877D-05  0.10260468D-06  0.10034514D-06
  0.66302276D-07 -0.29115914D-03 -0.28474728D-03 -0.18814457D-03  0.70035511D-05
  0.68493200D-05  0.45256353D-05  0.62764738D-09 -0.97852797D-05 -0.92234645D-06
  0.25753272D-07 -0.65818190D-04  0.42596353D-05  0.69579193D-08 -0.19530206D-04
  0.55407164D-06  0.71640234D-04 -0.70676584D-04 -0.96365012D-06 -0.12571006D-06
  0.21601792D-07 -0.13149259D-03 -0.35884193D-04  0.35760627D-04  0.12356675D-06
  0.68959383D-07 -0.23707311D-07  0.10119480D-03  0.17777644D-04 -0.18742492D-04
  0.96484861D-06 -0.38432258D-07  0.21571792D-07 -0.73089992D-04 -0.54725319D-08
 -0.69941398D-04 -0.18673460D-05  0.59437284D-07 -0.70644526D-04 -0.18861729D-03
 -0.43019688D-07  0.28046872D-03  0.19421933D-03  0.39089474D-06  0.66767521D-09
  0.24852607D-04  0.84909600D-06 -0.20001959D-07  0.25053111D-04  0.59604054D-04
  0.17998934D-07 -0.99610932D-04 -0.62151342D-04 -0.12845244D-06
MO    2     MO 0.0        OCC NO =    2.0000300  ORB. ENERGY =    0.000000
  0.35347657D-08  0.65895153D-08  0.11137179D-07  0.16741257D-07  0.20563635D-07
  0.17354983D-07  0.65259267D-08 -0.23822405D-11 -0.17805772D-10 -0.66544235D-10
 -0.18564806D-09 -0.24871721D-09  0.29368865D-09  0.72839348D-09  0.26628531D-08
  0.14328619D-08  0.11104330D-03  0.10411015D-03  0.74132628D-04  0.38639085D-07
  0.36226599D-07  0.25795496D-07 -0.20844080D-07 -0.19542650D-07 -0.13915531D-07
  0.36395128D-03  0.12620873D-06 -0.62486464D-07  0.46446893D-03  0.16039610D-06
 -0.85185772D-07  0.93955812D-05  0.31375673D-08 -0.16928221D-08 -0.43388850D-07
 -0.46302759D-07  0.89691609D-07  0.12935680D-03 -0.50957599D-03 -0.20067606D-06
  0.15874249D-06 -0.14130850D-06 -0.17433985D-07  0.38871557D-03  0.96773141D-04
 -0.33360315D-07  0.18076640D-07 -0.30162171D-07  0.12085531D-07  0.82128249D-04
 -0.66567634D-04 -0.36991199D-07  0.92992802D-04  0.31644865D-07  0.66500508D-07
  0.93160751D-04  0.40758310D-07 -0.16309397D-06 -0.37213916D-03 -0.13569291D-06
 -0.36407555D-07  0.48517797D-04 -0.27075966D-04 -0.91441544D-08 -0.19564990D-07
 -0.26529933D-04  0.91096667D-08  0.89939840D-07  0.10775783D-03  0.18322797D-07
 -0.31244869D-07  0.10082433D-03 -0.18818578D-07 -0.33940081D-07 -0.50044629D-07
  0.17212242D-06  0.53468861D-06 -0.60435577D-08  0.46578575D-05  0.32677538D-07
  0.10279280D-07  0.82779219D-04  0.12519981D-06  0.11481313D-06  0.75420753D-04
  0.72754384D-07 -0.23076092D-08 -0.55729495D-07  0.15735908D-07  0.39993587D-07
  0.29914004D-04 -0.46425598D-04  0.14370425D-06 -0.61007355D-08 -0.91620042D-08
  0.15262740D-07  0.29067556D-04  0.61177386D-04  0.16378501D-08 -0.34804924D-04
 -0.62772114D-04 -0.92557446D-04  0.31925849D-03  0.97489544D-03 -0.10377183D-04
  0.55212836D-04 -0.29330426D-04  0.21237384D-04  0.23816387D-03 -0.88536337D-04
  0.23371384D-03  0.14819737D-03 -0.42046561D-04  0.18972618D-04  0.10607847D-04
 -0.69439311D-04  0.58831464D-04 -0.10761163D-03  0.21091510D-03 -0.14863197D-03
 -0.10970260D-04 -0.37145893D-04  0.48116153D-04 -0.16321118D-04  0.38782877D-04
  0.13301832D-04  0.34823946D-04  0.62806421D-04  0.92608031D-04 -0.31943508D-03
 -0.97543144D-03  0.10383039D-04  0.55240597D-04  0.29336511D-04 -0.21267772D-04
  0.23818717D-03  0.88603436D-04 -0.23393021D-03  0.14824102D-03  0.42103876D-04
 -0.19036578D-04 -0.10550661D-04  0.69489511D-04 -0.58938851D-04 -0.10759260D-03
  0.21106291D-03  0.14865342D-03  0.10999756D-04  0.37156792D-04 -0.48156549D-04
 -0.16337241D-04  0.38725978D-04 -0.13255039D-04 -0.21722397D-07 -0.40640287D-07
 -0.70217403D-07 -0.11383066D-06 -0.17286278D-06 -0.24026300D-06 -0.28565430D-06
 -0.25447077D-06 -0.12637557D-06 -0.20345397D-07 -0.21465596D-09 -0.10134896D-09
 -0.33808316D-08 -0.11781521D-07 -0.42427166D-07 -0.93525407D-07 -0.13165359D-06
  0.62803052D-08  0.17229158D-06  0.10187493D-06 -0.24834569D-11 -0.30080728D-10
 -0.62730188D-10 -0.17989926D-09 -0.93419179D-11  0.77581284D-09  0.20045514D-08
 -0.16332141D-08  0.59531708D-08  0.55150504D-09 -0.25433471D-09  0.11610737D+02
  0.15294057D+02  0.16871739D+02  0.14013301D+02  0.74414515D+01  0.19199334D+01
  0.40409296D-02  0.53228496D-02  0.58719363D-02  0.48771028D-02  0.25898769D-02
  0.66820179D-03 -0.20609007D-02 -0.27146883D-02 -0.29947261D-02 -0.24873545D-02
 -0.13208543D-02 -0.34078731D-03 -0.45954334D-03  0.44425694D-02  0.62644865D-02
  0.89598729D-02 -0.45371535D-04 -0.82170485D-02 -0.15988444D-06  0.15456599D-05
  0.21795418D-05  0.31173213D-05 -0.15785676D-07 -0.28588777D-05  0.81501487D-07
 -0.78790394D-06 -0.11110268D-05 -0.15890622D-05  0.80467875D-08  0.14573199D-05
  0.76653482D-01  0.26676813D-04 -0.13604767D-04 -0.64339110D-03 -0.22424767D-06
  0.11377222D-06 -0.57955514D-04 -0.20175024D-07  0.10325127D-07 -0.16508665D-06
 -0.90211934D-08  0.17410785D-06  0.24747949D-04 -0.98158409D-03 -0.34460121D-06
  0.59927025D-07  0.30026164D-08 -0.62929642D-07 -0.85640334D-05  0.35676095D-03
  0.12468511D-06 -0.99247375D-08 -0.10063384D-08  0.10931076D-07  0.24370308D-05
 -0.61140978D-04 -0.21546117D-07  0.23639049D-05  0.74594357D-09  0.16214075D-08
  0.23815122D-05  0.13246885D-07  0.21125365D-07 -0.94732268D-05 -0.15484715D-07
 -0.25989587D-07  0.69656287D-04  0.14705629D-04  0.50666686D-08  0.10383877D-07
  0.14700470D-04  0.24985005D-08 -0.33876254D-07 -0.58817357D-04 -0.17698506D-07
  0.27246230D-08 -0.14246562D-04  0.30216378D-08  0.56323380D-08  0.95480677D-08
  0.14457066D-07  0.18074516D-07  0.15547325D-07  0.59627339D-08 -0.81130789D-11
 -0.10740197D-09 -0.39010351D-09 -0.11572347D-08 -0.13334793D-08  0.16197092D-08
  0.65495301D-10 -0.26988891D-08 -0.25401416D-08 -0.29097734D-03 -0.28456948D-03
 -0.18802709D-03 -0.10122146D-06 -0.98992380D-07 -0.65408451D-07  0.50074205D-07
  0.48971479D-07  0.32357527D-07 -0.73961910D-05 -0.51880895D-08  0.27057765D-08
 -0.67695660D-04 -0.21470984D-07  0.88789573D-08 -0.19578020D-04 -0.67509939D-08
  0.31396149D-08  0.28213418D-07 -0.52656497D-07  0.24443079D-07  0.14108299D-03
 -0.13299056D-03 -0.69695243D-07 -0.81290343D-08  0.26458682D-07 -0.18329647D-07
 -0.70510508D-04  0.10236826D-03  0.46863082D-07  0.60734759D-09 -0.13129733D-07
  0.12522385D-07  0.35428202D-04 -0.75024002D-04 -0.30297591D-07 -0.71832526D-04
 -0.22162542D-07 -0.50052017D-07 -0.75662369D-04 -0.89237594D-07 -0.25956014D-08
  0.29115995D-03  0.15572522D-06  0.15275165D-06 -0.37040467D-03  0.25556232D-04
  0.78810863D-08  0.17620299D-07  0.26735157D-04  0.29143678D-07 -0.40557074D-08
 -0.10340385D-03 -0.52786937D-07 -0.48805190D-07  0.11734895D-03
MO    3     MO 0.0        OCC NO =    2.0000210  ORB. ENERGY =    0.000000
 -0.14454726D-01 -0.26946521D-01 -0.45543292D-01 -0.68460062D-01 -0.84090924D-01
 -0.70969774D-01 -0.26686488D-01 -0.38142872D-05 -0.28509434D-04 -0.10654626D-03
 -0.29724749D-03 -0.39822968D-03  0.47023500D-03 -0.87197667D-03 -0.19345529D-02
 -0.82091140D-04  0.20838423D-06  0.19537346D-06  0.13911754D-06  0.43957596D-06
  0.41213041D-06  0.29346140D-06  0.11672439D-02  0.10943653D-02  0.77925331D-03
  0.10487380D-06  0.49372134D-06  0.60718925D-03 -0.66734054D-07 -0.10270498D-05
 -0.37921621D-03  0.82336455D-09  0.81832156D-08  0.46684868D-05 -0.10552624D-03
 -0.10559093D-03  0.21111717D-03 -0.12707880D-08  0.11321266D-06 -0.21904741D-06
 -0.24278706D-04 -0.23880096D-04  0.48158802D-04 -0.25601277D-09  0.25353890D-07
  0.13501240D-05  0.11373717D-04  0.11479242D-04 -0.22852959D-04  0.17804178D-09
 -0.12086016D-07 -0.48420359D-07 -0.15822514D-07  0.36187332D-04  0.77205450D-05
  0.39480487D-07 -0.10891274D-03 -0.11292371D-04  0.79870541D-08  0.35074383D-06
 -0.11869264D-04  0.38633495D-07  0.29444048D-08  0.52019496D-04 -0.85669115D-04
  0.82007487D-07 -0.15528054D-03  0.12876153D-03 -0.90840701D-07 -0.77794727D-06
  0.12824581D-03  0.54578230D-07 -0.48589086D-05 -0.87632417D-05 -0.12921395D-04
  0.75239214D-03  0.23413725D-03  0.50476957D-05  0.17359843D-07  0.95700323D-04
  0.28526178D-04  0.24966731D-07  0.19896475D-03 -0.34864223D-05  0.12635929D-07
  0.43718037D-04  0.38761247D-04 -0.73770688D-04  0.54149016D-04  0.19621672D-04
  0.46338768D-07  0.43294198D-07  0.76549800D-04 -0.96070359D-05 -0.12096295D-04
  0.21703331D-04 -0.66641164D-08  0.66468707D-08 -0.34346918D-04 -0.48126105D-05
 -0.86797413D-05 -0.12798273D-04  0.75299705D-03  0.23688911D-03  0.50742700D-05
  0.83111835D-04 -0.47924864D-04  0.28429454D-04  0.17265964D-03 -0.10002519D-03
 -0.45400608D-05  0.38202645D-04 -0.22187576D-04  0.38744892D-04  0.22177539D-04
 -0.41927541D-04  0.19750002D-04 -0.11108524D-03  0.65526066D-04 -0.38034846D-04
 -0.11470888D-04 -0.10208498D-04  0.21679385D-04  0.19542867D-05 -0.29990107D-04
  0.17455876D-04 -0.48124381D-05 -0.86794303D-05 -0.12797815D-04  0.75300063D-03
  0.23688771D-03  0.50742612D-05 -0.83114124D-04 -0.47903950D-04  0.28459469D-04
 -0.17268714D-03 -0.99981791D-04 -0.44771764D-05 -0.38194271D-04 -0.22177922D-04
  0.38758577D-04  0.22182630D-04 -0.41955420D-04  0.19772790D-04  0.11103893D-03
 -0.65538569D-04 -0.38058688D-04 -0.11460716D-04 -0.10208017D-04  0.21668733D-04
 -0.19472602D-05  0.30017776D-04  0.17448868D-04 -0.15460248D+00 -0.28924474D+00
 -0.49975075D+00 -0.81015469D+00 -0.12302976D+01 -0.17099980D+01 -0.20330566D+01
 -0.18111174D+01 -0.89943921D+00 -0.14480210D+00 -0.15277477D-02 -0.72284150D-03
 -0.24112782D-01 -0.84028219D-01 -0.30259922D+00 -0.66704232D+00 -0.93898031D+00
  0.44792421D-01  0.12288188D+01  0.72659286D+00 -0.15531724D-04 -0.18812710D-03
 -0.39231924D-03 -0.11251033D-02 -0.58425046D-04  0.48519909D-02  0.12536613D-01
 -0.10214242D-01  0.46600004D-01 -0.38429801D-03 -0.13194665D-03  0.10527870D-02
  0.13867668D-02  0.15298208D-02  0.12706360D-02  0.67474296D-03  0.17408721D-03
  0.17872482D-02  0.23542240D-02  0.25970775D-02  0.21570762D-02  0.11454673D-02
  0.29553656D-03  0.59414038D+01  0.78262187D+01  0.86335443D+01  0.71708345D+01
  0.38079121D+01  0.98246123D+00 -0.37355493D-07  0.36112887D-06  0.50922941D-06
  0.72833276D-06 -0.36881746D-08 -0.66794983D-06 -0.73066459D-07  0.70635951D-06
  0.99604064D-06  0.14246016D-05 -0.72139820D-08 -0.13064940D-05 -0.21079688D-03
  0.20378486D-02  0.28735793D-02  0.41099785D-02 -0.20812353D-04 -0.37692379D-02
  0.73814905D-05  0.12181153D-04  0.41654056D-01 -0.85896976D-07 -0.46623393D-07
 -0.48396009D-03 -0.17316175D-08 -0.81335579D-08 -0.98425934D-05 -0.70600324D-05
 -0.72033502D-05  0.14263383D-04 -0.16294768D-10  0.72829861D-08 -0.11266047D-06
 -0.11144415D-03 -0.11140004D-03  0.22284419D-03  0.28796006D-11  0.11887974D-06
  0.56940924D-07 -0.14326319D-04 -0.14324552D-04  0.28650871D-04 -0.45212562D-12
  0.15319428D-07 -0.81388702D-07  0.12406238D-08 -0.71355327D-05  0.54464574D-05
 -0.97396984D-08  0.21704614D-04 -0.82598204D-05  0.60178269D-08 -0.29801553D-06
 -0.80795517D-05 -0.75712318D-08  0.82503482D-08  0.20161336D-05 -0.33741218D-04
  0.11366531D-07 -0.61888534D-05  0.50659203D-04 -0.36117576D-07  0.14045272D-06
  0.50564451D-04  0.21487065D-08 -0.87945493D-03 -0.16393055D-02 -0.27789880D-02
 -0.42077637D-02 -0.52606314D-02 -0.45250864D-02 -0.17354680D-02 -0.68421183D-06
 -0.90576834D-05 -0.32899154D-04 -0.97594721D-04 -0.11245820D-03  0.13659724D-03
 -0.95963396D-04 -0.15938614D-03  0.12435916D-04  0.66790489D-06  0.65319640D-06
  0.43159448D-06  0.23864748D-04  0.23339202D-04  0.15421198D-04  0.39017940D-02
  0.38158694D-02  0.25213062D-02  0.14971700D-06  0.61504458D-05  0.87917705D-03
  0.41296546D-08 -0.33769475D-06  0.21398531D-04  0.15454669D-08  0.10948995D-06
  0.93386170D-05 -0.36020644D-04 -0.35256254D-04  0.71276899D-04  0.12967847D-08
  0.36752476D-07  0.12845861D-05  0.21260653D-04  0.20923869D-04 -0.42184522D-04
 -0.55112653D-09 -0.21957694D-07 -0.52739777D-06  0.18083954D-04  0.18146623D-04
 -0.36230577D-04 -0.13117308D-09 -0.18041766D-07 -0.11944942D-05 -0.99531707D-08
 -0.43051893D-05  0.46404219D-04 -0.14219958D-07  0.75676724D-05 -0.70345493D-04
  0.44079471D-07  0.53478954D-05 -0.68867164D-04  0.17834770D-08  0.58541216D-08
  0.14959224D-05 -0.25386685D-04  0.71951968D-08 -0.22461101D-05  0.38323865D-04
 -0.24757562D-07 -0.22416572D-05  0.37836189D-04 -0.81108213D-09
MO    4     MO 0.0        OCC NO =    2.0000123  ORB. ENERGY =    0.000000
  0.26825101D-01  0.50007393D-01  0.84519306D-01  0.12704828D+00  0.15605606D+00
  0.13170581D+00  0.49524823D-01 -0.14574077D-05 -0.10893219D-04 -0.40710448D-04
 -0.11357581D-03 -0.15216027D-03  0.17967291D-03  0.26462237D-02 -0.36110784D-02
 -0.42308766D-04  0.64786262D-06  0.60741238D-06  0.43251380D-06  0.50978241D-05
  0.47795341D-05  0.34033130D-05  0.36697328D-02  0.34406077D-02  0.24499177D-02
  0.22829094D-06 -0.80779669D-06  0.13052334D-02 -0.74215808D-07 -0.11220853D-05
 -0.41705190D-03  0.68449423D-09 -0.18272993D-07  0.37027330D-05 -0.31921200D-03
 -0.31916258D-03  0.63837458D-03 -0.12255445D-08  0.33946169D-06  0.10262378D-05
  0.88946963D-05  0.10298055D-04 -0.19192752D-04  0.72455403D-10 -0.89455294D-08
  0.14063380D-05 -0.17882706D-04 -0.17829252D-04  0.35711958D-04  0.77158099D-10
  0.18591195D-07  0.48783215D-06  0.10286143D-07 -0.42444629D-04  0.22565086D-04
 -0.54155757D-07  0.12631953D-03 -0.33843269D-04  0.23297327D-07  0.10143528D-05
 -0.33851989D-04 -0.43533045D-07  0.12280242D-07  0.82220023D-04 -0.16373319D-03
  0.13734275D-06 -0.24570402D-03  0.24602667D-03 -0.17418348D-06 -0.95605311D-06
  0.24517291D-03  0.86802923D-07 -0.90396098D-04 -0.16303309D-03 -0.24039219D-03
  0.10202685D-02  0.68329497D-03  0.41500352D-05 -0.13848357D-08 -0.58305466D-04
  0.33409997D-04  0.31329677D-07  0.30325766D-03 -0.42455011D-04  0.27515441D-07
  0.11088045D-03  0.75773280D-04 -0.14183729D-03  0.24115605D-04  0.11772168D-03
  0.67849194D-07  0.11022195D-06  0.14320849D-03 -0.14825476D-04 -0.21196982D-04
  0.36022457D-04 -0.12777497D-07  0.10150019D-07 -0.62911952D-04 -0.90278703D-04
 -0.16282136D-03 -0.24008000D-03  0.10245421D-02  0.68483572D-03  0.43298570D-05
 -0.49726653D-04  0.28856964D-04  0.33594118D-04  0.26424213D-03 -0.15312845D-03
 -0.43447980D-04  0.96210066D-04 -0.55579708D-04  0.75888571D-04 -0.17454548D-04
 -0.10095650D-03  0.11841105D-03 -0.14456239D-03  0.12338729D-03 -0.70910923D-04
 -0.19473375D-04 -0.16244662D-04  0.35718037D-04  0.52434134D-05 -0.54344460D-04
  0.31471952D-04 -0.90278976D-04 -0.16282185D-03 -0.24008072D-03  0.10245450D-02
  0.68484034D-03  0.43296005D-05  0.49745732D-04  0.28844073D-04  0.33576336D-04
 -0.26429679D-03 -0.15306164D-03 -0.43354381D-04 -0.96197815D-04 -0.55555482D-04
  0.75922898D-04 -0.17459902D-04 -0.10099216D-03  0.11845207D-03  0.14449595D-03
 -0.12330940D-03 -0.70930972D-04 -0.19455483D-04 -0.16243568D-04  0.35699050D-04
 -0.52302949D-05  0.54392406D-04  0.31460289D-04  0.91313861D-01  0.17083849D+00
  0.29517102D+00  0.47850690D+00  0.72665865D+00  0.10099872D+01  0.12007973D+01
  0.10697120D+01  0.53124160D+00  0.85525402D-01  0.90234351D-03  0.42753020D-03
  0.14261692D-01  0.49699141D-01  0.17897465D+00  0.39452735D+00  0.55536718D+00
 -0.26492824D-01 -0.72679439D+00 -0.42974898D+00  0.62779070D-05  0.76040784D-04
  0.15857504D-03  0.45476561D-03  0.23615345D-04 -0.19611698D-02 -0.50672862D-02
  0.41285863D-02 -0.28545132D-01  0.14183060D-02 -0.18170533D-03  0.17614197D-02
  0.23202018D-02  0.25595458D-02  0.21259032D-02  0.11289136D-02  0.29126561D-03
 -0.25351440D-02 -0.33393777D-02 -0.36838564D-02 -0.30597312D-02 -0.16248021D-02
 -0.41920745D-03  0.99146471D+01  0.13059910D+02  0.14407125D+02  0.11966245D+02
  0.63544082D+01  0.16394705D+01 -0.59860980D-07  0.57869743D-06  0.81602379D-06
  0.11671299D-05 -0.59101815D-08 -0.10703682D-05  0.64339298D-07 -0.62199094D-06
 -0.87707215D-06 -0.12544452D-05  0.63523338D-08  0.11504445D-05 -0.33686743D-03
  0.32566176D-02  0.45921707D-02  0.65680189D-02 -0.33259523D-04 -0.60234928D-02
  0.12890686D-04 -0.17879408D-04  0.72557454D-01 -0.54020913D-07 -0.23071622D-06
 -0.30643795D-03 -0.67146514D-09 -0.10929629D-07 -0.39587009D-05  0.45453381D-03
  0.45436463D-03 -0.90889845D-03  0.91361202D-10 -0.48501120D-06  0.33654533D-06
 -0.30969933D-03 -0.30964076D-03  0.61934009D-03 -0.50147138D-10  0.33030707D-06
  0.25472830D-07  0.43365893D-05  0.43238162D-05 -0.86604055D-05  0.16535961D-10
 -0.48113496D-08  0.82228265D-07  0.18061484D-07 -0.14435002D-04 -0.46949072D-04
 -0.41262045D-08  0.43665418D-04  0.70431011D-04 -0.50058248D-07 -0.36041365D-06
  0.70416205D-04 -0.15753644D-07  0.15089763D-07  0.41593352D-05 -0.62583237D-04
  0.21457798D-07 -0.12531396D-04  0.93889458D-04 -0.66727089D-07  0.53389885D-07
  0.93860252D-04  0.45517718D-08 -0.63570125D-02 -0.11849482D-01 -0.20087512D-01