 title line
GAUSSIAN            211 MOL ORBITALS    339 PRIMITIVES        6 NUCLEI
  C    1    (CENTRE  1)   0.00033070  0.00005480 -0.94053370  CHARGE =  6.0
  H    2    (CENTRE  2)   0.00003590 -1.98906904 -1.17300214  CHARGE =  1.0
  H    3    (CENTRE  3)  -1.72213010  0.99468570 -1.17398291  CHARGE =  1.0
  H    4    (CENTRE  4)   1.74185506  0.99424539 -1.17459707  CHARGE =  1.0
  Cl   5    (CENTRE  5)   0.00104880  0.00181792  3.10806659  CHARGE = 17.0
  F    6    (CENTRE  6)  -0.00035149 -0.00174044 -4.90092914  CHARGE =  9.0
CENTRE ASSIGNMENTS    1  1  1  1  1  1  1  1  1  1  1  1  1  1  1  1  1  1  1  1
CENTRE ASSIGNMENTS    1  1  1  1  1  1  1  1  1  1  1  1  1  1  1  1  1  1  1  1
CENTRE ASSIGNMENTS    1  1  1  1  1  1  1  1  1  1  1  1  1  1  1  1  1  1  1  1
CENTRE ASSIGNMENTS    1  1  1  1  1  1  1  1  1  1  1  1  2  2  2  2  2  2  2  2
CENTRE ASSIGNMENTS    2  2  2  2  2  2  2  2  2  2  2  2  2  2  2  2  2  2  2  3
CENTRE ASSIGNMENTS    3  3  3  3  3  3  3  3  3  3  3  3  3  3  3  3  3  3  3  3
CENTRE ASSIGNMENTS    3  3  3  3  3  3  4  4  4  4  4  4  4  4  4  4  4  4  4  4
CENTRE ASSIGNMENTS    4  4  4  4  4  4  4  4  4  4  4  4  4  5  5  5  5  5  5  5
CENTRE ASSIGNMENTS    5  5  5  5  5  5  5  5  5  5  5  5  5  5  5  5  5  5  5  5
CENTRE ASSIGNMENTS    5  5  5  5  5  5  5  5  5  5  5  5  5  5  5  5  5  5  5  5
CENTRE ASSIGNMENTS    5  5  5  5  5  5  5  5  5  5  5  5  5  5  5  5  5  5  5  5
CENTRE ASSIGNMENTS    5  5  5  5  5  5  5  5  5  5  5  5  5  5  5  5  5  5  5  5
CENTRE ASSIGNMENTS    5  5  5  5  5  5  5  5  5  5  5  5  5  5  5  5  5  5  5  5
CENTRE ASSIGNMENTS    5  5  5  5  5  5  5  6  6  6  6  6  6  6  6  6  6  6  6  6
CENTRE ASSIGNMENTS    6  6  6  6  6  6  6  6  6  6  6  6  6  6  6  6  6  6  6  6
CENTRE ASSIGNMENTS    6  6  6  6  6  6  6  6  6  6  6  6  6  6  6  6  6  6  6  6
CENTRE ASSIGNMENTS    6  6  6  6  6  6  6  6  6  6  6  6  6  6  6  6  6  6  6
TYPE ASSIGNMENTS      1  1  1  1  1  1  1  1  1  1  1  1  1  1  1  1  2  2  2  3
TYPE ASSIGNMENTS      3  3  4  4  4  2  3  4  2  3  4  2  3  4  5  6  7  8  9 10
TYPE ASSIGNMENTS      5  6  7  8  9 10  5  6  7  8  9 10 11 12 13 17 14 15 18 19
TYPE ASSIGNMENTS     16 20 11 12 13 17 14 15 18 19 16 20  1  1  1  1  1  1  2  3
TYPE ASSIGNMENTS      4  2  3  4  2  3  4  5  6  7  8  9 10  5  6  7  8  9 10  1
TYPE ASSIGNMENTS      1  1  1  1  1  2  3  4  2  3  4  2  3  4  5  6  7  8  9 10
TYPE ASSIGNMENTS      5  6  7  8  9 10  1  1  1  1  1  1  2  3  4  2  3  4  2  3
TYPE ASSIGNMENTS      4  5  6  7  8  9 10  5  6  7  8  9 10  1  1  1  1  1  1  1
TYPE ASSIGNMENTS      1  1  1  1  1  1  1  1  1  1  1  1  1  1  1  1  1  1  1  1
TYPE ASSIGNMENTS      1  1  1  1  2  2  2  2  2  2  3  3  3  3  3  3  4  4  4  4
TYPE ASSIGNMENTS      4  4  2  2  2  2  2  2  3  3  3  3  3  3  4  4  4  4  4  4
TYPE ASSIGNMENTS      2  3  4  2  3  4  2  3  4  5  6  7  8  9 10  5  6  7  8  9
TYPE ASSIGNMENTS     10  5  6  7  8  9 10 11 12 13 17 14 15 18 19 16 20 11 12 13
TYPE ASSIGNMENTS     17 14 15 18 19 16 20  1  1  1  1  1  1  1  1  1  1  1  1  1
TYPE ASSIGNMENTS      1  1  1  2  2  2  3  3  3  4  4  4  2  3  4  2  3  4  2  3
TYPE ASSIGNMENTS      4  5  6  7  8  9 10  5  6  7  8  9 10  5  6  7  8  9 10 11
TYPE ASSIGNMENTS     12 13 17 14 15 18 19 16 20 11 12 13 17 14 15 18 19 16 20
EXPONENTS  0.8236000D+04 0.1235000D+04 0.2808000D+03 0.7927000D+02 0.2559000D+02
EXPONENTS  0.8997000D+01 0.3319000D+01 0.2808000D+03 0.7927000D+02 0.2559000D+02
EXPONENTS  0.8997000D+01 0.3319000D+01 0.3643000D+00 0.9059000D+00 0.1285000D+00
EXPONENTS  0.4402000D-01 0.1871000D+02 0.4133000D+01 0.1200000D+01 0.1871000D+02
EXPONENTS  0.4133000D+01 0.1200000D+01 0.1871000D+02 0.4133000D+01 0.1200000D+01
EXPONENTS  0.3827000D+00 0.3827000D+00 0.3827000D+00 0.1209000D+00 0.1209000D+00
EXPONENTS  0.1209000D+00 0.3569000D-01 0.3569000D-01 0.3569000D-01 0.1097000D+01
EXPONENTS  0.1097000D+01 0.1097000D+01 0.1097000D+01 0.1097000D+01 0.1097000D+01
EXPONENTS  0.3180000D+00 0.3180000D+00 0.3180000D+00 0.3180000D+00 0.3180000D+00
EXPONENTS  0.3180000D+00 0.1000000D+00 0.1000000D+00 0.1000000D+00 0.1000000D+00
EXPONENTS  0.1000000D+00 0.1000000D+00 0.7610000D+00 0.7610000D+00 0.7610000D+00
EXPONENTS  0.7610000D+00 0.7610000D+00 0.7610000D+00 0.7610000D+00 0.7610000D+00
EXPONENTS  0.7610000D+00 0.7610000D+00 0.2680000D+00 0.2680000D+00 0.2680000D+00
EXPONENTS  0.2680000D+00 0.2680000D+00 0.2680000D+00 0.2680000D+00 0.2680000D+00
EXPONENTS  0.2680000D+00 0.2680000D+00 0.3387000D+02 0.5095000D+01 0.1159000D+01
EXPONENTS  0.3258000D+00 0.1027000D+00 0.2526000D-01 0.1407000D+01 0.1407000D+01
EXPONENTS  0.1407000D+01 0.3880000D+00 0.3880000D+00 0.3880000D+00 0.1020000D+00
EXPONENTS  0.1020000D+00 0.1020000D+00 0.1057000D+01 0.1057000D+01 0.1057000D+01
EXPONENTS  0.1057000D+01 0.1057000D+01 0.1057000D+01 0.2470000D+00 0.2470000D+00
EXPONENTS  0.2470000D+00 0.2470000D+00 0.2470000D+00 0.2470000D+00 0.3387000D+02
EXPONENTS  0.5095000D+01 0.1159000D+01 0.3258000D+00 0.1027000D+00 0.2526000D-01
EXPONENTS  0.1407000D+01 0.1407000D+01 0.1407000D+01 0.3880000D+00 0.3880000D+00
EXPONENTS  0.3880000D+00 0.1020000D+00 0.1020000D+00 0.1020000D+00 0.1057000D+01
EXPONENTS  0.1057000D+01 0.1057000D+01 0.1057000D+01 0.1057000D+01 0.1057000D+01
EXPONENTS  0.2470000D+00 0.2470000D+00 0.2470000D+00 0.2470000D+00 0.2470000D+00
EXPONENTS  0.2470000D+00 0.3387000D+02 0.5095000D+01 0.1159000D+01 0.3258000D+00
EXPONENTS  0.1027000D+00 0.2526000D-01 0.1407000D+01 0.1407000D+01 0.1407000D+01
EXPONENTS  0.3880000D+00 0.3880000D+00 0.3880000D+00 0.1020000D+00 0.1020000D+00
EXPONENTS  0.1020000D+00 0.1057000D+01 0.1057000D+01 0.1057000D+01 0.1057000D+01
EXPONENTS  0.1057000D+01 0.1057000D+01 0.2470000D+00 0.2470000D+00 0.2470000D+00
EXPONENTS  0.2470000D+00 0.2470000D+00 0.2470000D+00 0.4561000D+06 0.6833000D+05
EXPONENTS  0.1555000D+05 0.4405000D+04 0.1439000D+04 0.5204000D+03 0.2031000D+03
EXPONENTS  0.8396000D+02 0.3620000D+02 0.1583000D+02 0.6334000D+01 0.4405000D+04
EXPONENTS  0.1439000D+04 0.5204000D+03 0.2031000D+03 0.8396000D+02 0.3620000D+02
EXPONENTS  0.1583000D+02 0.6334000D+01 0.2694000D+01 0.1439000D+04 0.2031000D+03
EXPONENTS  0.8396000D+02 0.3620000D+02 0.1583000D+02 0.6334000D+01 0.2694000D+01
EXPONENTS  0.4313000D+00 0.9768000D+00 0.1625000D+00 0.5910000D-01 0.6633000D+03
EXPONENTS  0.1568000D+03 0.4998000D+02 0.1842000D+02 0.7240000D+01 0.2922000D+01
EXPONENTS  0.6633000D+03 0.1568000D+03 0.4998000D+02 0.1842000D+02 0.7240000D+01
EXPONENTS  0.2922000D+01 0.6633000D+03 0.1568000D+03 0.4998000D+02 0.1842000D+02
EXPONENTS  0.7240000D+01 0.2922000D+01 0.1568000D+03 0.4998000D+02 0.1842000D+02
EXPONENTS  0.7240000D+01 0.2922000D+01 0.3818000D+00 0.1568000D+03 0.4998000D+02
EXPONENTS  0.1842000D+02 0.7240000D+01 0.2922000D+01 0.3818000D+00 0.1568000D+03
EXPONENTS  0.4998000D+02 0.1842000D+02 0.7240000D+01 0.2922000D+01 0.3818000D+00
EXPONENTS  0.1022000D+01 0.1022000D+01 0.1022000D+01 0.1301000D+00 0.1301000D+00
EXPONENTS  0.1301000D+00 0.4190000D-01 0.4190000D-01 0.4190000D-01 0.1046000D+01
EXPONENTS  0.1046000D+01 0.1046000D+01 0.1046000D+01 0.1046000D+01 0.1046000D+01
EXPONENTS  0.3440000D+00 0.3440000D+00 0.3440000D+00 0.3440000D+00 0.3440000D+00
EXPONENTS  0.3440000D+00 0.1350000D+00 0.1350000D+00 0.1350000D+00 0.1350000D+00
EXPONENTS  0.1350000D+00 0.1350000D+00 0.7060000D+00 0.7060000D+00 0.7060000D+00
EXPONENTS  0.7060000D+00 0.7060000D+00 0.7060000D+00 0.7060000D+00 0.7060000D+00
EXPONENTS  0.7060000D+00 0.7060000D+00 0.3120000D+00 0.3120000D+00 0.3120000D+00
EXPONENTS  0.3120000D+00 0.3120000D+00 0.3120000D+00 0.3120000D+00 0.3120000D+00
EXPONENTS  0.3120000D+00 0.3120000D+00 0.1950000D+05 0.2923000D+04 0.6645000D+03
EXPONENTS  0.1875000D+03 0.6062000D+02 0.2142000D+02 0.7950000D+01 0.6645000D+03
EXPONENTS  0.1875000D+03 0.6062000D+02 0.2142000D+02 0.7950000D+01 0.8815000D+00
EXPONENTS  0.2257000D+01 0.3041000D+00 0.9158000D-01 0.4388000D+02 0.9926000D+01
EXPONENTS  0.2930000D+01 0.4388000D+02 0.9926000D+01 0.2930000D+01 0.4388000D+02
EXPONENTS  0.9926000D+01 0.2930000D+01 0.9132000D+00 0.9132000D+00 0.9132000D+00
EXPONENTS  0.2672000D+00 0.2672000D+00 0.2672000D+00 0.7361000D-01 0.7361000D-01
EXPONENTS  0.7361000D-01 0.3107000D+01 0.3107000D+01 0.3107000D+01 0.3107000D+01
EXPONENTS  0.3107000D+01 0.3107000D+01 0.8550000D+00 0.8550000D+00 0.8550000D+00
EXPONENTS  0.8550000D+00 0.8550000D+00 0.8550000D+00 0.2920000D+00 0.2920000D+00
EXPONENTS  0.2920000D+00 0.2920000D+00 0.2920000D+00 0.2920000D+00 0.1917000D+01
EXPONENTS  0.1917000D+01 0.1917000D+01 0.1917000D+01 0.1917000D+01 0.1917000D+01
EXPONENTS  0.1917000D+01 0.1917000D+01 0.1917000D+01 0.1917000D+01 0.7240000D+00
EXPONENTS  0.7240000D+00 0.7240000D+00 0.7240000D+00 0.7240000D+00 0.7240000D+00
EXPONENTS  0.7240000D+00 0.7240000D+00 0.7240000D+00 0.7240000D+00
MO    1     MO 0.0        OCC NO =    2.0000300  ORB. ENERGY =    0.000000
  0.14896195D-04  0.27769509D-04  0.46934254D-04  0.70550937D-04  0.86659190D-04
  0.73137299D-04  0.27501534D-04  0.14296844D-07  0.10686005D-06  0.39936041D-06
  0.11141533D-05  0.14926583D-05 -0.17625512D-05  0.13775287D-06 -0.23660692D-04
 -0.55467248D-06  0.75689791D-04  0.70963990D-04  0.50530589D-04  0.78299636D-04
  0.73410886D-04  0.52272924D-04 -0.12898807D-06 -0.12093451D-06 -0.86112576D-07
  0.24392817D-03  0.25280918D-03 -0.36310126D-05  0.31897303D-03  0.32866260D-03
  0.14229792D-05  0.65117061D-05  0.67950710D-05  0.13101228D-07  0.45319096D-04
 -0.45663656D-04  0.34456089D-06  0.86096377D-04 -0.35722280D-03 -0.36671413D-03
  0.13742942D-03 -0.13857818D-03  0.11487617D-05  0.26601487D-03  0.65722124D-04
  0.69301879D-04  0.29429396D-04 -0.29367565D-04 -0.61831863D-07  0.56931826D-04
 -0.46061288D-04 -0.47118450D-04  0.65024728D-04  0.66105858D-04  0.88655954D-06
  0.62704501D-04  0.66089182D-04  0.16724271D-04 -0.25777868D-03 -0.26440676D-03
 -0.19383949D-04  0.30232818D-04 -0.18313913D-04 -0.18589573D-04  0.16188409D-06
 -0.19650776D-04 -0.20621102D-04  0.35756686D-04  0.74592515D-04  0.76389822D-04
 -0.36242339D-04  0.69579105D-04 -0.28719107D-04 -0.51796092D-04 -0.76373307D-04
  0.26430329D-03  0.80121923D-03 -0.85231387D-05  0.32281813D-05  0.51203415D-04
  0.17529184D-04  0.59370276D-04  0.20411473D-03  0.19406195D-03  0.52422000D-04
  0.12257949D-03  0.15910879D-04 -0.78603867D-04  0.29277588D-04  0.49326278D-04
  0.22650420D-04 -0.32695220D-04  0.21352117D-03 -0.31073885D-04 -0.89839929D-05
  0.40057877D-04  0.20077432D-04  0.42587207D-04  0.22205533D-04 -0.97483896D-05
 -0.17581622D-04 -0.25924092D-04  0.93640245D-04  0.27266297D-03 -0.29825505D-05
  0.17986196D-04 -0.49192791D-05  0.60765103D-05  0.99533616D-04  0.33164863D-04
  0.65475879D-04  0.72415898D-04  0.41931952D-04  0.51638032D-05  0.12914738D-04
 -0.29981031D-04  0.17066294D-04 -0.17790938D-04  0.39467160D-04 -0.75422660D-04
  0.68498786D-05 -0.20810725D-04  0.13960846D-04  0.73470656D-05  0.35979256D-04
  0.47352363D-04  0.39210711D-04  0.70718131D-04  0.10427384D-03 -0.33416562D-03
 -0.10584947D-02  0.11617320D-04  0.55979138D-04  0.33954763D-04 -0.21023870D-04
  0.22563653D-03  0.15461497D-03 -0.25430330D-03  0.13218917D-03  0.98276020D-04
 -0.21415146D-04 -0.23821451D-05  0.65829043D-04 -0.63446898D-04 -0.13219287D-03
  0.25188101D-03  0.12869364D-03  0.21916259D-04  0.30551597D-04 -0.52467856D-04
 -0.29819321D-04  0.17694426D-04  0.28680192D-04 -0.52895326D-04 -0.98961511D-04
 -0.17098354D-03 -0.27718441D-03 -0.42093113D-03 -0.58505466D-03 -0.69558516D-03
 -0.61965143D-03 -0.30773200D-03 -0.49542249D-04 -0.52269999D-06 -0.24826054D-06
 -0.82815562D-05 -0.28859565D-04 -0.10392797D-03 -0.22909627D-03 -0.32249361D-03
  0.15383996D-04  0.42203889D-03  0.24954895D-03 -0.50977824D-08 -0.61746594D-07
 -0.12876601D-06 -0.36927850D-06 -0.19176119D-07  0.15925080D-05  0.41147348D-05
 -0.33524923D-05  0.15528261D-04 -0.13942250D-05  0.15909044D-06  0.80909168D+01
  0.10657630D+02  0.11757034D+02  0.97651376D+01  0.51855590D+01  0.13379013D+01
  0.83274433D+01  0.10969191D+02  0.12100735D+02  0.10050608D+02  0.53371515D+01
  0.13770130D+01 -0.89799065D-02 -0.11828638D-01 -0.13048839D-01 -0.10838082D-01
 -0.57553225D-02 -0.14849033D-02 -0.32021564D-03  0.30956388D-02  0.43651738D-02
  0.62433533D-02 -0.31615462D-04 -0.57257438D-02 -0.32954433D-03  0.31858226D-02
  0.44923424D-02  0.64252380D-02 -0.32536501D-04 -0.58925493D-02  0.37651872D-06
 -0.36399407D-05 -0.51326964D-05 -0.73411136D-05  0.37174366D-07  0.67324935D-05
  0.53415118D-01  0.54975818D-01 -0.59942436D-04 -0.44850200D-03 -0.46193355D-03
  0.60950431D-06 -0.40409059D-04 -0.41617290D-04  0.30392813D-07  0.85804504D-05
 -0.96922587D-05  0.11118084D-05  0.16296481D-04 -0.68349231D-03 -0.70283936D-03
 -0.29549613D-05  0.34318252D-05 -0.47686388D-06 -0.58251168D-05  0.24805505D-03
  0.25487728D-03  0.92494128D-06 -0.96800843D-06  0.43067156D-07  0.17566204D-05
 -0.42607195D-04 -0.43660145D-04  0.16438673D-05  0.16377296D-05  0.49938660D-07
  0.17140020D-05  0.15014262D-05  0.25301647D-04 -0.66456039D-05 -0.64146149D-05
 -0.25451463D-04  0.48779949D-04  0.10184342D-04  0.10492125D-04  0.69365959D-07
  0.10186600D-04  0.10537557D-04 -0.53217255D-05 -0.40739627D-04 -0.42013932D-04
  0.51136276D-05 -0.10096988D-04  0.17736701D-05  0.33061241D-05  0.56046170D-05
  0.84861480D-05  0.10609554D-04  0.91261191D-05  0.35000631D-05  0.22657609D-08
  0.29994432D-07  0.10894523D-06  0.32318398D-06  0.37240426D-06 -0.45234045D-06
  0.25002640D-06  0.83260808D-06  0.67936867D-07 -0.20585868D-03 -0.20132529D-03
 -0.13302413D-03 -0.21032111D-03 -0.20568946D-03 -0.13590772D-03 -0.31907122D-05
 -0.31204469D-05 -0.20618112D-05 -0.61645878D-05 -0.60403643D-05 -0.96064300D-06
 -0.47083638D-04 -0.48119082D-04  0.60631113D-06 -0.13663621D-04 -0.14075805D-04
 -0.34344704D-07  0.51053635D-04 -0.51110934D-04  0.57298295D-07  0.98189707D-04
 -0.91876450D-04 -0.95807523D-04 -0.25565896D-04  0.25645848D-04 -0.79951785D-07
 -0.49174785D-04  0.70971416D-04  0.73520365D-04  0.12830580D-04 -0.13064804D-04
  0.23422401D-06  0.24782581D-04 -0.51925152D-04 -0.53320615D-04 -0.50439208D-04
 -0.51271831D-04 -0.35717572D-06 -0.49702292D-04 -0.51306519D-04 -0.13522811D-03
  0.20101992D-03  0.20512201D-03  0.13629964D-03 -0.25907389D-03  0.17908513D-04
  0.18207446D-04  0.13693035D-06  0.17686398D-04  0.18202204D-04  0.42876517D-04
 -0.71411936D-04 -0.72824543D-04 -0.43287308D-04  0.82158747D-04
MO    2     MO 0.0        OCC NO =    2.0000300  ORB. ENERGY =    0.000000
  0.45291484D-05  0.84432451D-05  0.14270234D-04  0.21450824D-04  0.26348495D-04
  0.22237200D-04  0.83617681D-05 -0.96788199D-08 -0.72343182D-07 -0.27036299D-06
 -0.75427064D-06 -0.10105147D-05  0.11932294D-05  0.23113274D-05 -0.75266975D-05
 -0.25918817D-06 -0.79497597D-04 -0.74534050D-04 -0.53072684D-04  0.77583539D-04
  0.72739499D-04  0.51794857D-04 -0.25173096D-06 -0.23601377D-06 -0.16805587D-06
 -0.25959504D-03  0.25403323D-03  0.10094774D-05 -0.33240535D-03  0.32333471D-03
  0.11606414D-06 -0.66220302D-05  0.65243688D-05  0.12689227D-08  0.45209963D-04
 -0.44384889D-04 -0.82507387D-06 -0.91641453D-04  0.36660320D-03 -0.35530462D-03
  0.13271359D-03 -0.13439148D-03  0.16778916D-05 -0.27820324D-03 -0.69351482D-04
  0.68992719D-04  0.28508386D-04 -0.28031293D-04 -0.47709303D-06 -0.59203341D-04
  0.47528335D-04 -0.45903089D-04 -0.67309983D-04  0.64471349D-04 -0.20398267D-06
 -0.64573581D-04  0.64648158D-04  0.19165565D-04  0.26650353D-03 -0.25806220D-03
 -0.18553617D-04 -0.34521208D-04  0.18957431D-04 -0.17931789D-04 -0.87126295D-07
  0.20261172D-04 -0.20784496D-04  0.34447306D-04 -0.77133465D-04  0.74579862D-04
 -0.34185927D-04 -0.71701593D-04 -0.27836338D-04 -0.50203981D-04 -0.74025741D-04
  0.25987930D-03  0.78136657D-03 -0.84041885D-05 -0.28981742D-05  0.49979470D-04
  0.17412416D-04 -0.62131870D-04  0.20106849D-03  0.18785526D-03 -0.54646148D-04
  0.12037838D-03  0.15404221D-04 -0.76578878D-04  0.29492376D-04  0.47086502D-04
 -0.23681755D-04  0.33531113D-04  0.20748096D-03 -0.30648914D-04 -0.83993941D-05
  0.39048308D-04 -0.20999235D-04 -0.43932109D-04  0.21611508D-04  0.38975539D-04
  0.70293990D-04  0.10364845D-03 -0.34940635D-03 -0.10878384D-02  0.11864622D-04
 -0.59561424D-04  0.35701409D-04 -0.23939975D-04 -0.23026930D-03  0.15713918D-03
 -0.26070154D-03 -0.13521392D-03  0.98879130D-04 -0.21709337D-04 -0.84612183D-06
  0.66448022D-04 -0.65601900D-04  0.13181266D-03 -0.25538969D-03  0.13407551D-03
  0.22165820D-04  0.31186523D-04 -0.53352344D-04  0.29742537D-04 -0.18768527D-04
  0.27585821D-04 -0.11187483D-04 -0.20177086D-04 -0.29751102D-04  0.10423496D-03
  0.30588730D-03 -0.34348477D-05 -0.19604577D-04 -0.51616024D-05  0.63941729D-05
 -0.10752076D-03  0.26593216D-04  0.72598589D-04 -0.76934357D-04  0.38260398D-04
  0.58358390D-05  0.14280973D-04 -0.32495624D-04  0.18214651D-04  0.22724702D-04
 -0.48040302D-04 -0.78751599D-04  0.62080573D-05 -0.21950568D-04  0.15742511D-04
 -0.60914788D-05 -0.35840274D-04  0.45736335D-04  0.13300767D-05  0.24884316D-05
  0.42994578D-05  0.69699263D-05  0.10584502D-04  0.14711462D-04  0.17490801D-04
  0.15581413D-04  0.77380592D-05  0.12457621D-05  0.13143526D-07  0.69214955D-08
  0.23088950D-06  0.80460369D-06  0.28975082D-05  0.63871961D-05  0.89911107D-05
 -0.42890528D-06 -0.11766430D-04 -0.69574163D-05 -0.10845247D-08 -0.13136243D-07
 -0.27394249D-07 -0.78561937D-07 -0.40796120D-08  0.33879718D-06  0.87538683D-06
 -0.71322399D-06 -0.25317482D-06  0.24240657D-05  0.44207097D-06 -0.83274360D+01
 -0.10969181D+02 -0.12100724D+02 -0.10050599D+02 -0.53371468D+01 -0.13770118D+01
  0.80909118D+01  0.10657624D+02  0.11757027D+02  0.97651315D+01  0.51855558D+01
  0.13379005D+01 -0.14796710D-02 -0.19490729D-02 -0.21501325D-02 -0.17858534D-02
 -0.94833771D-03 -0.24467609D-03  0.32957208D-03 -0.31860908D-02 -0.44927206D-02
 -0.64257789D-02  0.32539240D-04  0.58930453D-02 -0.32018000D-03  0.30952942D-02
  0.43646879D-02  0.62426584D-02 -0.31611943D-04 -0.57251065D-02  0.26187818D-07
 -0.25316697D-06 -0.35699185D-06 -0.51059279D-06  0.25855700D-08  0.46826174D-06
 -0.54978519D-01  0.53416174D-01 -0.92509757D-05  0.46129480D-03 -0.44849966D-03
 -0.51379960D-06  0.41563873D-04 -0.40409444D-04 -0.20344192D-07  0.89262765D-05
 -0.92286961D-05  0.30241959D-06 -0.17554778D-04  0.70339809D-03 -0.68280098D-03
 -0.30599079D-05  0.31540772D-05 -0.94169355D-07  0.61331671D-05 -0.25567510D-03
  0.24799698D-03  0.88736773D-06 -0.90574291D-06  0.18375188D-07 -0.17971400D-05
  0.43921065D-04 -0.42488252D-04 -0.17488525D-05  0.15116194D-05 -0.33355312D-07
 -0.18660043D-05  0.19680123D-05  0.24313968D-04  0.71125618D-05 -0.65028704D-05
 -0.24213902D-04 -0.50417369D-04 -0.10498489D-04  0.10252001D-04  0.81381668D-07
 -0.10474536D-04  0.10101589D-04 -0.50901215D-05  0.41970003D-04 -0.40857590D-04
  0.48459765D-05  0.10390660D-04 -0.96809721D-06 -0.18045349D-05 -0.30590886D-05
 -0.46318739D-05 -0.57908625D-05 -0.49811802D-05 -0.19103898D-05  0.29331062D-08
  0.38828834D-07  0.14103339D-06  0.41837289D-06  0.48209026D-06 -0.58557042D-06
 -0.33537253D-08  0.14642390D-05  0.86510983D-06  0.20981004D-03  0.20518964D-03
  0.13557747D-03 -0.20233943D-03 -0.19788354D-03 -0.13075002D-03  0.17035197D-05
  0.16660050D-05  0.11008000D-05  0.62851863D-05 -0.58169893D-05  0.71568284D-06
  0.48125305D-04 -0.46422876D-04  0.39495631D-06  0.13993835D-04 -0.13608069D-04
  0.95257212D-07  0.49248457D-04 -0.48939579D-04 -0.30887774D-06 -0.10202149D-03
  0.94123386D-04 -0.92656353D-04 -0.24760444D-04  0.24513147D-04  0.24729726D-06
  0.51149261D-04 -0.72760255D-04  0.71151205D-04  0.12585507D-04 -0.12380170D-04
 -0.20533744D-06 -0.25827033D-04  0.53260534D-04 -0.51626403D-04  0.51399307D-04
 -0.49963974D-04  0.80629388D-06  0.52283364D-04 -0.48993228D-04 -0.13220581D-03
 -0.20648129D-03  0.19888515D-03  0.12978693D-03  0.27019925D-03 -0.18272486D-04
  0.17726174D-04 -0.28949547D-06 -0.18546825D-04  0.17444495D-04  0.42018743D-04
  0.73364283D-04 -0.70623017D-04 -0.41150257D-04 -0.85717769D-04
MO    3     MO 0.0        OCC NO =    2.0000210  ORB. ENERGY =    0.000000
 -0.14468329D-01 -0.26971880D-01 -0.45586151D-01 -0.68524488D-01 -0.84170060D-01
 -0.71036561D-01 -0.26711602D-01 -0.38216071D-05 -0.28564145D-04 -0.10675073D-03
 -0.29781792D-03 -0.39899391D-03  0.47113741D-03 -0.87125292D-03 -0.19265778D-02
 -0.81453032D-04 -0.32337818D-05 -0.30318760D-05 -0.21588763D-05 -0.13052389D-05
 -0.12237444D-05 -0.87137892D-06  0.11656760D-02  0.10928954D-02  0.77820661D-03
  0.10178091D-04  0.70608437D-05  0.60459415D-03  0.26462506D-05  0.36527414D-05
 -0.37828188D-03  0.34966386D-07 -0.20223895D-07  0.46747125D-05 -0.10385387D-03
 -0.10576116D-03  0.20961503D-03  0.36862737D-05 -0.43808374D-06  0.26668739D-06
 -0.23368285D-04 -0.25843124D-04  0.49211410D-04  0.48147509D-05 -0.19736425D-05
 -0.17437273D-05  0.11721797D-04  0.11247922D-04 -0.22969719D-04  0.15881409D-06
  0.88902345D-07  0.32857729D-06 -0.43395137D-07  0.36395408D-04  0.75459437D-05
  0.68888502D-06 -0.10858994D-03 -0.11415066D-04 -0.55869961D-06 -0.59628651D-06
 -0.11222765D-04 -0.10351142D-05 -0.29972451D-06  0.51987662D-04 -0.85487202D-04
  0.76880469D-06 -0.15601191D-03  0.12807187D-03  0.13036882D-06  0.48922084D-07
  0.12838974D-03 -0.71686258D-06 -0.47700768D-05 -0.86030300D-05 -0.12685163D-04
  0.75914144D-03  0.24298219D-03  0.50626062D-05 -0.29291678D-06  0.96392131D-04
  0.28735098D-04  0.53578745D-07  0.20311721D-03 -0.44551480D-05  0.19552056D-06
  0.45319077D-04  0.39170610D-04 -0.74375651D-04  0.55279377D-04  0.19096273D-04
 -0.33418213D-06 -0.38092456D-07  0.76023274D-04 -0.99732928D-05 -0.11772749D-04
  0.21746042D-04  0.33611082D-06 -0.21235643D-06 -0.34685782D-04 -0.46654051D-05
 -0.84142501D-05 -0.12406807D-04  0.75714968D-03  0.23615671D-03  0.51614327D-05
  0.82725088D-04 -0.48842267D-04  0.28918512D-04  0.17657910D-03 -0.99255953D-04
 -0.42178542D-05  0.38751479D-04 -0.21524053D-04  0.38534908D-04  0.22932540D-04
 -0.42143118D-04  0.19210578D-04 -0.11185874D-03  0.66391901D-04 -0.37385820D-04
 -0.10993666D-04 -0.10632593D-04  0.21626259D-04  0.18858072D-05 -0.30037658D-04
  0.17121516D-04 -0.57265035D-05 -0.10327985D-04 -0.15228608D-04  0.73885209D-03
  0.22187464D-03  0.48320231D-05 -0.80010290D-04 -0.46390406D-04  0.25855860D-04
 -0.17299349D-03 -0.96156918D-04 -0.18374265D-05 -0.36684755D-04 -0.20313152D-04
  0.37862243D-04  0.23615708D-04 -0.42228551D-04  0.18612843D-04  0.10994511D-03
 -0.65672287D-04 -0.36493804D-04 -0.11539975D-04 -0.10296256D-04  0.21836231D-04
 -0.26991155D-05  0.29492798D-04  0.16850377D-04 -0.15464848D+00 -0.28933081D+00
 -0.49989946D+00 -0.81039576D+00 -0.12306637D+01 -0.17105068D+01 -0.20336615D+01
 -0.18116563D+01 -0.89970684D+00 -0.14484519D+00 -0.15282023D-02 -0.72305612D-03
 -0.24119942D-01 -0.84053168D-01 -0.30268907D+00 -0.66724038D+00 -0.93925910D+00
  0.44805720D-01  0.12291837D+01  0.72680860D+00 -0.15534266D-04 -0.18815789D-03
 -0.39238345D-03 -0.11252874D-02 -0.58434609D-04  0.48527851D-02  0.12538665D-01
 -0.10215914D-01  0.46614965D-01 -0.38501985D-03 -0.13206475D-03  0.58253446D-03
  0.76733416D-03  0.84648969D-03  0.70307597D-03  0.37335285D-03  0.96326986D-04
  0.18024986D-02  0.23743123D-02  0.26192382D-02  0.21754824D-02  0.11552415D-02
  0.29805835D-03  0.59363998D+01  0.78196273D+01  0.86262729D+01  0.71647951D+01
  0.38047050D+01  0.98163378D+00 -0.74688256D-08  0.72203800D-07  0.10181490D-06
  0.14562223D-06 -0.73741049D-09 -0.13354932D-06 -0.63758977D-07  0.61638076D-06
  0.86916122D-06  0.12431305D-05 -0.62950377D-08 -0.11400679D-05 -0.21055956D-03
  0.20355543D-02  0.28703440D-02  0.41053513D-02 -0.20788921D-04 -0.37649943D-02
  0.42086314D-05  0.13100574D-04  0.41618588D-01 -0.94644199D-07 -0.33653336D-06
 -0.48336814D-03 -0.38366148D-08  0.19754851D-07 -0.98321993D-05 -0.76749503D-05
 -0.75260722D-05  0.15201022D-04 -0.40412089D-06  0.61705740D-06 -0.31675593D-07
 -0.11105122D-03 -0.11108080D-03  0.22213202D-03  0.10603625D-06 -0.46265465D-07
  0.48090198D-06 -0.14293510D-04 -0.14287100D-04  0.28580609D-04  0.43604954D-07
  0.89921864D-07  0.10837508D-06  0.54783276D-08 -0.72629718D-05  0.54629431D-05
 -0.14036674D-06  0.21681348D-04 -0.82473983D-05  0.12393175D-06  0.10756708D-06
 -0.81414310D-05  0.50974884D-06  0.42664664D-08  0.20989678D-05 -0.33605625D-04
  0.45347338D-07 -0.61267583D-05  0.50408236D-04 -0.58146737D-07 -0.17014524D-06
  0.50408639D-04 -0.26958892D-06 -0.87876841D-03 -0.16380258D-02 -0.27768187D-02
 -0.42044790D-02 -0.52565249D-02 -0.45215540D-02 -0.17341133D-02 -0.68139569D-06
 -0.90204030D-05 -0.32763745D-04 -0.97193032D-04 -0.11199534D-03  0.13603502D-03
 -0.95827596D-04 -0.15847113D-03  0.12655856D-04  0.16774970D-05  0.16405554D-05
  0.10839843D-05  0.21343451D-05  0.20873429D-05  0.13791957D-05  0.38994625D-02
  0.38135892D-02  0.25197996D-02  0.54578569D-06  0.25817970D-06  0.87864917D-03
  0.10278881D-07  0.11556431D-06  0.21715745D-04  0.36308779D-07  0.49961601D-07
  0.93481385D-05 -0.35861531D-04 -0.35415252D-04  0.71276782D-04 -0.38349507D-06
 -0.36583015D-06  0.48925080D-06  0.21149367D-04  0.20945141D-04 -0.42094508D-04
  0.16601786D-06  0.13480609D-06 -0.25061214D-06  0.18073780D-04  0.18162319D-04
 -0.36236099D-04 -0.52632016D-07 -0.14386059D-06 -0.78819228D-07 -0.39573669D-07
 -0.33741698D-05  0.46777956D-04 -0.10158175D-06  0.92450578D-05 -0.69860188D-04
  0.22030275D-06  0.87745147D-06 -0.70473679D-04 -0.55682380D-06  0.29396136D-07
  0.10816583D-05 -0.25508497D-04  0.48761401D-07 -0.28719494D-05  0.38165568D-04
 -0.13694981D-06 -0.37302544D-06  0.38359923D-04  0.14059167D-06
MO    4     MO 0.0        OCC NO =    2.0000123  ORB. ENERGY =    0.000000
  0.26500925D-01  0.49403063D-01  0.83497908D-01  0.12551293D+00  0.15417015D+00
  0.13011417D+00  0.48926326D-01 -0.15156308D-05 -0.11328401D-04 -0.42336822D-04
 -0.11811314D-03 -0.15823904D-03  0.18685081D-03  0.26204252D-02 -0.35921925D-02
 -0.40757021D-04  0.55261589D-05  0.51811252D-05  0.36892698D-05  0.46966064D-05
  0.44033670D-05  0.31354596D-05  0.36687466D-02  0.34396831D-02  0.24492593D-02
  0.16989603D-04  0.10206047D-04  0.13017851D-02  0.70674504D-05  0.64984619D-05
 -0.41531185D-03  0.58903350D-07 -0.62594560D-08  0.37456887D-05 -0.31860263D-03
 -0.32036952D-03  0.63897215D-03  0.26606153D-05  0.26705508D-06  0.13928747D-05
  0.10597586D-04  0.78461062D-05 -0.18443693D-04  0.95227874D-05 -0.42620802D-05
 -0.33123628D-05 -0.17681354D-04 -0.18023070D-04  0.35704425D-04  0.10189769D-05
  0.29650117D-06  0.55174002D-06  0.23288519D-06 -0.41521640D-04  0.22126409D-04
 -0.64758278D-06  0.12466433D-03 -0.33590819D-04 -0.51072796D-07 -0.99412342D-07
 -0.32788407D-04 -0.16295671D-05 -0.48722214D-06  0.81897358D-04 -0.16348786D-03
  0.11934381D-05 -0.24585997D-03  0.24519755D-03  0.26822834D-06  0.16789892D-06
  0.24526602D-03 -0.17886597D-05 -0.90067294D-04 -0.16244007D-03 -0.23951779D-03
  0.10285317D-02  0.69485511D-03  0.42787771D-05 -0.18320374D-06 -0.56342670D-04
  0.34341675D-04  0.96346123D-06  0.30927834D-03 -0.44089496D-04  0.11013034D-05
  0.11312065D-03  0.76494802D-04 -0.14362632D-03  0.26378776D-04  0.11724755D-03
  0.57222560D-06  0.34124302D-06  0.14272019D-03 -0.15139801D-04 -0.20634201D-04
  0.35774002D-04  0.86479643D-06 -0.52692288D-06 -0.63147803D-04 -0.90097796D-04
 -0.16249509D-03 -0.23959891D-03  0.10290308D-02  0.69124061D-03  0.43584727D-05
 -0.49633345D-04  0.27235688D-04  0.34718374D-04  0.27012196D-03 -0.15208202D-03
 -0.44264286D-04  0.97819313D-04 -0.55130946D-04  0.75895179D-04 -0.16253639D-04
 -0.10108065D-03  0.11733429D-03 -0.14687036D-03  0.12456181D-03 -0.69956771D-04
 -0.18685782D-04 -0.16894128D-04  0.35579910D-04  0.51251828D-05 -0.54710773D-04
  0.31269670D-04 -0.89486186D-04 -0.16139202D-03 -0.23797244D-03  0.99746139D-03
  0.65422866D-03  0.39406657D-05  0.55477545D-04  0.30477100D-04  0.28609645D-04
 -0.26301798D-03 -0.14740123D-03 -0.38377714D-04 -0.93237130D-04 -0.53117987D-04
  0.74243927D-04 -0.18760128D-04 -0.99633055D-04  0.11839318D-03  0.13789706D-03
 -0.12169675D-03 -0.67870101D-04 -0.19432245D-04 -0.16155282D-04  0.35587526D-04
 -0.58682140D-05  0.53263122D-04  0.30673450D-04  0.91249964D-01  0.17071894D+00
  0.29496447D+00  0.47817206D+00  0.72615016D+00  0.10092804D+01  0.11999571D+01
  0.10689635D+01  0.53086985D+00  0.85465555D-01  0.90171209D-03  0.42723114D-03
  0.14251716D-01  0.49664375D-01  0.17884946D+00  0.39425137D+00  0.55497869D+00
 -0.26474292D-01 -0.72628599D+00 -0.42944836D+00  0.62737112D-05  0.75989964D-04
  0.15846906D-03  0.45446167D-03  0.23599562D-04 -0.19598591D-02 -0.50638996D-02
  0.41258270D-02 -0.28525237D-01  0.14160876D-02 -0.18280261D-03  0.56569239D-02
  0.74514922D-02  0.82201623D-02  0.68274884D-02  0.36255858D-02  0.93542009D-03
  0.75496232D-02  0.99446198D-02  0.10970472D-01  0.91118362D-02  0.48386379D-02
  0.12483939D-02  0.99181618D+01  0.13064539D+02  0.14412232D+02  0.11970487D+02
  0.63566608D+01  0.16400517D+01 -0.17128463D-06  0.16558696D-05  0.23349490D-05
  0.33395948D-05 -0.16911238D-07 -0.30627234D-05 -0.25594576D-06  0.24743189D-05
  0.34890480D-05  0.49902615D-05 -0.25269982D-07 -0.45765405D-05 -0.33685010D-03
  0.32564500D-02  0.45919345D-02  0.65676810D-02 -0.33257812D-04 -0.60231829D-02
  0.40678549D-04  0.55143244D-04  0.72581918D-01 -0.28336591D-06 -0.43599620D-06
 -0.30498330D-03 -0.22612039D-07  0.12404762D-07 -0.39170353D-05  0.45368979D-03
  0.45391883D-03 -0.90760862D-03 -0.31450135D-06 -0.86203718D-06 -0.22993783D-05
 -0.30920436D-03 -0.30924894D-03  0.61845330D-03  0.12320197D-06  0.50588910D-06
  0.14643453D-05  0.44581908D-05  0.44329072D-05 -0.88910980D-05  0.75449308D-07
  0.11085703D-06  0.64196561D-07  0.17867783D-07 -0.14567634D-04 -0.46995075D-04
 -0.27460015D-06  0.43673104D-04  0.70548635D-04  0.22099680D-06  0.29796329D-07
  0.70436591D-04  0.11305791D-05  0.20157899D-07  0.42641048D-05 -0.62360346D-04
  0.10340687D-06 -0.12455026D-04  0.93492724D-04 -0.16388056D-06 -0.33728857D-06
  0.93588312D-04 -0.57730626D-06 -0.63456615D-02 -0.11828324D-01 -0.20051644D-01