 Entering Gaussian System, Link 0=g09
 Input=GAUSSIAN+YF_6.com
 Output=GAUSSIAN+YF_6.log
 Initial command:
 /home/bruns/programas/chemistry/gaussian/g09/l1.exe /home/bruns/programas/chemistry/gaussian/work/Gau-15204.inp -scrdir=/home/bruns/programas/chemistry/gaussian/work/
 Entering Link 1 = /home/bruns/programas/chemistry/gaussian/g09/l1.exe PID=     15206.
  
 Copyright (c) 1988,1990,1992,1993,1995,1998,2003,2009,2010,
            Gaussian, Inc.  All Rights Reserved.
  
 This is part of the Gaussian(R) 09 program.  It is based on
 the Gaussian(R) 03 system (copyright 2003, Gaussian, Inc.),
 the Gaussian(R) 98 system (copyright 1998, Gaussian, Inc.),
 the Gaussian(R) 94 system (copyright 1995, Gaussian, Inc.),
 the Gaussian 92(TM) system (copyright 1992, Gaussian, Inc.),
 the Gaussian 90(TM) system (copyright 1990, Gaussian, Inc.),
 the Gaussian 88(TM) system (copyright 1988, Gaussian, Inc.),
 the Gaussian 86(TM) system (copyright 1986, Carnegie Mellon
 University), and the Gaussian 82(TM) system (copyright 1983,
 Carnegie Mellon University). Gaussian is a federally registered
 trademark of Gaussian, Inc.
  
 This software contains proprietary and confidential information,
 including trade secrets, belonging to Gaussian, Inc.
  
 This software is provided under written license and may be
 used, copied, transmitted, or stored only in accord with that
 written license.
  
 The following legend is applicable only to US Government
 contracts under FAR:
  
                    RESTRICTED RIGHTS LEGEND
  
 Use, reproduction and disclosure by the US Government is
 subject to restrictions as set forth in subparagraphs (a)
 and (c) of the Commercial Computer Software - Restricted
 Rights clause in FAR 52.227-19.
  
 Gaussian, Inc.
 340 Quinnipiac St., Bldg. 40, Wallingford CT 06492
  
  
 ---------------------------------------------------------------
 Warning -- This program may not be used in any manner that
 competes with the business of Gaussian, Inc. or will provide
 assistance to any competitor of Gaussian, Inc.  The licensee
 of this program is prohibited from giving any competitor of
 Gaussian, Inc. access to this program.  By using this program,
 the user acknowledges that Gaussian, Inc. is engaged in the
 business of creating and licensing software in the field of
 computational chemistry and represents and warrants to the
 licensee that it is not a competitor of Gaussian, Inc. and that
 it will not use this program in any manner prohibited above.
 ---------------------------------------------------------------
  

 Cite this work as:
 Gaussian 09, Revision B.01,
 M. J. Frisch, G. W. Trucks, H. B. Schlegel, G. E. Scuseria, 
 M. A. Robb, J. R. Cheeseman, G. Scalmani, V. Barone, B. Mennucci, 
 G. A. Petersson, H. Nakatsuji, M. Caricato, X. Li, H. P. Hratchian, 
 A. F. Izmaylov, J. Bloino, G. Zheng, J. L. Sonnenberg, M. Hada, 
 M. Ehara, K. Toyota, R. Fukuda, J. Hasegawa, M. Ishida, T. Nakajima, 
 Y. Honda, O. Kitao, H. Nakai, T. Vreven, J. A. Montgomery, Jr., 
 J. E. Peralta, F. Ogliaro, M. Bearpark, J. J. Heyd, E. Brothers, 
 K. N. Kudin, V. N. Staroverov, T. Keith, R. Kobayashi, J. Normand, 
 K. Raghavachari, A. Rendell, J. C. Burant, S. S. Iyengar, J. Tomasi, 
 M. Cossi, N. Rega, J. M. Millam, M. Klene, J. E. Knox, J. B. Cross, 
 V. Bakken, C. Adamo, J. Jaramillo, R. Gomperts, R. E. Stratmann, 
 O. Yazyev, A. J. Austin, R. Cammi, C. Pomelli, J. W. Ochterski, 
 R. L. Martin, K. Morokuma, V. G. Zakrzewski, G. A. Voth, 
 P. Salvador, J. J. Dannenberg, S. Dapprich, A. D. Daniels, 
 O. Farkas, J. B. Foresman, J. V. Ortiz, J. Cioslowski, 
 and D. J. Fox, Gaussian, Inc., Wallingford CT, 2010.
 
 ******************************************
 Gaussian 09:  EM64L-G09RevB.01 12-Aug-2010
                10-Aug-2021 
 ******************************************
 %nproc=8
 Will use up to    8 processors via shared memory.
 %mem=8GB
 -----------------------------------------------------
 # QCISD aug-cc-pvtz nosymm density=current output=wfn
 -----------------------------------------------------
 1/30=1,38=1/1;
 2/12=2,15=1,17=6,18=5,40=1/2;
 3/5=16,6=1,7=10,11=9,16=1,25=1,30=1,71=1/1,2,3;
 4//1;
 5/5=2,38=5/2;
 8/6=4,9=120000,10=1/1,4;
 9/5=8,15=1/13;
 11/28=-7,31=1,32=3,42=3/11;
 10/5=6,13=10,31=1/2;
 6/7=2,8=2,9=2,10=2,22=-1,31=1/1;
 99/5=1,6=1100,9=1/99;
 ----------
 title line
 ----------
 Symbolic Z-matrix:
 Charge = -1 Multiplicity = 1
 C                     0.00018   0.00003  -0.49771 
 H                     0.00002  -1.05257  -0.62073 
 H                    -0.91131   0.52637  -0.62125 
 H                     0.91175   0.52613  -0.62157 
 Cl                    0.00056   0.00096   1.64472 
 F                    -0.00019   0.00908  -2.59346 
 
                          Input orientation:                          
 ---------------------------------------------------------------------
 Center     Atomic      Atomic             Coordinates (Angstroms)
 Number     Number       Type             X           Y           Z
 ---------------------------------------------------------------------
      1          6           0        0.000175    0.000029   -0.497709
      2          1           0        0.000019   -1.052570   -0.620726
      3          1           0       -0.911312    0.526365   -0.621245
      4          1           0        0.911750    0.526132   -0.621570
      5         17           0        0.000555    0.000962    1.644718
      6          9           0       -0.000186    0.009079   -2.593460
 ---------------------------------------------------------------------
                    Distance matrix (angstroms):
                    1          2          3          4          5
     1  C    0.000000
     2  H    1.059763   0.000000
     3  H    1.059764   1.823063   0.000000
     4  H    1.059762   1.823062   1.823062   0.000000
     5  Cl   2.142427   2.498433   2.498427   2.498428   0.000000
     6  F    2.095771   2.240263   2.233241   2.233231   4.238186
                    6
     6  F    0.000000
 Symmetry turned off by external request.
 This structure is nearly, but not quite of a higher symmetry.
 Consider Symm=Loose if the higher symmetry is desired.
 Stoichiometry    CH3ClF(1-)
 Framework group  C1[X(CH3ClF)]
 Deg. of freedom    12
 Full point group                 C1      NOp   1
 Rotational constants (GHZ):    150.8660019      2.2147236      2.2147208
 Standard basis: Aug-CC-pVTZ (5D, 7F)
 Integral buffers will be    131072 words long.
 Raffenetti 1 integral format.
 Two-electron integral symmetry is turned off.
   211 basis functions,   339 primitive gaussians,   244 cartesian basis functions
    18 alpha electrons       18 beta electrons
       nuclear repulsion energy        84.9841980362 Hartrees.
 NAtoms=    6 NActive=    6 NUniq=    6 SFac= 1.00D+00 NAtFMM=   50 NAOKFM=F Big=F
 One-electron integrals computed using PRISM.
 NBasis=   211 RedAO= T  NBF=   211
 NBsUse=   211 1.00D-06 NBFU=   211
 Harris functional with IExCor=  205 diagonalized for initial guess.
 ExpMin= 2.53D-02 ExpMax= 4.56D+05 ExpMxC= 1.44D+03 IAcc=3 IRadAn=         0 AccDes= 0.00D+00
 HarFok:  IExCor=  205 AccDes= 0.00D+00 IRadAn=         0 IDoV= 1
 ScaDFX=  1.000000  1.000000  1.000000  1.000000
 FoFCou: FMM=F IPFlag=           0 FMFlag=      100000 FMFlg1=           0
         NFxFlg=           0 DoJE=T BraDBF=F KetDBF=T FulRan=T
         Omega=  0.000000  0.000000  1.000000  0.000000  0.000000 ICntrl=     500 IOpCl=  0
         NMat0=    1 NMatS0=    1 NMatT0=    0 NMatD0=    1 NMtDS0=    0 NMtDT0=    0
         I1Cent=           4 NGrid=           0.
 Symmetry not used in FoFCou.
 Requested convergence on RMS density matrix=1.00D-08 within 128 cycles.
 Requested convergence on MAX density matrix=1.00D-06.
 Requested convergence on             energy=1.00D-06.
 No special actions if energy rises.
 Keep R1 ints in memory in canonical form, NReq=454274131.
 SCF Done:  E(RHF) =  -598.617123018     A.U. after   12 cycles
             Convg  =    0.9412D-08             -V/T =  2.0001
 ExpMin= 2.53D-02 ExpMax= 4.56D+05 ExpMxC= 1.44D+03 IAcc=3 IRadAn=         5 AccDes= 0.00D+00
 HarFok:  IExCor=  205 AccDes= 0.00D+00 IRadAn=         5 IDoV=-2
 ScaDFX=  1.000000  1.000000  1.000000  1.000000
 DSYEVD returned Info=          93 IAlg= 4 N=    46 NDim=    46 NE2=    21472034 trying DSYEV.
 DSYEVD returned Info=          93 IAlg= 4 N=    46 NDim=    46 NE2=    21472034 trying DSYEV.
 Range of M.O.s used for correlation:     8   211
 NBasis=   211 NAE=    18 NBE=    18 NFC=     7 NFV=     0
 NROrb=    204 NOA=    11 NOB=    11 NVA=   193 NVB=   193

 **** Warning!!: The largest alpha MO coefficient is  0.35241914D+02

 Semi-Direct transformation.
 ModeAB=           2 MOrb=            11 LenV=    1072528236
 LASXX=     44979418 LTotXX=    44979418 LenRXX=    44979418
 LTotAB=    45631872 MaxLAS=    67073160 LenRXY=    67073160
 NonZer=    89958836 LenScr=   135708672 LnRSAI=           0
 LnScr1=           0 LExtra=           0 Total=    247761250
 MaxDsk=          -1 SrtSym=           F ITran=            4
 JobTyp=0 Pass  1:  I=   1 to  11.
 (rs|ai) integrals will be sorted in core.
 Spin components of T(2) and E(2):
     alpha-alpha T2 =       0.2567355472D-01 E2=     -0.8208213269D-01
     alpha-beta  T2 =       0.1452558196D+00 E2=     -0.5099785030D+00
     beta-beta   T2 =       0.2567355472D-01 E2=     -0.8208213269D-01
 ANorm=    0.1093893472D+01
 E2 =    -0.6741427684D+00 EUMP2 =    -0.59929126578670D+03
 R2 and R3 integrals will be kept in memory, NReq=   900794930.
 Iterations=  50 Convergence= 0.100D-07
 Iteration Nr.   1
 **********************
 DD1Dir will call FoFMem   1 times, MxPair=       132
 NAB=    66 NAA=     0 NBB=     0.
 MP4(R+Q)=  0.14438869D-01
 E3=       -0.18701008D-01        EUMP3=      -0.59930996680D+03
 E4(DQ)=   -0.45153577D-03        UMP4(DQ)=   -0.59931041833D+03
 E4(SDQ)=  -0.98177195D-02        UMP4(SDQ)=  -0.59931978451D+03
 DE(Corr)= -0.67840491     E(Corr)=     -599.29552793    
 NORM(A)=   0.10996848D+01
 Iteration Nr.   2
 **********************
 DD1Dir will call FoFMem   1 times, MxPair=       132
 NAB=    66 NAA=     0 NBB=     0.
 DE(Corr)= -0.70060470     E(CORR)=     -599.31772772     Delta=-2.22D-02
 NORM(A)=   0.11070392D+01
 Iteration Nr.   3
 **********************
 DD1Dir will call FoFMem   1 times, MxPair=       132
 NAB=    66 NAA=     0 NBB=     0.
 DE(Corr)= -0.69820777     E(CORR)=     -599.31533078     Delta= 2.40D-03
 NORM(A)=   0.11110243D+01
 Iteration Nr.   4
 **********************
 DD1Dir will call FoFMem   1 times, MxPair=       132
 NAB=    66 NAA=     0 NBB=     0.
 DE(Corr)= -0.70126684     E(CORR)=     -599.31838986     Delta=-3.06D-03
 NORM(A)=   0.11131280D+01
 Iteration Nr.   5
 **********************
 DD1Dir will call FoFMem   1 times, MxPair=       132
 NAB=    66 NAA=     0 NBB=     0.
 DE(Corr)= -0.70186182     E(CORR)=     -599.31898484     Delta=-5.95D-04
 NORM(A)=   0.11141591D+01
 Iteration Nr.   6
 **********************
 DD1Dir will call FoFMem   1 times, MxPair=       132
 NAB=    66 NAA=     0 NBB=     0.
 DE(Corr)= -0.70200861     E(CORR)=     -599.31913162     Delta=-1.47D-04
 NORM(A)=   0.11144850D+01
 Iteration Nr.   7
 **********************
 DD1Dir will call FoFMem   1 times, MxPair=       132
 NAB=    66 NAA=     0 NBB=     0.
 DE(Corr)= -0.70203833     E(CORR)=     -599.31916134     Delta=-2.97D-05
 NORM(A)=   0.11145160D+01
 Iteration Nr.   8
 **********************
 DD1Dir will call FoFMem   1 times, MxPair=       132
 NAB=    66 NAA=     0 NBB=     0.
 DE(Corr)= -0.70205221     E(CORR)=     -599.31917522     Delta=-1.39D-05
 NORM(A)=   0.11145338D+01
 Iteration Nr.   9
 **********************
 DD1Dir will call FoFMem   1 times, MxPair=       132
 NAB=    66 NAA=     0 NBB=     0.
 DE(Corr)= -0.70202899     E(CORR)=     -599.31915201     Delta= 2.32D-05
 NORM(A)=   0.11145370D+01
 Iteration Nr.  10
 **********************
 DD1Dir will call FoFMem   1 times, MxPair=       132
 NAB=    66 NAA=     0 NBB=     0.
 DE(Corr)= -0.70204829     E(CORR)=     -599.31917131     Delta=-1.93D-05
 NORM(A)=   0.11145372D+01
 Iteration Nr.  11
 **********************
 DD1Dir will call FoFMem   1 times, MxPair=       132
 NAB=    66 NAA=     0 NBB=     0.
 DE(Corr)= -0.70203910     E(CORR)=     -599.31916211     Delta= 9.19D-06
 NORM(A)=   0.11145401D+01
 Iteration Nr.  12
 **********************
 DD1Dir will call FoFMem   1 times, MxPair=       132
 NAB=    66 NAA=     0 NBB=     0.
 DE(Corr)= -0.70204285     E(CORR)=     -599.31916587     Delta=-3.75D-06
 NORM(A)=   0.11145406D+01
 Iteration Nr.  13
 **********************
 DD1Dir will call FoFMem   1 times, MxPair=       132
 NAB=    66 NAA=     0 NBB=     0.
 DE(Corr)= -0.70204342     E(CORR)=     -599.31916643     Delta=-5.66D-07
 NORM(A)=   0.11145412D+01
 Iteration Nr.  14
 **********************
 DD1Dir will call FoFMem   1 times, MxPair=       132
 NAB=    66 NAA=     0 NBB=     0.
 DE(Corr)= -0.70204364     E(CORR)=     -599.31916666     Delta=-2.24D-07
 NORM(A)=   0.11145414D+01
 Iteration Nr.  15
 **********************
 DD1Dir will call FoFMem   1 times, MxPair=       132
 NAB=    66 NAA=     0 NBB=     0.
 DE(Corr)= -0.70204355     E(CORR)=     -599.31916657     Delta= 9.05D-08
 NORM(A)=   0.11145413D+01
 Iteration Nr.  16
 **********************
 DD1Dir will call FoFMem   1 times, MxPair=       132
 NAB=    66 NAA=     0 NBB=     0.
 DE(Corr)= -0.70204375     E(CORR)=     -599.31916677     Delta=-2.03D-07
 NORM(A)=   0.11145411D+01
 Iteration Nr.  17
 **********************
 DD1Dir will call FoFMem   1 times, MxPair=       132
 NAB=    66 NAA=     0 NBB=     0.
 DE(Corr)= -0.70204362     E(CORR)=     -599.31916664     Delta= 1.31D-07
 NORM(A)=   0.11145410D+01
 Iteration Nr.  18
 **********************
 DD1Dir will call FoFMem   1 times, MxPair=       132
 NAB=    66 NAA=     0 NBB=     0.
 DE(Corr)= -0.70204366     E(CORR)=     -599.31916668     Delta=-3.67D-08
 NORM(A)=   0.11145409D+01
 Iteration Nr.  19
 **********************
 DD1Dir will call FoFMem   1 times, MxPair=       132
 NAB=    66 NAA=     0 NBB=     0.
 DE(Corr)= -0.70204361     E(CORR)=     -599.31916662     Delta= 5.29D-08
 NORM(A)=   0.11145408D+01
 Iteration Nr.  20
 **********************
 DD1Dir will call FoFMem   1 times, MxPair=       132
 NAB=    66 NAA=     0 NBB=     0.
 DE(Corr)= -0.70204361     E(CORR)=     -599.31916663     Delta=-2.87D-09
 NORM(A)=   0.11145407D+01
 Iteration Nr.  21
 **********************
 DD1Dir will call FoFMem   1 times, MxPair=       132
 NAB=    66 NAA=     0 NBB=     0.
 DE(Corr)= -0.70204359     E(CORR)=     -599.31916661     Delta= 1.98D-08
 NORM(A)=   0.11145407D+01
 Iteration Nr.  22
 **********************
 DD1Dir will call FoFMem   1 times, MxPair=       132
 NAB=    66 NAA=     0 NBB=     0.
 DE(Corr)= -0.70204359     E(CORR)=     -599.31916660     Delta= 2.42D-09
 NORM(A)=   0.11145407D+01
 Iteration Nr.  23
 **********************
 DD1Dir will call FoFMem   1 times, MxPair=       132
 NAB=    66 NAA=     0 NBB=     0.
 DE(Corr)= -0.70204358     E(CORR)=     -599.31916660     Delta= 4.58D-09
 NORM(A)=   0.11145407D+01
 Iteration Nr.  24
 **********************
 DD1Dir will call FoFMem   1 times, MxPair=       132
 NAB=    66 NAA=     0 NBB=     0.
 DE(Corr)= -0.70204358     E(CORR)=     -599.31916660     Delta=-4.18D-10
 NORM(A)=   0.11145407D+01
 Iteration Nr.  25
 **********************
 DD1Dir will call FoFMem   1 times, MxPair=       132
 NAB=    66 NAA=     0 NBB=     0.
 DE(Corr)= -0.70204358     E(CORR)=     -599.31916659     Delta= 5.95D-09
 NORM(A)=   0.11145407D+01
 Iteration Nr.  26
 **********************
 DD1Dir will call FoFMem   1 times, MxPair=       132
 NAB=    66 NAA=     0 NBB=     0.
 DE(Corr)= -0.70204358     E(CORR)=     -599.31916660     Delta=-5.59D-09
 NORM(A)=   0.11145407D+01
 Iteration Nr.  27
 **********************
 DD1Dir will call FoFMem   1 times, MxPair=       132
 NAB=    66 NAA=     0 NBB=     0.
 DE(Corr)= -0.70204358     E(CORR)=     -599.31916659     Delta= 5.03D-09
 NORM(A)=   0.11145407D+01
 Iteration Nr.  28
 **********************
 DD1Dir will call FoFMem   1 times, MxPair=       132
 NAB=    66 NAA=     0 NBB=     0.
 DE(Corr)= -0.70204358     E(CORR)=     -599.31916660     Delta=-5.34D-09
 NORM(A)=   0.11145407D+01
 Iteration Nr.  29
 **********************
 DD1Dir will call FoFMem   1 times, MxPair=       132
 NAB=    66 NAA=     0 NBB=     0.
 DE(Corr)= -0.70204349     E(CORR)=     -599.31916651     Delta= 8.87D-08
 NORM(A)=   0.11145407D+01
 Iteration Nr.  30
 **********************
 DD1Dir will call FoFMem   1 times, MxPair=       132
 NAB=    66 NAA=     0 NBB=     0.
 DE(Corr)= -0.70204358     E(CORR)=     -599.31916660     Delta=-8.77D-08
 NORM(A)=   0.11145407D+01
 Iteration Nr.  31
 **********************
 DD1Dir will call FoFMem   1 times, MxPair=       132
 NAB=    66 NAA=     0 NBB=     0.
 DE(Corr)= -0.70204358     E(CORR)=     -599.31916660     Delta= 3.44D-10
 NORM(A)=   0.11145407D+01
 Largest amplitude= 6.61D-02

 Z-AMPLITUDE ITERATIONS

 Iteration Nr.   1
 **********************
 DD1Dir will call FoFMem   1 times, MxPair=       132
 NAB=    66 NAA=     0 NBB=     0.
 DE(Z)  -0.68265152D+00          E(Z)=    -0.59929977454D+03
 NORM(A)=   0.11149816D+01
 Iteration Nr.   2
 **********************
 DD1Dir will call FoFMem   1 times, MxPair=       132
 NAB=    66 NAA=     0 NBB=     0.
 DE(Z)  -0.68269985D+00          E(Z)=    -0.59929982287D+03
 NORM(A)=   0.11130208D+01
 Iteration Nr.   3
 **********************
 DD1Dir will call FoFMem   1 times, MxPair=       132
 NAB=    66 NAA=     0 NBB=     0.
 DE(Z)  -0.68250635D+00          E(Z)=    -0.59929962937D+03
 NORM(A)=   0.11156079D+01
 Iteration Nr.   4
 **********************
 DD1Dir will call FoFMem   1 times, MxPair=       132
 NAB=    66 NAA=     0 NBB=     0.
 DE(Z)  -0.68275778D+00          E(Z)=    -0.59929988080D+03
 NORM(A)=   0.11123893D+01
 Iteration Nr.   5
 **********************
 DD1Dir will call FoFMem   1 times, MxPair=       132
 NAB=    66 NAA=     0 NBB=     0.
 DE(Z)  -0.68244015D+00          E(Z)=    -0.59929956317D+03
 NORM(A)=   0.11078852D+01
 Iteration Nr.   6
 **********************
 DD1Dir will call FoFMem   1 times, MxPair=       132
 NAB=    66 NAA=     0 NBB=     0.
 DE(Z)  -0.68198243D+00          E(Z)=    -0.59929910545D+03
 NORM(A)=   0.11078797D+01
 Iteration Nr.   7
 **********************
 DD1Dir will call FoFMem   1 times, MxPair=       132
 NAB=    66 NAA=     0 NBB=     0.
 DE(Z)  -0.68198581D+00          E(Z)=    -0.59929910883D+03
 NORM(A)=   0.11078742D+01
 Iteration Nr.   8
 **********************
 DD1Dir will call FoFMem   1 times, MxPair=       132
 NAB=    66 NAA=     0 NBB=     0.
 DE(Z)  -0.68198252D+00          E(Z)=    -0.59929910553D+03
 NORM(A)=   0.11078715D+01
 Iteration Nr.   9
 **********************
 DD1Dir will call FoFMem   1 times, MxPair=       132
 NAB=    66 NAA=     0 NBB=     0.
 DE(Z)  -0.68198292D+00          E(Z)=    -0.59929910594D+03
 NORM(A)=   0.11078701D+01
 Iteration Nr.  10
 **********************
 DD1Dir will call FoFMem   1 times, MxPair=       132
 NAB=    66 NAA=     0 NBB=     0.
 DE(Z)  -0.68198266D+00          E(Z)=    -0.59929910568D+03
 NORM(A)=   0.11078697D+01
 Iteration Nr.  11
 **********************
 DD1Dir will call FoFMem   1 times, MxPair=       132
 NAB=    66 NAA=     0 NBB=     0.
 DE(Z)  -0.68198268D+00          E(Z)=    -0.59929910570D+03
 NORM(A)=   0.11078696D+01
 Iteration Nr.  12
 **********************
 DD1Dir will call FoFMem   1 times, MxPair=       132
 NAB=    66 NAA=     0 NBB=     0.
 DE(Z)  -0.68198272D+00          E(Z)=    -0.59929910573D+03
 NORM(A)=   0.11078697D+01
 Iteration Nr.  13
 **********************
 DD1Dir will call FoFMem   1 times, MxPair=       132
 NAB=    66 NAA=     0 NBB=     0.
 DE(Z)  -0.68198277D+00          E(Z)=    -0.59929910579D+03
 NORM(A)=   0.11078697D+01
 Iteration Nr.  14
 **********************
 DD1Dir will call FoFMem   1 times, MxPair=       132
 NAB=    66 NAA=     0 NBB=     0.
 DE(Z)  -0.68198273D+00          E(Z)=    -0.59929910575D+03
 NORM(A)=   0.11078697D+01
 Iteration Nr.  15
 **********************
 DD1Dir will call FoFMem   1 times, MxPair=       132
 NAB=    66 NAA=     0 NBB=     0.
 DE(Z)  -0.68198277D+00          E(Z)=    -0.59929910579D+03
 NORM(A)=   0.11078697D+01
 Iteration Nr.  16
 **********************
 DD1Dir will call FoFMem   1 times, MxPair=       132
 NAB=    66 NAA=     0 NBB=     0.
 DE(Z)  -0.68198276D+00          E(Z)=    -0.59929910578D+03
 NORM(A)=   0.11078697D+01
 Iteration Nr.  17
 **********************
 DD1Dir will call FoFMem   1 times, MxPair=       132
 NAB=    66 NAA=     0 NBB=     0.
 DE(Z)  -0.68198277D+00          E(Z)=    -0.59929910578D+03
 NORM(A)=   0.11078697D+01
 Iteration Nr.  18
 **********************
 DD1Dir will call FoFMem   1 times, MxPair=       132
 NAB=    66 NAA=     0 NBB=     0.
 DE(Z)  -0.68198276D+00          E(Z)=    -0.59929910578D+03
 NORM(A)=   0.11078697D+01
 Iteration Nr.  19
 **********************
 DD1Dir will call FoFMem   1 times, MxPair=       132
 NAB=    66 NAA=     0 NBB=     0.
 DE(Z)  -0.68198276D+00          E(Z)=    -0.59929910578D+03
 NORM(A)=   0.11078697D+01
 Iteration Nr.  20
 **********************
 DD1Dir will call FoFMem   1 times, MxPair=       132
 NAB=    66 NAA=     0 NBB=     0.
 DE(Z)  -0.68198276D+00          E(Z)=    -0.59929910578D+03
 NORM(A)=   0.11078697D+01
 Iteration Nr.  21
 **********************
 DD1Dir will call FoFMem   1 times, MxPair=       132
 NAB=    66 NAA=     0 NBB=     0.
 DE(Z)  -0.68198276D+00          E(Z)=    -0.59929910578D+03
 NORM(A)=   0.11078697D+01
 Iteration Nr.  22
 **********************
 DD1Dir will call FoFMem   1 times, MxPair=       132
 NAB=    66 NAA=     0 NBB=     0.
 DE(Z)  -0.68198276D+00          E(Z)=    -0.59929910578D+03
 NORM(A)=   0.11078697D+01
 Iteration Nr.  23
 **********************
 DD1Dir will call FoFMem   1 times, MxPair=       132
 NAB=    66 NAA=     0 NBB=     0.
 DE(Z)  -0.68198276D+00          E(Z)=    -0.59929910578D+03
 NORM(A)=   0.11078697D+01
 Iteration Nr.  24
 **********************
 DD1Dir will call FoFMem   1 times, MxPair=       132
 NAB=    66 NAA=     0 NBB=     0.
 DE(Z)  -0.68198276D+00          E(Z)=    -0.59929910578D+03
 NORM(A)=   0.11078697D+01
 Iteration Nr.  25
 **********************
 DD1Dir will call FoFMem   1 times, MxPair=       132
 NAB=    66 NAA=     0 NBB=     0.
 DE(Z)  -0.68198276D+00          E(Z)=    -0.59929910578D+03
 NORM(A)=   0.11078697D+01
 Iteration Nr.  26
 **********************
 DD1Dir will call FoFMem   1 times, MxPair=       132
 NAB=    66 NAA=     0 NBB=     0.
 DE(Z)  -0.68198276D+00          E(Z)=    -0.59929910578D+03
 NORM(A)=   0.11078697D+01
 Iteration Nr.  27
 **********************
 DD1Dir will call FoFMem   1 times, MxPair=       132
 NAB=    66 NAA=     0 NBB=     0.
 DE(Z)  -0.68198276D+00          E(Z)=    -0.59929910578D+03
 NORM(A)=   0.11078697D+01
 Iteration Nr.  28
 **********************
 DD1Dir will call FoFMem   1 times, MxPair=       132
 NAB=    66 NAA=     0 NBB=     0.
 DE(Z)  -0.68198276D+00          E(Z)=    -0.59929910578D+03
 NORM(A)=   0.11078697D+01
 Iteration Nr.  29
 **********************
 DD1Dir will call FoFMem   1 times, MxPair=       132
 NAB=    66 NAA=     0 NBB=     0.
 DE(Z)  -0.68198276D+00          E(Z)=    -0.59929910578D+03
 NORM(A)=   0.11078697D+01
 Iteration Nr.  30
 **********************
 DD1Dir will call FoFMem   1 times, MxPair=       132
 NAB=    66 NAA=     0 NBB=     0.
 DE(Z)  -0.68198276D+00          E(Z)=    -0.59929910578D+03
 NORM(A)=   0.11078697D+01
 Iteration Nr.  31
 **********************
 DD1Dir will call FoFMem   1 times, MxPair=       132
 NAB=    66 NAA=     0 NBB=     0.
 DE(Z)  -0.68198276D+00          E(Z)=    -0.59929910578D+03
 NORM(A)=   0.11078697D+01
 Iteration Nr.  32
 **********************
 DD1Dir will call FoFMem   1 times, MxPair=       132
 NAB=    66 NAA=     0 NBB=     0.
 DE(Z)  -0.68198276D+00          E(Z)=    -0.59929910578D+03
 NORM(A)=   0.11078697D+01
 Discarding MO integrals.
          Differentiating once with respect to electric field.
                with respect to dipole field.
          Electric field/nuclear overlap derivatives assumed to be zero.
          Keep R1 ints in memory in canonical form, NReq=448662239.
          There are     1 degrees of freedom in the 1st order CPHF.  IDoFFX=0.
 LinEq1:  Iter=  0 NonCon=     1 RMS=3.11D-03 Max=1.20D-01
 AX will form     1 AO Fock derivatives at one time.
 LinEq1:  Iter=  1 NonCon=     1 RMS=6.94D-04 Max=9.46D-03
 LinEq1:  Iter=  2 NonCon=     1 RMS=2.29D-04 Max=5.72D-03
 LinEq1:  Iter=  3 NonCon=     1 RMS=9.49D-05 Max=1.45D-03
 LinEq1:  Iter=  4 NonCon=     1 RMS=3.84D-05 Max=4.10D-04
 LinEq1:  Iter=  5 NonCon=     1 RMS=1.06D-05 Max=2.26D-04
 LinEq1:  Iter=  6 NonCon=     1 RMS=2.42D-06 Max=4.25D-05
 LinEq1:  Iter=  7 NonCon=     1 RMS=6.06D-07 Max=9.14D-06
 LinEq1:  Iter=  8 NonCon=     1 RMS=1.49D-07 Max=1.80D-06
 LinEq1:  Iter=  9 NonCon=     1 RMS=3.03D-08 Max=7.47D-07
 LinEq1:  Iter= 10 NonCon=     1 RMS=6.54D-09 Max=8.91D-08
 LinEq1:  Iter= 11 NonCon=     1 RMS=1.05D-09 Max=1.16D-08
 LinEq1:  Iter= 12 NonCon=     1 RMS=1.68D-10 Max=2.85D-09
 LinEq1:  Iter= 13 NonCon=     0 RMS=2.40D-11 Max=3.21D-10
 Linear equations converged to 1.000D-10 1.000D-09 after    13 iterations.
 End of Minotr Frequency-dependent properties file   721 does not exist.
 End of Minotr Frequency-dependent properties file   722 does not exist.

 **********************************************************************

            Population analysis using the QCI/CC density.

 **********************************************************************

     Natural Orbital Coefficients:
                           1         2         3         4         5
     Eigenvalues --     2.00003   2.00003   2.00002   2.00001   2.00001
   1 1   C  1S          0.00000  -0.00001  -0.04328   0.08033   0.97619
   2        2S          0.00000   0.00000   0.00131   0.00050  -0.01332
   3        3S          0.00000   0.00000  -0.00132   0.00400   0.03985
   4        4S          0.00000   0.00003  -0.01265  -0.02361   0.00311
   5        5S          0.00000   0.00003  -0.00120  -0.00062  -0.00061
   6        6PX         0.00005   0.00000   0.00000   0.00000   0.00000
   7        6PY         0.00000   0.00005   0.00000   0.00000  -0.00001
   8        6PZ         0.00000   0.00000   0.00053   0.00168   0.00087
   9        7PX         0.00084   0.00000   0.00000   0.00000   0.00000
  10        7PY         0.00000   0.00085   0.00000   0.00000   0.00001
  11        7PZ         0.00000   0.00000   0.00142   0.00304  -0.00091
  12        8PX         0.00455   0.00000   0.00000   0.00000   0.00000
  13        8PY         0.00000   0.00457   0.00001   0.00001   0.00001
  14        8PZ         0.00000  -0.00002  -0.00373  -0.00410  -0.00309
  15        9PX         0.00042   0.00000   0.00000   0.00000   0.00000
  16        9PY         0.00000   0.00042   0.00000   0.00000   0.00000
  17        9PZ         0.00000   0.00000   0.00021   0.00017  -0.00049
  18       10D 0        0.00000   0.00000   0.00011   0.00033  -0.00057
  19       10D+1       -0.00015   0.00000   0.00000   0.00000   0.00000
  20       10D-1        0.00000  -0.00015   0.00000   0.00000   0.00000
  21       10D+2        0.00000   0.00004   0.00000   0.00000   0.00000
  22       10D-2        0.00004   0.00000   0.00000   0.00000   0.00000
  23       11D 0        0.00000   0.00000   0.00022  -0.00009  -0.00029
  24       11D+1        0.00026   0.00000   0.00000   0.00000   0.00000
  25       11D-1        0.00000   0.00025   0.00000   0.00000   0.00000
  26       11D+2        0.00000   0.00101   0.00000   0.00000   0.00001
  27       11D-2        0.00101   0.00000   0.00000   0.00000   0.00000
  28       12D 0        0.00000   0.00002  -0.00078   0.00122  -0.00236
  29       12D+1       -0.00130   0.00000   0.00000   0.00000   0.00000
  30       12D-1        0.00000  -0.00131   0.00000  -0.00001   0.00000
  31       12D+2        0.00000   0.00162   0.00000   0.00000   0.00001
  32       12D-2        0.00162   0.00000   0.00000   0.00000   0.00000
  33       13F 0        0.00000   0.00000   0.00001   0.00003   0.00019
  34       13F+1       -0.00019   0.00000   0.00000   0.00000   0.00000
  35       13F-1        0.00000  -0.00019   0.00000   0.00000   0.00000
  36       13F+2        0.00000   0.00002   0.00000   0.00000   0.00000
  37       13F-2        0.00002   0.00000   0.00000   0.00000   0.00000
  38       13F+3        0.00000   0.00000   0.00000   0.00000   0.00000
  39       13F-3        0.00000   0.00000  -0.00006   0.00007   0.00090
  40       14F 0        0.00000  -0.00001  -0.00113  -0.00215  -0.00019
  41       14F+1        0.00057   0.00000   0.00000   0.00000   0.00000
  42       14F-1        0.00000   0.00058   0.00000   0.00000   0.00000
  43       14F+2        0.00000   0.00034   0.00000   0.00000   0.00000
  44       14F-2        0.00034   0.00000   0.00000   0.00000   0.00000
  45       14F+3        0.00000   0.00000   0.00000   0.00000   0.00000
  46       14F-3        0.00000   0.00000  -0.00086  -0.00136  -0.00191
  47 2   H  1S          0.00000  -0.00016  -0.00002  -0.00035  -0.00135
  48        2S          0.00000   0.00119   0.00245   0.00334  -0.00065
  49        3S         -0.00001   0.00871   0.00184   0.00530  -0.00432
  50        4S          0.00000  -0.00027   0.00011   0.00010  -0.00013
  51        5PX         0.00000   0.00000   0.00000   0.00000   0.00000
  52        5PY         0.00000   0.00003   0.00004  -0.00003  -0.00048
  53        5PZ         0.00000   0.00001   0.00001   0.00002  -0.00009
  54        6PX         0.00019   0.00000   0.00000   0.00000   0.00000
  55        6PY         0.00000   0.00066   0.00046   0.00070  -0.00079
  56        6PZ         0.00000   0.00062  -0.00001  -0.00010   0.00024
  57        7PX         0.00092   0.00000   0.00000   0.00000   0.00000
  58        7PY         0.00000   0.00210   0.00054   0.00135  -0.00101
  59        7PZ         0.00000   0.00026   0.00047   0.00092  -0.00006
  60        8D 0        0.00000   0.00004   0.00001   0.00007   0.00014
  61        8D+1       -0.00002   0.00000   0.00000   0.00000   0.00000
  62        8D-1        0.00000   0.00009   0.00002   0.00005  -0.00004
  63        8D+2        0.00000  -0.00005  -0.00004  -0.00005   0.00028
  64        8D-2        0.00001   0.00000   0.00000   0.00000   0.00000
  65        9D 0        0.00000   0.00039   0.00015   0.00025   0.00063
  66        9D+1        0.00025   0.00000   0.00000   0.00000   0.00000
  67        9D-1        0.00000   0.00012  -0.00014  -0.00025   0.00001
  68        9D+2        0.00000  -0.00013   0.00001   0.00002  -0.00010
  69        9D-2        0.00012   0.00000   0.00000   0.00000   0.00000
  70 3   H  1S         -0.00014   0.00008  -0.00002  -0.00035  -0.00135
  71        2S          0.00103  -0.00061   0.00245   0.00332  -0.00067
  72        3S          0.00753  -0.00435   0.00182   0.00529  -0.00436
  73        4S         -0.00023   0.00013   0.00011   0.00009  -0.00013
  74        5PX         0.00003  -0.00001   0.00004  -0.00002  -0.00042
  75        5PY        -0.00001   0.00001  -0.00002   0.00001   0.00024
  76        5PZ         0.00001  -0.00001   0.00001   0.00002  -0.00009
  77        6PX         0.00054  -0.00021   0.00040   0.00060  -0.00070
  78        6PY        -0.00020   0.00031  -0.00023  -0.00035   0.00040
  79        6PZ         0.00054  -0.00031  -0.00001  -0.00010   0.00024
  80        7PX         0.00181  -0.00051   0.00046   0.00117  -0.00088
  81        7PY        -0.00051   0.00121  -0.00027  -0.00067   0.00051
  82        7PZ         0.00024  -0.00014   0.00047   0.00092  -0.00006
  83        8D 0        0.00003  -0.00002   0.00001   0.00007   0.00014
  84        8D+1        0.00007  -0.00005   0.00002   0.00004  -0.00003
  85        8D-1       -0.00005   0.00001  -0.00001  -0.00002   0.00002
  86        8D+2        0.00003  -0.00001   0.00002   0.00003  -0.00014
  87        8D-2       -0.00003   0.00003  -0.00004  -0.00005   0.00024
  88        9D 0        0.00034  -0.00020   0.00015   0.00025   0.00063
  89        9D+1        0.00016   0.00005  -0.00012  -0.00022   0.00001
  90        9D-1        0.00005   0.00022   0.00007   0.00013   0.00000
  91        9D+2        0.00011   0.00006   0.00000  -0.00001   0.00005
  92        9D-2       -0.00007   0.00011   0.00001   0.00002  -0.00008
  93 4   H  1S          0.00014   0.00008  -0.00002  -0.00035  -0.00135
  94        2S         -0.00103  -0.00061   0.00245   0.00332  -0.00067
  95        3S         -0.00753  -0.00436   0.00182   0.00529  -0.00436
  96        4S          0.00023   0.00013   0.00011   0.00009  -0.00013
  97        5PX         0.00003   0.00001  -0.00004   0.00002   0.00042
  98        5PY         0.00001   0.00001  -0.00002   0.00001   0.00024
  99        5PZ        -0.00001  -0.00001   0.00001   0.00002  -0.00009
 100        6PX         0.00054   0.00021  -0.00040  -0.00060   0.00070
 101        6PY         0.00020   0.00031  -0.00023  -0.00035   0.00040
 102        6PZ        -0.00054  -0.00031  -0.00001  -0.00010   0.00024
 103        7PX         0.00180   0.00051  -0.00046  -0.00117   0.00088
 104        7PY         0.00051   0.00121  -0.00027  -0.00067   0.00051
 105        7PZ        -0.00024  -0.00014   0.00047   0.00092  -0.00006
 106        8D 0       -0.00003  -0.00002   0.00001   0.00007   0.00014
 107        8D+1        0.00007   0.00005  -0.00002  -0.00004   0.00003
 108        8D-1        0.00005   0.00001  -0.00001  -0.00002   0.00002
 109        8D+2       -0.00003  -0.00001   0.00002   0.00003  -0.00014
 110        8D-2       -0.00003  -0.00003   0.00004   0.00005  -0.00024
 111        9D 0       -0.00034  -0.00020   0.00015   0.00025   0.00063
 112        9D+1        0.00016  -0.00005   0.00012   0.00022  -0.00001
 113        9D-1       -0.00005   0.00022   0.00007   0.00013   0.00000
 114        9D+2       -0.00011   0.00006   0.00000  -0.00001   0.00005
 115        9D-2       -0.00007  -0.00011  -0.00001  -0.00002   0.00008
 116 5   Cl 1S          0.00000  -0.00007  -0.25059   0.14801  -0.02283
 117        2S          0.00000   0.00024   0.84589  -0.50031   0.07825
 118        3S          0.00000  -0.00001  -0.02309   0.00933  -0.00239
 119        4S          0.00000   0.00002   0.06655  -0.04076   0.00643
 120        5S          0.00000  -0.00001  -0.00211   0.00778   0.00351
 121        6S          0.00000   0.00000  -0.00154  -0.00213   0.00300
 122        7PX         0.97886   0.00071   0.00009   0.00015  -0.00001
 123        7PY        -0.00071   0.97886   0.00029   0.00094  -0.00005
 124        7PZ        -0.00017  -0.00096   0.50090   0.83587  -0.04716
 125        8PX        -0.01915  -0.00001   0.00000   0.00000   0.00000
 126        8PY         0.00001  -0.01915   0.00000  -0.00001   0.00000
 127        8PZ         0.00000   0.00002  -0.00878  -0.01404   0.00011
 128        9PX         0.05233   0.00004   0.00001   0.00001   0.00000
 129        9PY        -0.00004   0.05233   0.00002   0.00006   0.00000
 130        9PZ        -0.00001  -0.00005   0.02844   0.04954  -0.00267
 131       10PX        -0.00578   0.00000   0.00000   0.00000   0.00000
 132       10PY         0.00000  -0.00578   0.00000   0.00000   0.00000
 133       10PZ         0.00000   0.00001  -0.00435  -0.00275  -0.00347
 134       11PX        -0.00215   0.00000   0.00000   0.00000   0.00000
 135       11PY         0.00000  -0.00214   0.00000   0.00000   0.00000
 136       11PZ         0.00000   0.00000  -0.00036  -0.00015  -0.00053
 137       12D 0        0.00000   0.00000   0.00001  -0.00051  -0.00017
 138       12D+1       -0.00032   0.00000   0.00000   0.00000   0.00000
 139       12D-1        0.00000  -0.00032   0.00000   0.00000   0.00000
 140       12D+2        0.00000   0.00001   0.00000   0.00000   0.00000
 141       12D-2        0.00001   0.00000   0.00000   0.00000   0.00000
 142       13D 0        0.00000   0.00000   0.00088   0.00244   0.00042
 143       13D+1        0.00081   0.00000   0.00000   0.00000   0.00000
 144       13D-1        0.00000   0.00081   0.00000   0.00000   0.00000
 145       13D+2        0.00000  -0.00002   0.00000   0.00000   0.00000
 146       13D-2       -0.00002   0.00000   0.00000   0.00000   0.00000
 147       14D 0        0.00000   0.00000   0.00058  -0.00018   0.00080
 148       14D+1       -0.00071   0.00000   0.00000   0.00000   0.00000
 149       14D-1        0.00000  -0.00071   0.00000   0.00000   0.00000
 150       14D+2        0.00000   0.00003   0.00000   0.00000   0.00000
 151       14D-2        0.00003   0.00000   0.00000   0.00000   0.00000
 152       15F 0        0.00000   0.00000   0.00001  -0.00007  -0.00003
 153       15F+1       -0.00001   0.00000   0.00000   0.00000   0.00000
 154       15F-1        0.00000  -0.00001   0.00000   0.00000   0.00000
 155       15F+2        0.00000   0.00003   0.00000   0.00000   0.00000
 156       15F-2        0.00003   0.00000   0.00000   0.00000   0.00000
 157       15F+3        0.00000   0.00000   0.00000   0.00000   0.00000
 158       15F-3        0.00000   0.00000   0.00001   0.00003   0.00000
 159       16F 0        0.00000   0.00000  -0.00032  -0.00058  -0.00031
 160       16F+1       -0.00022   0.00000   0.00000   0.00000   0.00000
 161       16F-1        0.00000  -0.00022   0.00000   0.00000   0.00000
 162       16F+2        0.00000  -0.00003   0.00000   0.00000   0.00000
 163       16F-2       -0.00003   0.00000   0.00000   0.00000   0.00000
 164       16F+3        0.00000   0.00000   0.00000   0.00000   0.00000
 165       16F-3        0.00000   0.00000  -0.00002  -0.00005   0.00002
 166 6   F  1S          0.00000   0.00001  -0.00144  -0.01041  -0.04976
 167        2S          0.00000   0.00000   0.00020   0.00043   0.00080
 168        3S          0.00000   0.00000  -0.00007  -0.00045  -0.00202
 169        4S          0.00000  -0.00001  -0.00055  -0.00105   0.00056
 170        5S          0.00000  -0.00003   0.00010  -0.00168   0.00178
 171        6PX        -0.00004   0.00000   0.00000   0.00000   0.00000
 172        6PY         0.00000  -0.00004   0.00000  -0.00001   0.00000
 173        6PZ         0.00000   0.00000   0.00058   0.00111   0.00011
 174        7PX        -0.00001   0.00000   0.00000   0.00000   0.00000
 175        7PY         0.00000  -0.00001   0.00000  -0.00001   0.00000
 176        7PZ         0.00000   0.00000   0.00069   0.00132   0.00002
 177        8PX        -0.00024   0.00000   0.00000   0.00000   0.00000
 178        8PY         0.00000  -0.00025   0.00000   0.00000   0.00000
 179        8PZ         0.00000  -0.00002   0.00008   0.00017   0.00048
 180        9PX        -0.00036   0.00000   0.00000   0.00000   0.00000
 181        9PY         0.00000  -0.00036   0.00000   0.00000   0.00000
 182        9PZ         0.00000  -0.00001   0.00017  -0.00009   0.00071
 183       10D 0        0.00000   0.00000   0.00001   0.00001  -0.00002
 184       10D+1       -0.00001   0.00000   0.00000   0.00000   0.00000
 185       10D-1        0.00000  -0.00001   0.00000   0.00000   0.00000
 186       10D+2        0.00000   0.00001   0.00000   0.00000   0.00000
 187       10D-2        0.00001   0.00000   0.00000   0.00000   0.00000
 188       11D 0        0.00000   0.00000  -0.00003  -0.00010   0.00001
 189       11D+1        0.00005   0.00000   0.00000   0.00000   0.00000
 190       11D-1        0.00000   0.00005   0.00000   0.00000   0.00000
 191       11D+2        0.00000  -0.00003   0.00000   0.00000   0.00000
 192       11D-2       -0.00003   0.00000   0.00000   0.00000   0.00000
 193       12D 0        0.00000   0.00000  -0.00019  -0.00012   0.00011
 194       12D+1       -0.00022   0.00000   0.00000   0.00000   0.00000
 195       12D-1        0.00000  -0.00023   0.00000   0.00001   0.00000
 196       12D+2        0.00000   0.00011   0.00000   0.00000   0.00000
 197       12D-2        0.00011   0.00000   0.00000   0.00000   0.00000
 198       13F 0        0.00000   0.00000   0.00001  -0.00001  -0.00004
 199       13F+1        0.00002   0.00000   0.00000   0.00000   0.00000
 200       13F-1        0.00000   0.00002   0.00000   0.00000   0.00000
 201       13F+2        0.00000  -0.00002   0.00000   0.00000   0.00000
 202       13F-2       -0.00002   0.00000   0.00000   0.00000   0.00000
 203       13F+3        0.00000   0.00000   0.00000   0.00000   0.00000
 204       13F-3        0.00000   0.00000   0.00000   0.00000   0.00000
 205       14F 0        0.00000   0.00000  -0.00004   0.00002   0.00013
 206       14F+1       -0.00006   0.00000   0.00000   0.00000   0.00000
 207       14F-1        0.00000  -0.00006   0.00000   0.00000   0.00000
 208       14F+2        0.00000   0.00004   0.00000   0.00000   0.00000
 209       14F-2        0.00004   0.00000   0.00000   0.00000   0.00000
 210       14F+3        0.00000   0.00000   0.00000   0.00000   0.00000
 211       14F-3        0.00000   0.00000   0.00000   0.00000  -0.00001
                           6         7         8         9        10
     Eigenvalues --     2.00000   2.00000   1.98361   1.97543   1.96949
   1 1   C  1S          0.05039  -0.00046   0.01542  -0.07338  -0.14372
   2        2S         -0.00012  -0.00001  -0.04201   0.19910   0.39727
   3        3S          0.00230  -0.00003  -0.01040   0.04620   0.09614
   4        4S         -0.00699   0.00016   0.00556   0.07906   0.19079
   5        5S         -0.00016   0.00010   0.00785  -0.00690  -0.02889
   6        6PX         0.00000   0.00000   0.00000   0.00000   0.00000
   7        6PY         0.00000   0.00000  -0.00008   0.00001   0.00006
   8        6PZ         0.00004   0.00000   0.00646   0.01034  -0.02723
   9        7PX         0.00000   0.00000   0.00000   0.00000   0.00000
  10        7PY         0.00001   0.00000  -0.00013   0.00000   0.00009
  11        7PZ        -0.00075   0.00000   0.00706   0.01790  -0.03246
  12        8PX         0.00000   0.00000   0.00000   0.00000   0.00000
  13        8PY        -0.00001   0.00000  -0.00019   0.00001   0.00010
  14        8PZ         0.00519   0.00009   0.01660   0.00589  -0.02271
  15        9PX         0.00000   0.00000   0.00000   0.00000   0.00000
  16        9PY         0.00000   0.00000   0.00000   0.00000  -0.00002
  17        9PZ         0.00011   0.00001  -0.00071   0.00033  -0.00407
  18       10D 0        0.00004   0.00000   0.00051  -0.00214  -0.00956
  19       10D+1        0.00000   0.00000   0.00000   0.00000   0.00000
  20       10D-1        0.00000   0.00000   0.00000   0.00000  -0.00001
  21       10D+2        0.00000   0.00000   0.00000   0.00000   0.00000
  22       10D-2        0.00000   0.00000   0.00000   0.00000   0.00000
  23       11D 0       -0.00023  -0.00002  -0.00529   0.00462  -0.01876
  24       11D+1        0.00000   0.00000   0.00000   0.00000  -0.00001
  25       11D-1        0.00001   0.00000   0.00010  -0.00001  -0.00007
  26       11D+2        0.00001   0.00000  -0.00006   0.00001   0.00006
  27       11D-2        0.00000   0.00000   0.00000   0.00000   0.00000
  28       12D 0        0.00027   0.00008   0.00206  -0.00841  -0.01668
  29       12D+1        0.00000   0.00000   0.00000   0.00000  -0.00001
  30       12D-1        0.00001   0.00000   0.00001   0.00004   0.00004
  31       12D+2        0.00001   0.00000  -0.00004   0.00003   0.00011
  32       12D-2        0.00000   0.00000   0.00000   0.00000   0.00000
  33       13F 0       -0.00007   0.00000   0.00000   0.00242   0.00064
  34       13F+1        0.00000   0.00000   0.00000   0.00000   0.00000
  35       13F-1        0.00000   0.00000   0.00000   0.00000   0.00001
  36       13F+2        0.00000   0.00000   0.00001   0.00000  -0.00001
  37       13F-2        0.00000   0.00000   0.00000   0.00000   0.00000
  38       13F+3        0.00000   0.00000   0.00000   0.00000   0.00000
  39       13F-3        0.00001   0.00000  -0.00014   0.00194   0.00397
  40       14F 0        0.00127  -0.00001   0.00471   0.00261  -0.00198
  41       14F+1        0.00000   0.00000   0.00000   0.00000   0.00000
  42       14F-1       -0.00001   0.00000  -0.00004   0.00000   0.00001
  43       14F+2        0.00000   0.00000   0.00004  -0.00001  -0.00004
  44       14F-2        0.00000   0.00000   0.00000   0.00000   0.00000
  45       14F+3        0.00000   0.00000   0.00000   0.00000   0.00000
  46       14F-3       -0.00044   0.00003   0.00187  -0.00100   0.00404
  47 2   H  1S         -0.00008   0.00000  -0.00852   0.03718   0.08048
  48        2S          0.00099  -0.00006  -0.01534   0.04379   0.08376
  49        3S          0.00182   0.00004  -0.00111  -0.00483  -0.01177
  50        4S          0.00003   0.00000  -0.00048   0.00049   0.00037
  51        5PX         0.00000   0.00000   0.00000   0.00000   0.00000
  52        5PY         0.00001   0.00000  -0.00109   0.00399   0.00863
  53        5PZ        -0.00004   0.00000   0.00027   0.00095   0.00034
  54        6PX         0.00000   0.00000   0.00000   0.00000   0.00000
  55        6PY         0.00008   0.00000  -0.00077   0.00081   0.00123
  56        6PZ         0.00032  -0.00001   0.00015   0.00241  -0.00057
  57        7PX         0.00000   0.00000   0.00000   0.00000   0.00000
  58        7PY         0.00044   0.00001   0.00131  -0.00495  -0.01031
  59        7PZ        -0.00054   0.00001  -0.00277  -0.00173  -0.00131
  60        8D 0        0.00006   0.00000   0.00014  -0.00035  -0.00091
  61        8D+1        0.00000   0.00000   0.00000   0.00000   0.00000
  62        8D-1       -0.00001   0.00000  -0.00014   0.00049   0.00023
  63        8D+2       -0.00002   0.00000   0.00004  -0.00054  -0.00137
  64        8D-2        0.00000   0.00000   0.00000   0.00000   0.00000
  65        9D 0        0.00009  -0.00001  -0.00006   0.00123   0.00102
  66        9D+1        0.00000   0.00000   0.00000   0.00000   0.00000
  67        9D-1        0.00014   0.00000  -0.00004   0.00003  -0.00040
  68        9D+2        0.00003   0.00000  -0.00098   0.00225   0.00415
  69        9D-2        0.00000   0.00000   0.00000   0.00000   0.00000
  70 3   H  1S         -0.00008   0.00000  -0.00861   0.03717   0.08054
  71        2S          0.00097  -0.00006  -0.01529   0.04376   0.08369
  72        3S          0.00180   0.00004  -0.00080  -0.00494  -0.01218
  73        4S          0.00003   0.00000  -0.00047   0.00051   0.00040
  74        5PX         0.00001   0.00000  -0.00094   0.00345   0.00748
  75        5PY        -0.00001   0.00000   0.00054  -0.00199  -0.00432
  76        5PZ        -0.00004   0.00000   0.00028   0.00096   0.00035
  77        6PX         0.00006   0.00000  -0.00063   0.00069   0.00105
  78        6PY        -0.00003   0.00000   0.00034  -0.00040  -0.00059
  79        6PZ         0.00032  -0.00001   0.00004   0.00244  -0.00048
  80        7PX         0.00038   0.00001   0.00118  -0.00429  -0.00892
  81        7PY        -0.00021   0.00000  -0.00070   0.00250   0.00521
  82        7PZ        -0.00055   0.00001  -0.00282  -0.00174  -0.00132
  83        8D 0        0.00006   0.00000   0.00014  -0.00035  -0.00091
  84        8D+1       -0.00001   0.00000  -0.00013   0.00043   0.00021
  85        8D-1        0.00000   0.00000   0.00007  -0.00025  -0.00012
  86        8D+2        0.00001   0.00000  -0.00002   0.00027   0.00069
  87        8D-2       -0.00001   0.00000   0.00003  -0.00047  -0.00119
  88        9D 0        0.00008  -0.00001  -0.00006   0.00122   0.00100
  89        9D+1        0.00012   0.00000  -0.00006   0.00003  -0.00032
  90        9D-1       -0.00007   0.00000   0.00004  -0.00002   0.00019
  91        9D+2       -0.00002   0.00000   0.00049  -0.00113  -0.00207
  92        9D-2        0.00003   0.00000  -0.00086   0.00195   0.00360
  93 4   H  1S         -0.00008   0.00000  -0.00861   0.03717   0.08055
  94        2S          0.00097  -0.00006  -0.01529   0.04376   0.08369
  95        3S          0.00180   0.00004  -0.00080  -0.00494  -0.01218
  96        4S          0.00003   0.00000  -0.00047   0.00051   0.00040
  97        5PX        -0.00001   0.00000   0.00094  -0.00345  -0.00748
  98        5PY        -0.00001   0.00000   0.00054  -0.00199  -0.00431
  99        5PZ        -0.00004   0.00000   0.00028   0.00096   0.00035
 100        6PX        -0.00006   0.00000   0.00063  -0.00069  -0.00105
 101        6PY        -0.00003   0.00000   0.00034  -0.00040  -0.00059
 102        6PZ         0.00032  -0.00001   0.00004   0.00244  -0.00048
 103        7PX        -0.00038  -0.00001  -0.00118   0.00429   0.00893
 104        7PY        -0.00021   0.00000  -0.00070   0.00250   0.00521
 105        7PZ        -0.00055   0.00001  -0.00282  -0.00174  -0.00132
 106        8D 0        0.00006   0.00000   0.00014  -0.00035  -0.00091
 107        8D+1        0.00001   0.00000   0.00013  -0.00043  -0.00021
 108        8D-1        0.00000   0.00000   0.00007  -0.00025  -0.00012
 109        8D+2        0.00001   0.00000  -0.00002   0.00027   0.00069
 110        8D-2        0.00001   0.00000  -0.00003   0.00047   0.00119
 111        9D 0        0.00008  -0.00001  -0.00006   0.00122   0.00100
 112        9D+1       -0.00012   0.00000   0.00006  -0.00003   0.00032
 113        9D-1       -0.00007   0.00000   0.00004  -0.00002   0.00019
 114        9D+2       -0.00002   0.00000   0.00049  -0.00113  -0.00207
 115        9D-2       -0.00003   0.00000   0.00086  -0.00195  -0.00360
 116 5   Cl 1S          0.00007   0.99708  -0.00064   0.06648  -0.03479
 117        2S         -0.00007   0.01040   0.00292  -0.25193   0.13076
 118        3S          0.00005   0.00017  -0.00391   0.52471  -0.27822
 119        4S          0.00008   0.00026  -0.00025   0.06428  -0.03748
 120        5S         -0.00181  -0.00020  -0.01230   0.35096  -0.17055
 121        6S         -0.00050  -0.00011  -0.00461   0.02452   0.01130
 122        7PX         0.00000   0.00000   0.00000   0.00000   0.00001
 123        7PY         0.00000   0.00000   0.00000   0.00000   0.00001
 124        7PZ         0.00733   0.00016   0.00152   0.00459   0.02880
 125        8PX         0.00000   0.00000   0.00000   0.00000  -0.00001
 126        8PY         0.00000   0.00000   0.00000   0.00000  -0.00001
 127        8PZ         0.00051  -0.00003  -0.00227  -0.00602  -0.07208
 128        9PX         0.00000   0.00000   0.00000   0.00000  -0.00001
 129        9PY         0.00000   0.00000   0.00000   0.00000  -0.00001
 130        9PZ         0.00032   0.00003  -0.00264   0.00068  -0.03141
 131       10PX         0.00000   0.00000   0.00000   0.00000  -0.00001
 132       10PY         0.00000   0.00000   0.00003  -0.00002  -0.00004
 133       10PZ         0.00096   0.00015   0.00271   0.00302  -0.05237
 134       11PX         0.00000   0.00000   0.00000   0.00000   0.00000
 135       11PY         0.00000   0.00000   0.00000   0.00000   0.00000
 136       11PZ         0.00002   0.00002  -0.00040   0.00263  -0.00875
 137       12D 0       -0.00003   0.00001  -0.00035   0.00449   0.00453
 138       12D+1        0.00000   0.00000   0.00000   0.00000   0.00000
 139       12D-1        0.00000   0.00000   0.00000   0.00000   0.00000
 140       12D+2        0.00000   0.00000   0.00000   0.00000   0.00000
 141       12D-2        0.00000   0.00000   0.00000   0.00000   0.00000
 142       13D 0       -0.00022   0.00000  -0.00163   0.00820   0.00969
 143       13D+1        0.00000   0.00000   0.00000   0.00000   0.00000
 144       13D-1        0.00000   0.00000  -0.00001   0.00001   0.00000
 145       13D+2        0.00000   0.00000   0.00000   0.00000   0.00000
 146       13D-2        0.00000   0.00000   0.00000   0.00000   0.00000
 147       14D 0       -0.00014  -0.00004  -0.00184  -0.00018   0.00539
 148       14D+1        0.00000   0.00000   0.00000   0.00000   0.00000
 149       14D-1        0.00000   0.00000  -0.00002   0.00001   0.00002
 150       14D+2        0.00000   0.00000   0.00000   0.00000   0.00000
 151       14D-2        0.00000   0.00000   0.00000   0.00000   0.00000
 152       15F 0        0.00005   0.00000   0.00023  -0.00180  -0.00192
 153       15F+1        0.00000   0.00000   0.00000   0.00000   0.00000
 154       15F-1        0.00000   0.00000   0.00000   0.00000   0.00000
 155       15F+2        0.00000   0.00000   0.00000   0.00000   0.00000
 156       15F-2        0.00000   0.00000   0.00000   0.00000   0.00000
 157       15F+3        0.00000   0.00000   0.00000   0.00000   0.00000
 158       15F-3       -0.00001   0.00000  -0.00001   0.00002   0.00009
 159       16F 0       -0.00005   0.00001   0.00005  -0.00093  -0.00171
 160       16F+1        0.00000   0.00000   0.00000   0.00000   0.00000
 161       16F-1        0.00000   0.00000   0.00001   0.00000   0.00000
 162       16F+2        0.00000   0.00000   0.00001   0.00000  -0.00001
 163       16F-2        0.00000   0.00000   0.00000   0.00000   0.00000
 164       16F+3        0.00000   0.00000   0.00000   0.00000   0.00000
 165       16F-3        0.00003   0.00000   0.00002  -0.00001  -0.00021
 166 6   F  1S          0.97743  -0.00002   0.21189   0.01315   0.02162
 167        2S         -0.01503   0.00000  -0.53161  -0.03405  -0.05732
 168        3S          0.04206   0.00000  -0.16471  -0.01081  -0.01853
 169        4S          0.00193  -0.00001  -0.36876  -0.02363  -0.04391
 170        5S         -0.00084  -0.00006  -0.04529   0.00420   0.00781
 171        6PX         0.00000   0.00000   0.00000   0.00000   0.00002
 172        6PY         0.00000   0.00000  -0.00014   0.00001   0.00018
 173        6PZ         0.00048   0.00000   0.01352   0.01270   0.08750
 174        7PX         0.00000   0.00000   0.00000   0.00000   0.00002
 175        7PY         0.00000   0.00000  -0.00017   0.00002   0.00021
 176        7PZ        -0.00012   0.00000   0.01475   0.01551   0.10528
 177        8PX         0.00000   0.00000   0.00000   0.00000   0.00002
 178        8PY        -0.00001   0.00000  -0.00014   0.00000   0.00015
 179        8PZ         0.00240  -0.00001   0.01247   0.01225   0.08373
 180        9PX         0.00000   0.00000   0.00000   0.00000   0.00000
 181        9PY         0.00000   0.00000  -0.00004  -0.00001   0.00005
 182        9PZ        -0.00008  -0.00002   0.00220   0.00315   0.02424
 183       10D 0       -0.00002   0.00000  -0.00013   0.00017   0.00060
 184       10D+1        0.00000   0.00000   0.00000   0.00000   0.00000
 185       10D-1        0.00000   0.00000   0.00000   0.00000   0.00000
 186       10D+2        0.00000   0.00000   0.00000   0.00000   0.00000
 187       10D-2        0.00000   0.00000   0.00000   0.00000   0.00000
 188       11D 0       -0.00003   0.00000  -0.00104   0.00091   0.00275
 189       11D+1        0.00000   0.00000   0.00000   0.00000   0.00000
 190       11D-1        0.00000   0.00000   0.00001  -0.00001  -0.00002
 191       11D+2        0.00000   0.00000   0.00000   0.00000   0.00000
 192       11D-2        0.00000   0.00000   0.00000   0.00000   0.00000
 193       12D 0        0.00080   0.00000  -0.00055   0.00035   0.00386
 194       12D+1        0.00000   0.00000   0.00000   0.00000   0.00000
 195       12D-1       -0.00001   0.00000   0.00000  -0.00001  -0.00003
 196       12D+2        0.00000   0.00000   0.00000   0.00000   0.00000
 197       12D-2        0.00000   0.00000   0.00000   0.00000   0.00000
 198       13F 0       -0.00006   0.00000  -0.00002   0.00013   0.00027
 199       13F+1        0.00000   0.00000   0.00000   0.00000   0.00000
 200       13F-1        0.00000   0.00000   0.00000   0.00000   0.00000
 201       13F+2        0.00000   0.00000   0.00000   0.00000   0.00000
 202       13F-2        0.00000   0.00000   0.00000   0.00000   0.00000
 203       13F+3        0.00000   0.00000   0.00000   0.00000   0.00000
 204       13F-3        0.00001   0.00000   0.00001   0.00002   0.00003
 205       14F 0        0.00020   0.00000  -0.00040  -0.00006   0.00063
 206       14F+1        0.00000   0.00000   0.00000   0.00000   0.00000
 207       14F-1        0.00000   0.00000   0.00001   0.00000  -0.00001
 208       14F+2        0.00000   0.00000   0.00000   0.00000   0.00000
 209       14F-2        0.00000   0.00000   0.00000   0.00000   0.00000
 210       14F+3        0.00000   0.00000   0.00000   0.00000   0.00000
 211       14F-3       -0.00001   0.00000  -0.00007  -0.00006  -0.00009
                          11        12        13        14        15
     Eigenvalues --     1.96437   1.96436   1.95924   1.95923   1.94911
   1 1   C  1S          0.00000   0.00038  -0.00004   0.00000   0.00142
   2        2S          0.00000  -0.00108   0.00015   0.00000  -0.00402
   3        3S          0.00000  -0.00028   0.00007   0.00000  -0.00094
   4        4S          0.00000   0.00023  -0.00105   0.00000  -0.00806
   5        5S          0.00000   0.00002   0.00008   0.00000  -0.00160
   6        6PX         0.09798  -0.00008   0.00065   0.23102   0.00014
   7        6PY         0.00008   0.09771   0.23107  -0.00065   0.06793
   8        6PZ        -0.00002   0.00000  -0.00003  -0.00004  -0.00125
   9        7PX         0.13125  -0.00011   0.00086   0.30621   0.00020
  10        7PY         0.00011   0.13093   0.30626  -0.00086   0.09440
  11        7PZ        -0.00002   0.00001   0.00000  -0.00005  -0.00178
  12        8PX         0.09622  -0.00008   0.00066   0.23646   0.00015
  13        8PY         0.00008   0.09573   0.23635  -0.00066   0.07256
  14        8PZ        -0.00002  -0.00010  -0.00017  -0.00004  -0.00164
  15        9PX        -0.00218   0.00000   0.00005   0.01897   0.00003
  16        9PY         0.00000  -0.00220   0.01893  -0.00005   0.01224
  17        9PZ         0.00000   0.00002  -0.00002   0.00000  -0.00002
  18       10D 0        0.00000   0.00002   0.00002   0.00000   0.00025
  19       10D+1       -0.00271   0.00000  -0.00001  -0.00127  -0.00001
  20       10D-1        0.00000  -0.00270  -0.00127   0.00000  -0.00373
  21       10D+2        0.00001   0.00623   0.01485  -0.00004   0.00503
  22       10D-2        0.00624  -0.00001   0.00004   0.01480   0.00001
  23       11D 0        0.00000  -0.00003   0.00017   0.00000   0.00137
  24       11D+1       -0.01274   0.00001   0.00001   0.00764  -0.00004
  25       11D-1       -0.00001  -0.01271   0.00765  -0.00003  -0.01547
  26       11D+2        0.00002   0.02052   0.04543  -0.00011   0.01708
  27       11D-2        0.02077  -0.00003   0.00011   0.04524   0.00003
  28       12D 0        0.00000   0.00006   0.00011   0.00000   0.00074
  29       12D+1       -0.00604   0.00000   0.00001   0.00564   0.00000
  30       12D-1       -0.00001  -0.00615   0.00574  -0.00002   0.00124
  31       12D+2        0.00002   0.01994   0.03610  -0.00009   0.01013
  32       12D-2        0.02021  -0.00003   0.00009   0.03588   0.00002
  33       13F 0        0.00000   0.00001   0.00000   0.00000  -0.00006
  34       13F+1        0.00025   0.00000  -0.00001  -0.00201   0.00000
  35       13F-1        0.00000   0.00025  -0.00201   0.00001  -0.00223
  36       13F+2        0.00000  -0.00063  -0.00013   0.00000  -0.00033
  37       13F-2       -0.00065   0.00000   0.00000  -0.00012   0.00000
  38       13F+3        0.00000   0.00000   0.00000   0.00000   0.00000
  39       13F-3        0.00000  -0.00001  -0.00001   0.00000  -0.00009
  40       14F 0        0.00000  -0.00003  -0.00006   0.00000  -0.00014
  41       14F+1        0.00038   0.00000  -0.00002  -0.00583  -0.00001
  42       14F-1        0.00000   0.00038  -0.00584   0.00002  -0.00726
  43       14F+2        0.00000  -0.00382  -0.00013   0.00000  -0.00325
  44       14F-2       -0.00390   0.00000   0.00000  -0.00013  -0.00001
  45       14F+3        0.00001   0.00000   0.00000   0.00000   0.00000
  46       14F-3        0.00000   0.00008  -0.00010   0.00000  -0.00043
  47 2   H  1S         -0.00006  -0.06738  -0.15167   0.00041  -0.04767
  48        2S         -0.00006  -0.06106  -0.15434   0.00041  -0.04608
  49        3S          0.00005   0.05746   0.11946  -0.00032   0.00589
  50        4S         -0.00001  -0.00581   0.01736  -0.00005   0.00111
  51        5PX         0.00209   0.00000   0.00001   0.00437   0.00000
  52        5PY        -0.00001  -0.00531  -0.01238   0.00003  -0.00365
  53        5PZ         0.00000   0.00003  -0.00279   0.00001   0.00011
  54        6PX         0.00807  -0.00001   0.00004   0.01362   0.00001
  55        6PY         0.00001   0.00715   0.01130  -0.00003   0.00577
  56        6PZ         0.00000  -0.00280   0.00045   0.00000  -0.00118
  57        7PX         0.00932  -0.00001   0.00004   0.01331   0.00001
  58        7PY         0.00001   0.01400   0.04564  -0.00012   0.01000
  59        7PZ         0.00000   0.00055   0.00766  -0.00002   0.00323
  60        8D 0        0.00000   0.00041   0.00136   0.00000   0.00041
  61        8D+1        0.00002   0.00000   0.00000   0.00031   0.00000
  62        8D-1        0.00000  -0.00075  -0.00024   0.00000  -0.00030
  63        8D+2        0.00000   0.00060   0.00192   0.00000   0.00054
  64        8D-2        0.00106   0.00000   0.00001   0.00224   0.00000
  65        9D 0        0.00000  -0.00060   0.00149   0.00000  -0.00012
  66        9D+1       -0.00154   0.00000   0.00000   0.00099   0.00000
  67        9D-1        0.00000  -0.00333   0.00339  -0.00001  -0.00041
  68        9D+2        0.00000  -0.00163  -0.00266   0.00001  -0.00104
  69        9D-2        0.00168   0.00000   0.00001   0.00287   0.00000
  70 3   H  1S         -0.05837   0.03346   0.07544  -0.13140   0.02240
  71        2S         -0.05260   0.03000   0.07710  -0.13387   0.02293
  72        3S          0.05035  -0.02905  -0.05917   0.10356  -0.00199
  73        4S         -0.00499   0.00289  -0.00865   0.01510  -0.00052
  74        5PX        -0.00344   0.00317   0.00724  -0.00822   0.00196
  75        5PY         0.00319   0.00026   0.00019   0.00726  -0.00008
  76        5PZ         0.00002  -0.00002   0.00139  -0.00243  -0.00016
  77        6PX         0.00743   0.00031   0.00111   0.01183  -0.00066
  78        6PY         0.00038   0.00781   0.01300   0.00101   0.00412
  79        6PZ        -0.00241   0.00135  -0.00018   0.00032   0.00056
  80        7PX         0.01290  -0.00213  -0.01377   0.03760  -0.00268
  81        7PY        -0.00205   0.01042   0.02137  -0.01405   0.00439
  82        7PZ         0.00064  -0.00032  -0.00378   0.00657  -0.00125
  83        8D 0        0.00036  -0.00020  -0.00068   0.00118  -0.00020
  84        8D+1       -0.00056   0.00033   0.00024  -0.00010   0.00011
  85        8D-1        0.00033  -0.00017   0.00018   0.00024  -0.00009
  86        8D+2        0.00020   0.00093   0.00216   0.00013   0.00057
  87        8D-2        0.00072   0.00020   0.00014   0.00200   0.00005
  88        9D 0       -0.00046   0.00024  -0.00072   0.00126   0.00010
  89        9D+1       -0.00289   0.00078  -0.00104   0.00283  -0.00026
  90        9D-1        0.00077  -0.00198   0.00161  -0.00106  -0.00103
  91        9D+2        0.00142   0.00081   0.00151   0.00239   0.00057
  92        9D-2       -0.00078   0.00140   0.00240  -0.00130   0.00098
  93 4   H  1S          0.05843   0.03335   0.07615   0.13099   0.02256
  94        2S          0.05266   0.02990   0.07781   0.13345   0.02309
  95        3S         -0.05040  -0.02896  -0.05972  -0.10324  -0.00200
  96        4S          0.00499   0.00288  -0.00873  -0.01505  -0.00053
  97        5PX        -0.00345  -0.00317  -0.00728  -0.00818  -0.00197
  98        5PY        -0.00319   0.00027   0.00016  -0.00726  -0.00008
  99        5PZ        -0.00002  -0.00002   0.00141   0.00243  -0.00016
 100        6PX         0.00743  -0.00032  -0.00104   0.01184   0.00068
 101        6PY        -0.00036   0.00781   0.01300  -0.00109   0.00412
 102        6PZ         0.00241   0.00135  -0.00019  -0.00032   0.00057
 103        7PX         0.01291   0.00211   0.01397   0.03753   0.00271
 104        7PY         0.00207   0.01041   0.02144   0.01392   0.00440
 105        7PZ        -0.00064  -0.00032  -0.00382  -0.00656  -0.00126
 106        8D 0       -0.00036  -0.00020  -0.00068  -0.00118  -0.00020
 107        8D+1       -0.00056  -0.00033  -0.00025  -0.00010  -0.00011
 108        8D-1       -0.00033  -0.00017   0.00018  -0.00024  -0.00009
 109        8D+2       -0.00019   0.00093   0.00216  -0.00014   0.00057
 110        8D-2        0.00072  -0.00020  -0.00013   0.00200  -0.00004
 111        9D 0        0.00046   0.00024  -0.00073  -0.00126   0.00010
 112        9D+1       -0.00289  -0.00078   0.00106   0.00282   0.00026
 113        9D-1       -0.00077  -0.00198   0.00161   0.00106  -0.00103
 114        9D+2       -0.00142   0.00081   0.00149  -0.00240   0.00056
 115        9D-2       -0.00078  -0.00140  -0.00241  -0.00128  -0.00098
 116 5   Cl 1S          0.00000   0.00006   0.00000   0.00000   0.00027
 117        2S          0.00000  -0.00023   0.00000   0.00000  -0.00103
 118        3S          0.00000   0.00048  -0.00001   0.00000   0.00213
 119        4S          0.00000   0.00007  -0.00001   0.00000   0.00033
 120        5S          0.00000   0.00032   0.00002   0.00000   0.00179
 121        6S          0.00000   0.00006  -0.00005   0.00000   0.00057
 122        7PX        -0.00881   0.00001  -0.00012  -0.04362   0.00047
 123        7PY        -0.00001  -0.00879  -0.04358   0.00012   0.22351
 124        7PZ         0.00000  -0.00003   0.00011   0.00001   0.00054
 125        8PX         0.02086  -0.00002   0.00029   0.10309  -0.00108
 126        8PY         0.00002   0.02081   0.10298  -0.00029  -0.51132
 127        8PZ         0.00000   0.00006  -0.00028  -0.00002  -0.00127
 128        9PX         0.00968  -0.00001   0.00013   0.04768  -0.00052
 129        9PY         0.00001   0.00966   0.04763  -0.00013  -0.24700
 130        9PZ         0.00000   0.00003  -0.00012  -0.00001  -0.00064
 131       10PX         0.01039  -0.00001   0.00016   0.05582  -0.00077
 132       10PY         0.00001   0.01040   0.05574  -0.00016  -0.36755
 133       10PZ         0.00000  -0.00002  -0.00020  -0.00001  -0.00163
 134       11PX         0.00213   0.00000   0.00001   0.00339  -0.00013
 135       11PY         0.00000   0.00212   0.00339  -0.00001  -0.06212
 136       11PZ         0.00000  -0.00004   0.00001   0.00000  -0.00059
 137       12D 0        0.00000  -0.00002   0.00002   0.00000  -0.00012
 138       12D+1       -0.00189   0.00000  -0.00002  -0.00618   0.00000
 139       12D-1        0.00000  -0.00188  -0.00618   0.00002   0.00022
 140       12D+2        0.00000   0.00011   0.00055   0.00000   0.00024
 141       12D-2        0.00011   0.00000   0.00000   0.00054   0.00000
 142       13D 0        0.00000  -0.00002   0.00003   0.00000  -0.00020
 143       13D+1       -0.00291   0.00000  -0.00003  -0.01096   0.00000
 144       13D-1        0.00000  -0.00291  -0.01095   0.00003   0.00069
 145       13D+2        0.00000   0.00032   0.00065   0.00000   0.00056
 146       13D-2        0.00032   0.00000   0.00000   0.00064   0.00000
 147       14D 0        0.00000  -0.00001   0.00003   0.00000   0.00003
 148       14D+1        0.00007   0.00000   0.00000   0.00004   0.00001
 149       14D-1        0.00000   0.00006   0.00005   0.00000   0.00336
 150       14D+2        0.00000  -0.00066  -0.00007   0.00000   0.00005
 151       14D-2       -0.00065   0.00000   0.00000  -0.00007   0.00000
 152       15F 0        0.00000   0.00000  -0.00001   0.00000   0.00003
 153       15F+1        0.00089   0.00000   0.00001   0.00263   0.00000
 154       15F-1        0.00000   0.00088   0.00262  -0.00001  -0.00141
 155       15F+2        0.00000  -0.00011  -0.00034   0.00000  -0.00010
 156       15F-2       -0.00011   0.00000   0.00000  -0.00034   0.00000
 157       15F+3        0.00000   0.00000   0.00000   0.00000   0.00000
 158       15F-3        0.00000   0.00000   0.00000   0.00000   0.00000
 159       16F 0        0.00000   0.00000  -0.00001   0.00000   0.00004
 160       16F+1        0.00059   0.00000   0.00001   0.00201   0.00000
 161       16F-1        0.00000   0.00059   0.00201  -0.00001  -0.00179
 162       16F+2        0.00000   0.00002   0.00018   0.00000  -0.00020
 163       16F-2        0.00001   0.00000   0.00000   0.00019   0.00000
 164       16F+3        0.00000   0.00000   0.00000   0.00000   0.00000
 165       16F-3        0.00000   0.00000   0.00000   0.00000   0.00000
 166 6   F  1S          0.00000   0.00004   0.00010   0.00000  -0.00028
 167        2S          0.00000  -0.00008  -0.00025   0.00000   0.00060
 168        3S          0.00000  -0.00003  -0.00009   0.00000   0.00018
 169        4S          0.00000  -0.00014  -0.00033   0.00000   0.00036
 170        5S          0.00000  -0.00009  -0.00026   0.00000   0.00014
 171        6PX         0.33209  -0.00027  -0.00046  -0.16221  -0.00005
 172        6PY         0.00027   0.33232  -0.16173   0.00045  -0.02262
 173        6PZ        -0.00005   0.00219  -0.00041   0.00003   0.00929
 174        7PX         0.39614  -0.00032  -0.00054  -0.19234  -0.00005
 175        7PY         0.00032   0.39641  -0.19176   0.00054  -0.02678
 176        7PZ        -0.00007   0.00261  -0.00047   0.00003   0.01108
 177        8PX         0.32026  -0.00026  -0.00046  -0.16181  -0.00005
 178        8PY         0.00026   0.32050  -0.16129   0.00045  -0.02292
 179        8PZ        -0.00005   0.00205  -0.00053   0.00003   0.00913
 180        9PX         0.10067  -0.00008  -0.00016  -0.05706  -0.00002
 181        9PY         0.00008   0.10076  -0.05688   0.00016  -0.01115
 182        9PZ        -0.00002   0.00063  -0.00029   0.00001   0.00282
 183       10D 0        0.00000   0.00001   0.00001   0.00000   0.00002
 184       10D+1        0.00060   0.00000   0.00000   0.00009   0.00000
 185       10D-1        0.00000   0.00060   0.00009   0.00000   0.00012
 186       10D+2        0.00000   0.00003   0.00004   0.00000   0.00001
 187       10D-2        0.00002   0.00000   0.00000   0.00004   0.00000
 188       11D 0        0.00000   0.00002   0.00002   0.00000   0.00006
 189       11D+1        0.00242   0.00000   0.00000   0.00122   0.00000
 190       11D-1        0.00000   0.00242   0.00122   0.00000   0.00059
 191       11D+2        0.00000   0.00006   0.00026   0.00000   0.00018
 192       11D-2        0.00004   0.00000   0.00000   0.00025   0.00000
 193       12D 0        0.00000   0.00004  -0.00003   0.00000   0.00027
 194       12D+1        0.00593   0.00000  -0.00001  -0.00357   0.00000
 195       12D-1        0.00000   0.00594  -0.00354   0.00001   0.00032
 196       12D+2        0.00000   0.00005  -0.00030   0.00000  -0.00036
 197       12D-2        0.00001   0.00000   0.00000  -0.00026   0.00000
 198       13F 0        0.00000   0.00000   0.00001   0.00000   0.00001
 199       13F+1        0.00022   0.00000   0.00000   0.00025   0.00000
 200       13F-1        0.00000   0.00022   0.00025   0.00000   0.00006
 201       13F+2        0.00000   0.00006   0.00011   0.00000   0.00006
 202       13F-2        0.00005   0.00000   0.00000   0.00011   0.00000
 203       13F+3        0.00000   0.00000   0.00000   0.00000   0.00000
 204       13F-3        0.00000   0.00000   0.00000   0.00000   0.00000
 205       14F 0        0.00000   0.00001  -0.00002   0.00000   0.00005
 206       14F+1        0.00145   0.00000   0.00000  -0.00088   0.00000
 207       14F-1        0.00000   0.00146  -0.00086   0.00000   0.00001
 208       14F+2        0.00000  -0.00012  -0.00025   0.00000  -0.00016
 209       14F-2       -0.00014   0.00000   0.00000  -0.00023   0.00000
 210       14F+3        0.00000   0.00000   0.00000   0.00000   0.00000
 211       14F-3        0.00000   0.00000   0.00000   0.00000   0.00000
                          16        17        18        19        20
     Eigenvalues --     1.94911   1.94879   1.93535   0.06018   0.02495
   1 1   C  1S          0.00000   0.05332  -0.01580  -0.02406   0.00000
   2        2S          0.00000  -0.15180   0.05098   0.06679   0.00000
   3        3S          0.00000  -0.03583   0.01676   0.02431   0.00000
   4        4S          0.00001  -0.29220   0.08714  -0.22168  -0.00001
   5        5S          0.00000  -0.05762   0.03919  -0.02903   0.00000
   6        6PX         0.06804  -0.00001  -0.00002   0.00005   0.15569
   7        6PY        -0.00014  -0.00239   0.00005   0.00006   0.00006
   8        6PZ        -0.00001  -0.04567  -0.12871   0.27936  -0.00003
   9        7PX         0.09457  -0.00001  -0.00003   0.00008   0.28909
  10        7PY        -0.00020  -0.00328   0.00007  -0.00026   0.00010
  11        7PZ        -0.00001  -0.06472  -0.18059   0.44329  -0.00005
  12        8PX         0.07282  -0.00001  -0.00001   0.00004   0.13220
  13        8PY        -0.00015  -0.00225  -0.00007  -0.00032   0.00005
  14        8PZ        -0.00001  -0.06419  -0.07658   0.20175  -0.00002
  15        9PX         0.01226   0.00000   0.00000   0.00000   0.02959
  16        9PY        -0.00003  -0.00040   0.00001   0.00007   0.00001
  17        9PZ         0.00000  -0.00123  -0.00166  -0.00006  -0.00001
  18       10D 0        0.00000   0.00935  -0.01106  -0.00881  -0.00001
  19       10D+1       -0.00373   0.00000   0.00000   0.00000   0.02553
  20       10D-1        0.00001   0.00009   0.00000   0.00003   0.00001
  21       10D+2       -0.00001  -0.00018   0.00001  -0.00002   0.00001
  22       10D-2        0.00502   0.00000   0.00000   0.00000   0.00371
  23       11D 0        0.00000   0.04982  -0.04570   0.06671  -0.00002
  24       11D+1       -0.01548   0.00002  -0.00001   0.00002   0.05990
  25       11D-1        0.00003   0.00016   0.00006   0.00022   0.00001
  26       11D+2       -0.00003  -0.00049   0.00002  -0.00030   0.00006
  27       11D-2        0.01707   0.00000   0.00000   0.00000   0.06995
  28       12D 0        0.00000   0.02815  -0.00380  -0.01696  -0.00001
  29       12D+1        0.00113   0.00001   0.00000  -0.00001   0.01885
  30       12D-1        0.00000  -0.00013   0.00004   0.00011   0.00000
  31       12D+2       -0.00002  -0.00020  -0.00002  -0.00017   0.00001
  32       12D-2        0.01010   0.00000   0.00000   0.00000   0.01481
  33       13F 0        0.00000  -0.00208  -0.00328  -0.00586   0.00000
  34       13F+1       -0.00224   0.00000   0.00000   0.00000  -0.00962
  35       13F-1        0.00000   0.00009   0.00000   0.00002   0.00000
  36       13F+2        0.00000   0.00000   0.00000   0.00002   0.00000
  37       13F-2       -0.00033   0.00000   0.00000   0.00000   0.00318
  38       13F+3        0.00000   0.00000   0.00000   0.00000   0.00000
  39       13F-3        0.00000  -0.00308   0.00115  -0.00053   0.00000
  40       14F 0        0.00000  -0.00547  -0.00087   0.01161   0.00000
  41       14F+1       -0.00725   0.00000   0.00000   0.00000  -0.00269
  42       14F-1        0.00002   0.00030  -0.00004   0.00000   0.00000
  43       14F+2        0.00000   0.00000   0.00002   0.00010   0.00000
  44       14F-2       -0.00325   0.00000   0.00000   0.00001  -0.00214
  45       14F+3        0.00000  -0.00001   0.00000  -0.00001  -0.00003
  46       14F-3        0.00000  -0.01509   0.00917  -0.03771   0.00000
  47 2   H  1S          0.00009  -0.03218   0.02879  -0.00667   0.00002
  48        2S          0.00009  -0.00133   0.02277   0.07957   0.00013
  49        3S         -0.00001   0.02216   0.02015   0.06786   0.00008
  50        4S          0.00000   0.00013   0.00191   0.00706   0.00004
  51        5PX         0.00106   0.00000   0.00000   0.00000   0.00289
  52        5PY         0.00001  -0.00201   0.00248  -0.00199   0.00000
  53        5PZ         0.00000  -0.00267  -0.00322   0.01427  -0.00001
  54        6PX         0.00375   0.00000   0.00000   0.00001   0.00760
  55        6PY        -0.00001   0.00537  -0.00154   0.00959   0.00003
  56        6PZ         0.00000  -0.00112  -0.01028   0.02832   0.00000
  57        7PX         0.00281   0.00000   0.00000   0.00000  -0.00156
  58        7PY        -0.00002   0.01073  -0.00166   0.01259   0.00003
  59        7PZ        -0.00001   0.00793   0.00315  -0.01395   0.00000
  60        8D 0        0.00000   0.00014  -0.00084   0.00059   0.00000
  61        8D+1       -0.00003   0.00000   0.00000   0.00000   0.00180
  62        8D-1        0.00000  -0.00021  -0.00171   0.00674   0.00000
  63        8D+2        0.00000   0.00051  -0.00060   0.00187   0.00000
  64        8D-2        0.00060   0.00000   0.00000   0.00000   0.00215
  65        9D 0        0.00000   0.00086  -0.00282   0.00594   0.00000
  66        9D+1       -0.00118   0.00000   0.00000   0.00000   0.00444
  67        9D-1        0.00000   0.00198  -0.00053  -0.00584   0.00001
  68        9D+2        0.00000   0.00112   0.00036  -0.00109   0.00000
  69        9D-2        0.00113   0.00000   0.00000   0.00000   0.00110
  70 3   H  1S         -0.04058  -0.03459   0.02887  -0.00691   0.03571
  71        2S         -0.03994  -0.00401   0.02285   0.08022   0.22547
  72        3S          0.00474   0.02188   0.02040   0.06924   0.14327
  73        4S          0.00095   0.00011   0.00194   0.00730   0.06251
  74        5PX        -0.00244  -0.00193   0.00216  -0.00175  -0.00587
  75        5PY         0.00202   0.00108  -0.00124   0.00101   0.00505
  76        5PZ         0.00015  -0.00268  -0.00321   0.01431  -0.01059
  77        6PX         0.00515   0.00481  -0.00133   0.00856   0.04649
  78        6PY        -0.00081  -0.00286   0.00076  -0.00501  -0.02244
  79        6PZ        -0.00103  -0.00094  -0.01029   0.02814  -0.00474
  80        7PX         0.00803   0.00975  -0.00142   0.01104   0.03760
  81        7PY        -0.00302  -0.00567   0.00080  -0.00646  -0.02263
  82        7PZ         0.00253   0.00814   0.00318  -0.01403   0.00464
  83        8D 0        0.00035   0.00015  -0.00085   0.00061   0.00222
  84        8D+1       -0.00023  -0.00017  -0.00148   0.00582  -0.00252
  85        8D-1        0.00011   0.00010   0.00085  -0.00336   0.00250
  86        8D+2        0.00003  -0.00028   0.00030  -0.00093  -0.00019
  87        8D-2        0.00054   0.00045  -0.00053   0.00161   0.00248
  88        9D 0       -0.00013   0.00082  -0.00283   0.00598  -0.00300
  89        9D+1       -0.00064   0.00178  -0.00047  -0.00512   0.01278
  90        9D-1       -0.00031  -0.00099   0.00029   0.00294  -0.00480
  91        9D+2        0.00095  -0.00055  -0.00018   0.00055   0.00463
  92        9D-2       -0.00053   0.00091   0.00030  -0.00101  -0.00691
  93 4   H  1S          0.04049  -0.03459   0.02887  -0.00691  -0.03573
  94        2S          0.03984  -0.00401   0.02285   0.08022  -0.22560
  95        3S         -0.00473   0.02188   0.02040   0.06924  -0.14334
  96        4S         -0.00095   0.00011   0.00194   0.00730  -0.06255
  97        5PX        -0.00243   0.00193  -0.00216   0.00175  -0.00587
  98        5PY        -0.00202   0.00108  -0.00124   0.00101  -0.00505
  99        5PZ        -0.00015  -0.00268  -0.00321   0.01430   0.01059
 100        6PX         0.00515  -0.00481   0.00132  -0.00855   0.04652
 101        6PY         0.00080  -0.00286   0.00076  -0.00501   0.02245
 102        6PZ         0.00102  -0.00094  -0.01029   0.02814   0.00473
 103        7PX         0.00802  -0.00975   0.00142  -0.01105   0.03762
 104        7PY         0.00300  -0.00567   0.00080  -0.00646   0.02263
 105        7PZ        -0.00252   0.00815   0.00318  -0.01403  -0.00465
 106        8D 0       -0.00035   0.00015  -0.00085   0.00061  -0.00222
 107        8D+1       -0.00023   0.00017   0.00148  -0.00582  -0.00253
 108        8D-1       -0.00011   0.00010   0.00085  -0.00336  -0.00250
 109        8D+2       -0.00004  -0.00028   0.00030  -0.00093   0.00020
 110        8D-2        0.00054  -0.00045   0.00053  -0.00161   0.00248
 111        9D 0        0.00013   0.00082  -0.00283   0.00598   0.00299
 112        9D+1       -0.00064  -0.00178   0.00047   0.00512   0.01279
[...]
  79        6PZ        -0.33284  -0.03680  -0.02134  -0.16070   0.14475
  80        7PX         1.17084  -0.16355  -9.83144  -1.73410   4.72219
  81        7PY         1.08735 -10.26734  -0.45510   0.91152  -4.75332
  82        7PZ        -1.79192   1.40434  -2.87716   0.03883   0.70680
  83        8D 0       -0.03590  -0.01158   0.00998   0.02470  -0.01612
  84        8D+1        0.01135  -0.00620  -0.02954   0.00819  -0.01007
  85        8D-1       -0.00006  -0.03878  -0.00736  -0.00495   0.00907
  86        8D+2        0.04884   0.10079   0.04728   0.02489   0.03023
  87        8D-2       -0.11773   0.03009   0.03622  -0.04227  -0.02324
  88        9D 0       -0.45718  -0.32386   0.41449  -0.14826  -0.23215
  89        9D+1       -0.26360   0.21779  -0.04582  -0.03487   0.18214
  90        9D-1        0.08892   0.26208   0.25143   0.02166  -0.15861
  91        9D+2        0.05139  -1.03510  -1.38213  -0.36505  -0.12785
  92        9D-2        0.42427  -1.33634   0.55825   0.61065  -0.35050
  93 4   H  1S         -0.03421  -0.01085  -0.01003  -0.00944   0.02308
  94        2S         -0.02967   1.73542   3.03690  -0.50047  -1.92712
  95        3S          5.09053  14.98667  24.34415  -3.05296 -22.49113
  96        4S          1.67773  -0.68131  -1.59978  -1.98765  -9.67210
  97        5PX        -0.02638  -0.00265   0.10734  -0.08101  -0.07514
  98        5PY        -0.03260   0.10227   0.00102  -0.04575  -0.07323
  99        5PZ         0.05827   0.01447   0.00961   0.03050   0.00921
 100        6PX        -0.51075  -0.49724  -2.18136   0.60204   0.86540
 101        6PY        -0.05822  -1.73195  -0.41307   0.33528   0.79724
 102        6PZ        -0.33267  -0.03672   0.02185  -0.16090  -0.14511
 103        7PX        -1.16809   0.20144  -9.82992   1.73414   4.72584
 104        7PY         1.08736 -10.26909   0.41607   0.91107   4.75169
 105        7PZ        -1.79249   1.39251   2.88573   0.03829  -0.70872
 106        8D 0       -0.03589  -0.01154  -0.01002   0.02470   0.01613
 107        8D+1       -0.01138   0.00627  -0.02951  -0.00818  -0.01006
 108        8D-1       -0.00010  -0.03880   0.00720  -0.00496  -0.00906
 109        8D+2        0.04891   0.10097  -0.04684   0.02491  -0.03024
 110        8D-2        0.11770  -0.03030   0.03617   0.04225  -0.02325
 111        9D 0       -0.45722  -0.32203  -0.41593  -0.14829   0.23211
 112        9D+1        0.26334  -0.21736  -0.04742   0.03491   0.18237
 113        9D-1        0.08908   0.26269  -0.25052   0.02186   0.15869
 114        9D+2        0.05082  -1.04009   1.37818  -0.36532   0.12746
 115        9D-2       -0.42443   1.33467   0.56277  -0.61044  -0.35043
 116 5   Cl 1S          0.02003   0.00338   0.00001   0.01177   0.00000
 117        2S          0.27707   0.04710   0.00014   0.16377   0.00000
 118        3S          0.77269   0.13051   0.00040   0.46013   0.00000
 119        4S         -0.04142  -0.00816  -0.00003  -0.01475   0.00000
 120        5S         -4.30359  -0.72019  -0.00220  -3.02650  -0.00001
 121        6S         -9.70807  -1.54090  -0.00468 -13.25263  -0.00001
 122        7PX         0.00000   0.00000   0.00083   0.00000  -0.00299
 123        7PY         0.00001   0.00075   0.00000   0.00008   0.00000
 124        7PZ        -0.00456  -0.00056   0.00000  -0.02274   0.00000
 125        8PX        -0.00001  -0.00004   0.01867  -0.00005  -0.05933
 126        8PY        -0.00157   0.01796   0.00003   0.00068  -0.00001
 127        8PZ        -0.06434  -0.00773  -0.00003  -0.31757   0.00001
 128        9PX         0.00000   0.00001  -0.00410   0.00001   0.01006
 129        9PY         0.00005  -0.00373  -0.00001  -0.00037   0.00000
 130        9PZ         0.00197  -0.00037   0.00000   0.07963   0.00000
 131       10PX         0.00104   0.00029  -0.06249   0.00090   0.42303
 132       10PY         0.00661  -0.06789  -0.00013   0.00716   0.00007
 133       10PZ         5.84519   0.95215   0.00291   5.08206  -0.00007
 134       11PX         0.00036   0.00221  -1.14278   0.00059  -0.24999
 135       11PY         0.19125  -1.13907  -0.00213  -0.00250  -0.00004
 136       11PZ         0.78586   0.11100   0.00054   3.36041   0.00004
 137       12D 0        0.06731   0.01116   0.00002   0.00182   0.00000
 138       12D+1        0.00001  -0.00005   0.03076   0.00000  -0.00360
 139       12D-1       -0.00505   0.03037   0.00006   0.00022   0.00000
 140       12D+2        0.00184  -0.00733  -0.00001   0.00002   0.00001
 141       12D-2        0.00000   0.00002  -0.00785   0.00000   0.01207
 142       13D 0       -0.38355  -0.06376  -0.00016  -0.07056  -0.00001
 143       13D+1       -0.00010   0.00019  -0.11345  -0.00002   0.02523
 144       13D-1        0.01833  -0.11144  -0.00021  -0.00117   0.00001
 145       13D+2       -0.00460   0.01668   0.00002  -0.00003  -0.00002
 146       13D-2        0.00000  -0.00006   0.01774   0.00000  -0.04360
 147       14D 0       -1.37787  -0.22267  -0.00077  -1.24212   0.00010
 148       14D+1       -0.00048  -0.00064   0.30296  -0.00038  -0.32400
 149       14D-1       -0.05187   0.30401   0.00058  -0.00341  -0.00009
 150       14D+2        0.01137  -0.06695  -0.00009   0.00021   0.00005
 151       14D-2        0.00000   0.00020  -0.06132   0.00000   0.20150
 152       15F 0       -0.04255  -0.00685  -0.00002   0.00123   0.00001
 153       15F+1       -0.00002  -0.00001   0.00469   0.00000  -0.01834
 154       15F-1       -0.00143   0.00430   0.00001  -0.00032  -0.00001
 155       15F+2        0.00138  -0.01017  -0.00002  -0.00020   0.00000
 156       15F-2        0.00000   0.00002  -0.00908  -0.00001   0.01038
 157       15F+3        0.00000   0.00000   0.00051   0.00001   0.00001
 158       15F-3       -0.00919  -0.00172  -0.00001   0.02294   0.00000
 159       16F 0        0.23066   0.03736   0.00012   0.08905  -0.00003
 160       16F+1        0.00011   0.00003  -0.01471   0.00004   0.06256
 161       16F-1        0.00439  -0.01483  -0.00004   0.00139   0.00002
 162       16F+2       -0.00694   0.04697   0.00010   0.00041  -0.00001
 163       16F-2       -0.00001  -0.00011   0.04424   0.00001  -0.04245
 164       16F+3        0.00001   0.00001  -0.00103  -0.00002  -0.00001
 165       16F-3        0.01910   0.00361   0.00002  -0.04285  -0.00001
 166 6   F  1S          0.03963   0.00681   0.00002  -0.02260   0.00000
 167        2S          0.13940   0.02403   0.00007  -0.08578   0.00000
 168        3S         -0.07106  -0.01213  -0.00004   0.03662   0.00000
 169        4S         -0.37373  -0.06715  -0.00021  -0.02111   0.00000
 170        5S         -0.05907   0.00426   0.00002  -5.93568  -0.00001
 171        6PX         0.00000   0.00001  -0.00731   0.00000   0.00171
 172        6PY         0.00129  -0.00716  -0.00001   0.00000   0.00000
 173        6PZ         0.00533   0.00084   0.00000   0.00222   0.00000
 174        7PX        -0.00002  -0.00007   0.03759   0.00000  -0.00619
 175        7PY        -0.00637   0.03719   0.00007  -0.00023   0.00000
 176        7PZ        -0.06289  -0.01041  -0.00004   0.00265   0.00000
 177        8PX         0.00016   0.00052  -0.26099  -0.00004   0.00130
 178        8PY         0.04202  -0.26195  -0.00049   0.00313   0.00000
 179        8PZ         0.62083   0.10479   0.00037  -0.24702   0.00000
 180        9PX         0.00000   0.00158  -0.83458  -0.00043  -0.23087
 181        9PY         0.13178  -0.83415  -0.00156   0.01072  -0.00004
 182        9PZ        -0.85688  -0.13148  -0.00025  -2.49220   0.00004
 183       10D 0        0.01122   0.00181   0.00001  -0.00797   0.00000
 184       10D+1        0.00001   0.00003  -0.01477   0.00000   0.00214
 185       10D-1        0.00227  -0.01461  -0.00003   0.00007   0.00000
 186       10D+2       -0.00097   0.00456   0.00001   0.00001   0.00000
 187       10D-2        0.00000  -0.00001   0.00520   0.00000   0.00288
 188       11D 0       -0.04150  -0.00674  -0.00004   0.01569   0.00000
 189       11D+1       -0.00002  -0.00009   0.04748   0.00000  -0.00367
 190       11D-1       -0.00729   0.04694   0.00009  -0.00021   0.00000
 191       11D+2        0.00334  -0.01543  -0.00003  -0.00003  -0.00001
 192       11D-2        0.00000   0.00005  -0.01765   0.00000  -0.01021
 193       12D 0        0.41092   0.06947   0.00025  -0.01118   0.00001
 194       12D+1        0.00015   0.00027  -0.13621   0.00000  -0.03224
 195       12D-1        0.02027  -0.13823  -0.00027   0.00147  -0.00001
 196       12D+2       -0.01178   0.05828   0.00011   0.00030   0.00001
 197       12D-2       -0.00001  -0.00017   0.06547   0.00000   0.01959
 198       13F 0       -0.02701  -0.00461  -0.00001  -0.00760   0.00000
 199       13F+1       -0.00001   0.00004  -0.01877   0.00000   0.00807
 200       13F-1        0.00325  -0.01832  -0.00003   0.00027   0.00000
 201       13F+2        0.00148  -0.00890  -0.00003   0.00007   0.00000
 202       13F-2        0.00000   0.00002  -0.00919   0.00000   0.00256
 203       13F+3        0.00001   0.00000  -0.00045   0.00000  -0.00006
 204       13F-3        0.01259   0.00177   0.00000  -0.00138   0.00000
 205       14F 0        0.06722   0.01158   0.00002   0.01182   0.00001
 206       14F+1        0.00002  -0.00008   0.04085   0.00000  -0.01797
 207       14F-1       -0.00707   0.03929   0.00007  -0.00025   0.00000
 208       14F+2       -0.00400   0.02477   0.00007  -0.00005  -0.00001
 209       14F-2        0.00000  -0.00005   0.02542   0.00000  -0.00626
 210       14F+3       -0.00001   0.00000   0.00082   0.00000   0.00007
 211       14F-3       -0.01698  -0.00235   0.00000   0.00261   0.00000
                         211
     Eigenvalues --     0.00000
   1 1   C  1S         -0.00070
   2        2S         -0.00424
   3        3S         -0.00043
   4        4S         -0.05497
   5        5S         -0.05712
   6        6PX         0.00000
   7        6PY        -0.00738
   8        6PZ         0.00004
   9        7PX        -0.00023
  10        7PY         1.53154
  11        7PZ         0.00005
  12        8PX        -0.00267
  13        8PY        17.34992
  14        8PZ        -0.00097
  15        9PX        -0.00123
  16        9PY         7.88592
  17        9PZ        -0.00026
  18       10D 0        0.00009
  19       10D+1        0.00000
  20       10D-1       -0.00165
  21       10D+2        0.02182
  22       10D-2       -0.00001
  23       11D 0        0.00102
  24       11D+1       -0.00004
  25       11D-1       -0.20785
  26       11D+2        0.41320
  27       11D-2       -0.00025
  28       12D 0        0.00111
  29       12D+1        0.00029
  30       12D-1       -1.28035
  31       12D+2       -0.55314
  32       12D-2        0.00007
  33       13F 0       -0.00009
  34       13F+1       -0.00001
  35       13F-1        0.03852
  36       13F+2        0.00923
  37       13F-2        0.00001
  38       13F+3        0.00000
  39       13F-3       -0.00011
  40       14F 0        0.00018
  41       14F+1        0.00008
  42       14F-1       -0.40480
  43       14F+2       -0.07808
  44       14F-2       -0.00007
  45       14F+3       -0.00002
  46       14F-3        0.00084
  47 2   H  1S         -0.02672
  48        2S          2.21951
  49        3S         26.00391
  50        4S         11.18770
  51        5PX        -0.00003
  52        5PY        -0.11716
  53        5PZ        -0.01049
  54        6PX         0.00035
  55        6PY         1.32182
  56        6PZ         0.16657
  57        7PX         0.00208
  58        7PY         7.46457
  59        7PZ         0.81790
  60        8D 0       -0.01909
  61        8D+1        0.00000
  62        8D-1       -0.01566
  63        8D+2       -0.04055
  64        8D-2        0.00000
  65        9D 0       -0.26516
  66        9D+1        0.00003
  67        9D-1        0.27374
  68        9D+2       -0.27581
  69        9D-2        0.00028
  70 3   H  1S          0.01339
  71        2S         -1.10904
  72        3S        -12.96616
  73        4S         -5.58401
  74        5PX         0.07298
  75        5PY         0.00972
  76        5PZ         0.00519
  77        6PX        -0.79292
  78        6PY        -0.05843
  79        6PZ        -0.08315
  80        7PX        -4.73048
  81        7PY        -0.74936
  82        7PZ        -0.41208
  83        8D 0        0.00933
  84        8D+1        0.00924
  85        8D-1        0.00041
  86        8D+2        0.01178
  87        8D-2        0.03013
  88        9D 0        0.13157
  89        9D+1       -0.15872
  90        9D-1       -0.00106
  91        9D+2       -0.49643
  92        9D-2       -0.12900
  93 4   H  1S          0.01337
  94        2S         -1.10798
  95        3S        -12.95355
  96        4S         -5.57854
  97        5PX        -0.07293
  98        5PY         0.00978
  99        5PZ         0.00521
 100        6PX         0.79239
 101        6PY        -0.05908
 102        6PZ        -0.08336
 103        7PX         4.72750
 104        7PY        -0.75323
 105        7PZ        -0.41336
 106        8D 0        0.00932
 107        8D+1       -0.00923
 108        8D-1        0.00042
 109        8D+2        0.01178
 110        8D-2       -0.03012
 111        9D 0        0.13135
 112        9D+1        0.15888
 113        9D-1       -0.00124
 114        9D+2       -0.49638
 115        9D-2        0.12945
 116 5   Cl 1S          0.00000
 117        2S         -0.00008
 118        3S         -0.00011
 119        4S          0.00012
 120        5S         -0.00055
 121        6S          0.00600
 122        7PX         0.00000
 123        7PY        -0.00296
 124        7PZ         0.00002
 125        8PX         0.00001
 126        8PY        -0.05914
 127        8PZ         0.00019
 128        9PX         0.00000
 129        9PY         0.00994
 130        9PZ        -0.00008
 131       10PX        -0.00006
 132       10PY         0.42149
 133       10PZ        -0.00023
 134       11PX         0.00004
 135       11PY        -0.24787
 136       11PZ        -0.00433
 137       12D 0        0.00007
 138       12D+1        0.00000
 139       12D-1       -0.00363
 140       12D+2        0.01224
 141       12D-2       -0.00001
 142       13D 0       -0.00020
 143       13D+1        0.00000
 144       13D-1        0.02547
 145       13D+2       -0.04412
 146       13D-2        0.00003
 147       14D 0        0.00062
 148       14D+1        0.00001
 149       14D-1       -0.32455
 150       14D+2        0.20188
 151       14D-2       -0.00017
 152       15F 0       -0.00003
 153       15F+1        0.00000
 154       15F-1       -0.01856
 155       15F+2        0.01034
 156       15F-2       -0.00001
 157       15F+3        0.00000
 158       15F-3       -0.00004
 159       16F 0       -0.00007
 160       16F+1        0.00000
 161       16F-1        0.06310
 162       16F+2       -0.04241
 163       16F-2        0.00004
 164       16F+3       -0.00001
 165       16F-3        0.00006
 166 6   F  1S          0.00014
 167        2S          0.00057
 168        3S         -0.00016
 169        4S         -0.00187
 170        5S          0.00177
 171        6PX         0.00000
 172        6PY         0.00169
 173        6PZ        -0.00001
 174        7PX         0.00000
 175        7PY        -0.00606
 176        7PZ         0.00005
 177        8PX         0.00000
 178        8PY         0.00107
 179        8PZ        -0.00119
 180        9PX         0.00004
 181        9PY        -0.22995
 182        9PZ         0.00059
 183       10D 0        0.00001
 184       10D+1        0.00000
 185       10D-1        0.00224
 186       10D+2        0.00281
 187       10D-2        0.00000
 188       11D 0        0.00003
 189       11D+1        0.00000
 190       11D-1       -0.00390
 191       11D+2       -0.00996
 192       11D-2        0.00000
 193       12D 0       -0.00050
 194       12D+1        0.00000
 195       12D-1       -0.03120
 196       12D+2        0.01858
 197       12D-2       -0.00002
 198       13F 0        0.00010
 199       13F+1        0.00000
 200       13F-1        0.00805
 201       13F+2        0.00277
 202       13F-2        0.00000
 203       13F+3        0.00000
 204       13F-3        0.00005
 205       14F 0       -0.00015
 206       14F+1        0.00000
 207       14F-1       -0.01776
 208       14F+2       -0.00661
 209       14F-2        0.00000
 210       14F+3        0.00000
 211       14F-3       -0.00003
          Condensed to atoms (all electrons):
              1          2          3          4          5          6
     1  C    7.012180  -0.009684  -0.009051  -0.009051  -0.050901  -0.099832
     2  H   -0.009684   0.547364   0.020080   0.020081  -0.018525   0.004909
     3  H   -0.009051   0.020080   0.546927   0.020058  -0.018847   0.004047
     4  H   -0.009051   0.020081   0.020058   0.546926  -0.018848   0.004046
     5  Cl  -0.050901  -0.018525  -0.018847  -0.018848  17.709241   0.026400
     6  F   -0.099832   0.004909   0.004047   0.004046   0.026400   9.907601
 Mulliken atomic charges:
              1
     1  C   -0.833660
     2  H    0.435775
     3  H    0.436786
     4  H    0.436789
     5  Cl  -0.628520
     6  F   -0.847170
 Sum of Mulliken atomic charges =  -1.00000
 Mulliken charges with hydrogens summed into heavy atoms:
              1
     1  C    0.475690
     5  Cl  -0.628520
     6  F   -0.847170
 Sum of Mulliken charges with hydrogens summed into heavy atoms =  -1.00000
 Electronic spatial extent (au):  <R**2>=            490.3160
 Charge=             -1.0000 electrons
 Dipole moment (field-independent basis, Debye):
    X=             -0.0006    Y=             -0.0341    Z=              4.0662  Tot=              4.0664
 Quadrupole moment (field-independent basis, Debye-Ang):
   XX=            -28.1811   YY=            -28.1820   ZZ=            -62.8202
   XY=              0.0000   XZ=             -0.0050   YZ=              0.0873
 Traceless Quadrupole moment (field-independent basis, Debye-Ang):
   XX=             11.5467   YY=             11.5458   ZZ=            -23.0925
   XY=              0.0000   XZ=             -0.0050   YZ=              0.0873
 Octapole moment (field-independent basis, Debye-Ang**2):
  XXX=             -0.0244  YYY=             -1.1726  ZZZ=             49.6880  XYY=             -0.0086
  XXY=              0.8746  XXZ=             -4.2373  XZZ=             -0.0066  YZZ=             -0.3122
  YYZ=             -4.2337  XYZ=             -0.0002
 Hexadecapole moment (field-independent basis, Debye-Ang**3):
 XXXX=            -41.2681 YYYY=            -41.2741 ZZZZ=           -761.6391 XXXY=              0.0004
 XXXZ=             -0.0507 YYYX=             -0.0001 YYYZ=              1.0557 ZZZX=             -0.0657
 ZZZY=              1.0291 XXYY=            -13.7557 XXZZ=           -103.3843 YYZZ=           -103.3895
 XXYZ=             -0.4968 YYXZ=             -0.0166 ZZXY=              0.0003
 N-N= 8.498419803616D+01 E-N=-1.604180398514D+03  KE= 5.991954552239D+02
 1\1\GINC-TRAPISTA\SP\RQCISD-FC\Aug-CC-pVTZ\C1H3Cl1F1(1-)\BRUNS\10-Aug-
 2021\0\\# QCISD aug-cc-pvtz nosymm density=current output=wfn\\title l
 ine\\-1,1\C,0,0.000175,0.000029,-0.497709\H,0,0.000019,-1.05257,-0.620
 726\H,0,-0.911312,0.526365,-0.621245\H,0,0.91175,0.526132,-0.62157\Cl,
 0,0.000555,0.000962,1.644718\F,0,-0.000186,0.009079,-2.59346\\Version=
 EM64L-G09RevB.01\HF=-598.617123\MP2=-599.2912658\MP3=-599.3099668\MP4D
 =-599.3248572\MP4DQ=-599.3104183\MP4SDQ=-599.3197845\QCISD=-599.319166
 6\RMSD=9.412e-09\Dipole=0.0002718,-0.0081149,1.5873156\Quadrupole=8.58
 46669,8.5840114,-17.1686783,0.000004,-0.0036923,0.0649054\PG=C01 [X(C1
 H3Cl1F1)]\\@

 Writing a WFN file to GAUSSIAN+YF_6.wfn.


 THE ONLY DIFFERENCE BETWEEN ECCENTRICS AND JOGGERS
 IS THAT JOGGERS WEAR SWEATBANDS WHEN THEY RUN IN THE RAIN.
 Job cpu time:  0 days  6 hours 59 minutes 47.5 seconds.
 File lengths (MBytes):  RWF=  29002 Int=      0 D2E=      0 Chk=      4 Scr=      1
 Normal termination of Gaussian 09 at Tue Aug 10 19:56:10 2021.
