 title line
GAUSSIAN            211 MOL ORBITALS    339 PRIMITIVES        6 NUCLEI
  C    1    (CENTRE  1)   0.00033070  0.00005480 -0.94053370  CHARGE =  6.0
  H    2    (CENTRE  2)   0.00003590 -1.97017177 -1.17300214  CHARGE =  1.0
  H    3    (CENTRE  3)  -1.72213010  0.99468570 -1.17398291  CHARGE =  1.0
  H    4    (CENTRE  4)   1.72295780  0.99424539 -1.17459707  CHARGE =  1.0
  Cl   5    (CENTRE  5)   0.00104880  0.00181792  3.10806659  CHARGE = 17.0
  F    6    (CENTRE  6)  -0.00035149 -0.00174044 -4.90092914  CHARGE =  9.0
CENTRE ASSIGNMENTS    1  1  1  1  1  1  1  1  1  1  1  1  1  1  1  1  1  1  1  1
CENTRE ASSIGNMENTS    1  1  1  1  1  1  1  1  1  1  1  1  1  1  1  1  1  1  1  1
CENTRE ASSIGNMENTS    1  1  1  1  1  1  1  1  1  1  1  1  1  1  1  1  1  1  1  1
CENTRE ASSIGNMENTS    1  1  1  1  1  1  1  1  1  1  1  1  2  2  2  2  2  2  2  2
CENTRE ASSIGNMENTS    2  2  2  2  2  2  2  2  2  2  2  2  2  2  2  2  2  2  2  3
CENTRE ASSIGNMENTS    3  3  3  3  3  3  3  3  3  3  3  3  3  3  3  3  3  3  3  3
CENTRE ASSIGNMENTS    3  3  3  3  3  3  4  4  4  4  4  4  4  4  4  4  4  4  4  4
CENTRE ASSIGNMENTS    4  4  4  4  4  4  4  4  4  4  4  4  4  5  5  5  5  5  5  5
CENTRE ASSIGNMENTS    5  5  5  5  5  5  5  5  5  5  5  5  5  5  5  5  5  5  5  5
CENTRE ASSIGNMENTS    5  5  5  5  5  5  5  5  5  5  5  5  5  5  5  5  5  5  5  5
CENTRE ASSIGNMENTS    5  5  5  5  5  5  5  5  5  5  5  5  5  5  5  5  5  5  5  5
CENTRE ASSIGNMENTS    5  5  5  5  5  5  5  5  5  5  5  5  5  5  5  5  5  5  5  5
CENTRE ASSIGNMENTS    5  5  5  5  5  5  5  5  5  5  5  5  5  5  5  5  5  5  5  5
CENTRE ASSIGNMENTS    5  5  5  5  5  5  5  6  6  6  6  6  6  6  6  6  6  6  6  6
CENTRE ASSIGNMENTS    6  6  6  6  6  6  6  6  6  6  6  6  6  6  6  6  6  6  6  6
CENTRE ASSIGNMENTS    6  6  6  6  6  6  6  6  6  6  6  6  6  6  6  6  6  6  6  6
CENTRE ASSIGNMENTS    6  6  6  6  6  6  6  6  6  6  6  6  6  6  6  6  6  6  6
TYPE ASSIGNMENTS      1  1  1  1  1  1  1  1  1  1  1  1  1  1  1  1  2  2  2  3
TYPE ASSIGNMENTS      3  3  4  4  4  2  3  4  2  3  4  2  3  4  5  6  7  8  9 10
TYPE ASSIGNMENTS      5  6  7  8  9 10  5  6  7  8  9 10 11 12 13 17 14 15 18 19
TYPE ASSIGNMENTS     16 20 11 12 13 17 14 15 18 19 16 20  1  1  1  1  1  1  2  3
TYPE ASSIGNMENTS      4  2  3  4  2  3  4  5  6  7  8  9 10  5  6  7  8  9 10  1
TYPE ASSIGNMENTS      1  1  1  1  1  2  3  4  2  3  4  2  3  4  5  6  7  8  9 10
TYPE ASSIGNMENTS      5  6  7  8  9 10  1  1  1  1  1  1  2  3  4  2  3  4  2  3
TYPE ASSIGNMENTS      4  5  6  7  8  9 10  5  6  7  8  9 10  1  1  1  1  1  1  1
TYPE ASSIGNMENTS      1  1  1  1  1  1  1  1  1  1  1  1  1  1  1  1  1  1  1  1
TYPE ASSIGNMENTS      1  1  1  1  2  2  2  2  2  2  3  3  3  3  3  3  4  4  4  4
TYPE ASSIGNMENTS      4  4  2  2  2  2  2  2  3  3  3  3  3  3  4  4  4  4  4  4
TYPE ASSIGNMENTS      2  3  4  2  3  4  2  3  4  5  6  7  8  9 10  5  6  7  8  9
TYPE ASSIGNMENTS     10  5  6  7  8  9 10 11 12 13 17 14 15 18 19 16 20 11 12 13
TYPE ASSIGNMENTS     17 14 15 18 19 16 20  1  1  1  1  1  1  1  1  1  1  1  1  1
TYPE ASSIGNMENTS      1  1  1  2  2  2  3  3  3  4  4  4  2  3  4  2  3  4  2  3
TYPE ASSIGNMENTS      4  5  6  7  8  9 10  5  6  7  8  9 10  5  6  7  8  9 10 11
TYPE ASSIGNMENTS     12 13 17 14 15 18 19 16 20 11 12 13 17 14 15 18 19 16 20
EXPONENTS  0.8236000D+04 0.1235000D+04 0.2808000D+03 0.7927000D+02 0.2559000D+02
EXPONENTS  0.8997000D+01 0.3319000D+01 0.2808000D+03 0.7927000D+02 0.2559000D+02
EXPONENTS  0.8997000D+01 0.3319000D+01 0.3643000D+00 0.9059000D+00 0.1285000D+00
EXPONENTS  0.4402000D-01 0.1871000D+02 0.4133000D+01 0.1200000D+01 0.1871000D+02
EXPONENTS  0.4133000D+01 0.1200000D+01 0.1871000D+02 0.4133000D+01 0.1200000D+01
EXPONENTS  0.3827000D+00 0.3827000D+00 0.3827000D+00 0.1209000D+00 0.1209000D+00
EXPONENTS  0.1209000D+00 0.3569000D-01 0.3569000D-01 0.3569000D-01 0.1097000D+01
EXPONENTS  0.1097000D+01 0.1097000D+01 0.1097000D+01 0.1097000D+01 0.1097000D+01
EXPONENTS  0.3180000D+00 0.3180000D+00 0.3180000D+00 0.3180000D+00 0.3180000D+00
EXPONENTS  0.3180000D+00 0.1000000D+00 0.1000000D+00 0.1000000D+00 0.1000000D+00
EXPONENTS  0.1000000D+00 0.1000000D+00 0.7610000D+00 0.7610000D+00 0.7610000D+00
EXPONENTS  0.7610000D+00 0.7610000D+00 0.7610000D+00 0.7610000D+00 0.7610000D+00
EXPONENTS  0.7610000D+00 0.7610000D+00 0.2680000D+00 0.2680000D+00 0.2680000D+00
EXPONENTS  0.2680000D+00 0.2680000D+00 0.2680000D+00 0.2680000D+00 0.2680000D+00
EXPONENTS  0.2680000D+00 0.2680000D+00 0.3387000D+02 0.5095000D+01 0.1159000D+01
EXPONENTS  0.3258000D+00 0.1027000D+00 0.2526000D-01 0.1407000D+01 0.1407000D+01
EXPONENTS  0.1407000D+01 0.3880000D+00 0.3880000D+00 0.3880000D+00 0.1020000D+00
EXPONENTS  0.1020000D+00 0.1020000D+00 0.1057000D+01 0.1057000D+01 0.1057000D+01
EXPONENTS  0.1057000D+01 0.1057000D+01 0.1057000D+01 0.2470000D+00 0.2470000D+00
EXPONENTS  0.2470000D+00 0.2470000D+00 0.2470000D+00 0.2470000D+00 0.3387000D+02
EXPONENTS  0.5095000D+01 0.1159000D+01 0.3258000D+00 0.1027000D+00 0.2526000D-01
EXPONENTS  0.1407000D+01 0.1407000D+01 0.1407000D+01 0.3880000D+00 0.3880000D+00
EXPONENTS  0.3880000D+00 0.1020000D+00 0.1020000D+00 0.1020000D+00 0.1057000D+01
EXPONENTS  0.1057000D+01 0.1057000D+01 0.1057000D+01 0.1057000D+01 0.1057000D+01
EXPONENTS  0.2470000D+00 0.2470000D+00 0.2470000D+00 0.2470000D+00 0.2470000D+00
EXPONENTS  0.2470000D+00 0.3387000D+02 0.5095000D+01 0.1159000D+01 0.3258000D+00
EXPONENTS  0.1027000D+00 0.2526000D-01 0.1407000D+01 0.1407000D+01 0.1407000D+01
EXPONENTS  0.3880000D+00 0.3880000D+00 0.3880000D+00 0.1020000D+00 0.1020000D+00
EXPONENTS  0.1020000D+00 0.1057000D+01 0.1057000D+01 0.1057000D+01 0.1057000D+01
EXPONENTS  0.1057000D+01 0.1057000D+01 0.2470000D+00 0.2470000D+00 0.2470000D+00
EXPONENTS  0.2470000D+00 0.2470000D+00 0.2470000D+00 0.4561000D+06 0.6833000D+05
EXPONENTS  0.1555000D+05 0.4405000D+04 0.1439000D+04 0.5204000D+03 0.2031000D+03
EXPONENTS  0.8396000D+02 0.3620000D+02 0.1583000D+02 0.6334000D+01 0.4405000D+04
EXPONENTS  0.1439000D+04 0.5204000D+03 0.2031000D+03 0.8396000D+02 0.3620000D+02
EXPONENTS  0.1583000D+02 0.6334000D+01 0.2694000D+01 0.1439000D+04 0.2031000D+03
EXPONENTS  0.8396000D+02 0.3620000D+02 0.1583000D+02 0.6334000D+01 0.2694000D+01
EXPONENTS  0.4313000D+00 0.9768000D+00 0.1625000D+00 0.5910000D-01 0.6633000D+03
EXPONENTS  0.1568000D+03 0.4998000D+02 0.1842000D+02 0.7240000D+01 0.2922000D+01
EXPONENTS  0.6633000D+03 0.1568000D+03 0.4998000D+02 0.1842000D+02 0.7240000D+01
EXPONENTS  0.2922000D+01 0.6633000D+03 0.1568000D+03 0.4998000D+02 0.1842000D+02
EXPONENTS  0.7240000D+01 0.2922000D+01 0.1568000D+03 0.4998000D+02 0.1842000D+02
EXPONENTS  0.7240000D+01 0.2922000D+01 0.3818000D+00 0.1568000D+03 0.4998000D+02
EXPONENTS  0.1842000D+02 0.7240000D+01 0.2922000D+01 0.3818000D+00 0.1568000D+03
EXPONENTS  0.4998000D+02 0.1842000D+02 0.7240000D+01 0.2922000D+01 0.3818000D+00
EXPONENTS  0.1022000D+01 0.1022000D+01 0.1022000D+01 0.1301000D+00 0.1301000D+00
EXPONENTS  0.1301000D+00 0.4190000D-01 0.4190000D-01 0.4190000D-01 0.1046000D+01
EXPONENTS  0.1046000D+01 0.1046000D+01 0.1046000D+01 0.1046000D+01 0.1046000D+01
EXPONENTS  0.3440000D+00 0.3440000D+00 0.3440000D+00 0.3440000D+00 0.3440000D+00
EXPONENTS  0.3440000D+00 0.1350000D+00 0.1350000D+00 0.1350000D+00 0.1350000D+00
EXPONENTS  0.1350000D+00 0.1350000D+00 0.7060000D+00 0.7060000D+00 0.7060000D+00
EXPONENTS  0.7060000D+00 0.7060000D+00 0.7060000D+00 0.7060000D+00 0.7060000D+00
EXPONENTS  0.7060000D+00 0.7060000D+00 0.3120000D+00 0.3120000D+00 0.3120000D+00
EXPONENTS  0.3120000D+00 0.3120000D+00 0.3120000D+00 0.3120000D+00 0.3120000D+00
EXPONENTS  0.3120000D+00 0.3120000D+00 0.1950000D+05 0.2923000D+04 0.6645000D+03
EXPONENTS  0.1875000D+03 0.6062000D+02 0.2142000D+02 0.7950000D+01 0.6645000D+03
EXPONENTS  0.1875000D+03 0.6062000D+02 0.2142000D+02 0.7950000D+01 0.8815000D+00
EXPONENTS  0.2257000D+01 0.3041000D+00 0.9158000D-01 0.4388000D+02 0.9926000D+01
EXPONENTS  0.2930000D+01 0.4388000D+02 0.9926000D+01 0.2930000D+01 0.4388000D+02
EXPONENTS  0.9926000D+01 0.2930000D+01 0.9132000D+00 0.9132000D+00 0.9132000D+00
EXPONENTS  0.2672000D+00 0.2672000D+00 0.2672000D+00 0.7361000D-01 0.7361000D-01
EXPONENTS  0.7361000D-01 0.3107000D+01 0.3107000D+01 0.3107000D+01 0.3107000D+01
EXPONENTS  0.3107000D+01 0.3107000D+01 0.8550000D+00 0.8550000D+00 0.8550000D+00
EXPONENTS  0.8550000D+00 0.8550000D+00 0.8550000D+00 0.2920000D+00 0.2920000D+00
EXPONENTS  0.2920000D+00 0.2920000D+00 0.2920000D+00 0.2920000D+00 0.1917000D+01
EXPONENTS  0.1917000D+01 0.1917000D+01 0.1917000D+01 0.1917000D+01 0.1917000D+01
EXPONENTS  0.1917000D+01 0.1917000D+01 0.1917000D+01 0.1917000D+01 0.7240000D+00
EXPONENTS  0.7240000D+00 0.7240000D+00 0.7240000D+00 0.7240000D+00 0.7240000D+00
EXPONENTS  0.7240000D+00 0.7240000D+00 0.7240000D+00 0.7240000D+00
MO    1     MO 0.0        OCC NO =    2.0000300  ORB. ENERGY =    0.000000
  0.19690738D-08  0.36707502D-08  0.62040679D-08  0.93258712D-08  0.11455162D-07
  0.96677529D-08  0.36353276D-08 -0.51000950D-11 -0.38120050D-10 -0.14246333D-09
 -0.39745051D-09 -0.53247411D-09  0.62875263D-09  0.10536069D-08  0.47610354D-08
  0.21647993D-08  0.11108301D-03  0.10414738D-03  0.74159142D-04 -0.33566433D-07
 -0.31470665D-07 -0.22408988D-07 -0.21884963D-07 -0.20518544D-07 -0.14610426D-07
  0.36313626D-03 -0.10989933D-06 -0.60935403D-07  0.46388706D-03 -0.13971927D-06
 -0.85740564D-07  0.93373128D-05 -0.28779753D-08 -0.16881965D-08 -0.84687993D-07
 -0.41354035D-08  0.88823396D-07  0.12907382D-03 -0.50909540D-03  0.12875734D-06
  0.33602716D-07 -0.16240011D-07 -0.17362705D-07  0.39169819D-03  0.97373842D-04
 -0.98581196D-07 -0.83641927D-08 -0.36931367D-08  0.12057329D-07  0.82767988D-04
 -0.66402077D-04  0.54162497D-08  0.93472925D-04 -0.27987309D-07  0.66318199D-07
  0.91115158D-04 -0.19899791D-07 -0.18034530D-06 -0.37153393D-03  0.10386172D-06
 -0.18609297D-07  0.46789719D-04 -0.26594168D-04  0.83230013D-08 -0.19656190D-07
 -0.27585978D-04  0.25997811D-07  0.57386526D-07  0.10736848D-03 -0.50966815D-07
  0.15820435D-08  0.10273754D-03  0.69348596D-08  0.12507305D-07  0.18442014D-07
 -0.67113751D-07 -0.19601947D-06  0.18084320D-08  0.33976238D-05 -0.13932659D-07
 -0.51369517D-08  0.88048818D-04 -0.62096406D-07 -0.63469239D-07  0.77199751D-04
 -0.39206390D-07 -0.17344172D-07  0.15320804D-07 -0.11364141D-07 -0.39566623D-08
  0.31282212D-04 -0.47322148D-04 -0.50089827D-07  0.22434971D-07 -0.14462540D-08
 -0.20988717D-07  0.29624143D-04  0.63153796D-04 -0.19190793D-07 -0.34724167D-04
 -0.62626465D-04 -0.92342686D-04  0.32047531D-03  0.97825904D-03 -0.10477656D-04
  0.55222549D-04 -0.29133056D-04  0.20250788D-04  0.23779052D-03 -0.90196994D-04
  0.23617723D-03  0.14866196D-03 -0.42199234D-04  0.19251617D-04  0.10193840D-04
 -0.69017914D-04  0.58824074D-04 -0.10799196D-03  0.21164246D-03 -0.14919755D-03
 -0.11004054D-04 -0.37163915D-04  0.48167969D-04 -0.16414529D-04  0.39021369D-04
  0.13249447D-04  0.34717419D-04  0.62614296D-04  0.92324742D-04 -0.32041435D-03
 -0.97806633D-03  0.10475561D-04  0.55213341D-04  0.29111760D-04 -0.20265666D-04
  0.23769851D-03  0.90090325D-04 -0.23621753D-03  0.14865072D-03  0.42127141D-04
 -0.19301151D-04 -0.10148487D-04  0.69036586D-04 -0.58888099D-04 -0.10787129D-03
  0.21159603D-03  0.14916807D-03  0.11006807D-04  0.37165732D-04 -0.48172539D-04
 -0.16396503D-04  0.38981386D-04 -0.13272023D-04 -0.30546384D-07 -0.57149025D-07
 -0.98740839D-07 -0.16007050D-06 -0.24308242D-06 -0.33786169D-06 -0.40169166D-06
 -0.35784089D-06 -0.17771135D-06 -0.28610024D-07 -0.30185265D-09 -0.14274321D-09
 -0.47616746D-08 -0.16593483D-07 -0.59755818D-07 -0.13172427D-06 -0.18542525D-06
  0.88453888D-08  0.24266114D-06  0.14348401D-06 -0.35525673D-11 -0.43030265D-10
 -0.89735081D-10 -0.25734459D-09 -0.13363546D-10  0.11097947D-08  0.28674963D-08
 -0.23363010D-08  0.84605478D-08  0.97101517D-09 -0.27157213D-09  0.11610750D+02
  0.15294073D+02  0.16871757D+02  0.14013315D+02  0.74414592D+01  0.19199354D+01
 -0.34720487D-02 -0.45735003D-02 -0.50452868D-02 -0.41905057D-02 -0.22252748D-02
 -0.57413253D-03 -0.20592145D-02 -0.27124672D-02 -0.29922759D-02 -0.24853194D-02
 -0.13197736D-02 -0.34050848D-03 -0.45957615D-03  0.44428865D-02  0.62649337D-02
  0.89605125D-02 -0.45374774D-04 -0.82176351D-02  0.13745197D-06 -0.13287972D-05
 -0.18737427D-05 -0.26799478D-05  0.13570878D-07  0.24577649D-05  0.81416315D-07
 -0.78708054D-06 -0.11098657D-05 -0.15874016D-05  0.80383782D-08  0.14557970D-05
  0.76651401D-01 -0.22922116D-04 -0.13592972D-04 -0.64357611D-03  0.19235839D-06
  0.11349969D-06 -0.57932240D-04  0.17327598D-07  0.10318668D-07 -0.17339145D-06
 -0.74938991D-09  0.17414084D-06  0.23806857D-04 -0.98216148D-03  0.29009626D-06
  0.62717903D-07  0.56349156D-10 -0.62774253D-07 -0.85382974D-05  0.35673608D-03
 -0.10561426D-06 -0.10761668D-07 -0.17709173D-09  0.10938759D-07  0.24671255D-05
 -0.61121332D-04  0.17882831D-07  0.23178627D-05 -0.77594224D-09  0.15597207D-08
  0.24220664D-05  0.11891130D-07 -0.13773176D-08 -0.93756544D-05 -0.95633033D-08
 -0.33018444D-08  0.69873592D-04  0.14717271D-04 -0.44172250D-08  0.10379581D-07
  0.14691311D-04 -0.70115931D-08 -0.29265728D-07 -0.58843126D-04  0.20263268D-07
 -0.18730151D-08 -0.14167915D-04  0.45287113D-08  0.84415257D-08  0.14310267D-07
  0.21667679D-07  0.27089371D-07  0.23301717D-07  0.89367100D-08 -0.10871820D-10
 -0.14392254D-09 -0.52275284D-09 -0.15507365D-08 -0.17869105D-08  0.21704690D-08
  0.11615403D-09 -0.35058751D-08 -0.36414603D-08 -0.29107142D-03 -0.28466149D-03
 -0.18808788D-03  0.86480096D-07  0.84575645D-07  0.55882705D-07  0.48468712D-07
  0.47401342D-07  0.31320071D-07 -0.87378812D-05  0.11815682D-08  0.35853530D-08
 -0.66784579D-04  0.20932153D-07  0.73018614D-08 -0.19586172D-04  0.58920861D-08
  0.29760816D-08 -0.17538770D-07 -0.69047974D-08  0.24443567D-07  0.14181184D-03
 -0.13181168D-03  0.15378504D-07  0.14753682D-07  0.33741136D-08 -0.18127795D-07
 -0.71125977D-04  0.10155334D-03 -0.18495996D-07 -0.10725919D-07 -0.11902077D-08
  0.11916127D-07  0.36001936D-04 -0.73984490D-04  0.16756334D-07 -0.71101592D-04
  0.22551424D-07 -0.48152943D-07 -0.72354106D-04 -0.43911342D-07  0.11673113D-06
  0.28565888D-03 -0.23742929D-07  0.27727697D-07 -0.37625551D-03  0.25270020D-04
 -0.80218292D-08  0.16883138D-07  0.25656815D-04  0.13118617D-07 -0.41734167D-07
 -0.10146688D-03  0.10946871D-07 -0.89152467D-08  0.11946125D-03
MO    2     MO 0.0        OCC NO =    2.0000300  ORB. ENERGY =    0.000000
  0.14329494D-04  0.26713063D-04  0.45148716D-04  0.67866941D-04  0.83362381D-04
  0.70354909D-04  0.26455283D-04  0.19131576D-07  0.14299668D-06  0.53441124D-06
  0.14909241D-05  0.19974273D-05 -0.23585892D-05 -0.84664972D-06 -0.23837140D-04
 -0.53692636D-06  0.33580241D-07  0.31483610D-07  0.22418206D-07  0.11349560D-03
  0.10640934D-03  0.75769787D-04 -0.11528094D-06 -0.10808321D-06 -0.76961686D-07
  0.11048511D-06  0.37625894D-03 -0.46040024D-05  0.13974901D-06  0.46970156D-03
  0.15746486D-05  0.26985743D-08  0.93015373D-05  0.13549622D-07  0.66184880D-04
 -0.66804331D-04  0.61945092D-06 -0.10210824D-06 -0.17539193D-06 -0.50668334D-03
  0.19625909D-03 -0.19691811D-03  0.65902661D-06 -0.15404037D-07 -0.39088759D-07
  0.10127336D-03  0.41167725D-04 -0.41239244D-04  0.71518338D-07 -0.18530485D-07
 -0.34179017D-07 -0.66335163D-04  0.32115294D-07  0.93064022D-04  0.10845606D-05
  0.22533986D-07  0.93148392D-04  0.25853309D-04 -0.11887987D-06 -0.37234046D-03
 -0.29106991D-04 -0.17006429D-06  0.78516610D-09 -0.26566496D-04  0.21609902D-06
 -0.16086600D-07 -0.27852231D-04  0.50479189D-04  0.13731102D-07  0.10755172D-03
 -0.51127486D-04  0.39317662D-07 -0.39277269D-04 -0.70838172D-04 -0.10445084D-03
  0.38741471D-03  0.11522931D-02 -0.12124819D-04  0.14919407D-07  0.75573335D-04
  0.26702515D-04  0.10173973D-06  0.29292538D-03  0.27866136D-03  0.40078411D-07
  0.17495266D-03  0.22382933D-04 -0.11015056D-03  0.40187879D-04  0.69962683D-04
  0.97715929D-07  0.94374842D-07  0.30216767D-03 -0.43990096D-04 -0.12424010D-04
  0.56414106D-04  0.18854557D-07  0.50253492D-07  0.31644874D-04  0.20063919D-04
  0.36186104D-04  0.53356389D-04 -0.18296870D-03 -0.56732289D-03  0.61174147D-05
 -0.29131089D-04  0.21178287D-04 -0.11845789D-04 -0.90604258D-04  0.13615011D-03
 -0.13624959D-03 -0.42734901D-04  0.10056078D-03 -0.11298504D-04  0.84879678D-05
  0.24726215D-04 -0.33214183D-04  0.80366894D-04 -0.14969428D-03  0.39627892D-04
  0.20703021D-04  0.68502169D-05 -0.27553238D-04  0.26752972D-04  0.12996056D-04
  0.54029615D-04  0.20075654D-04  0.36207269D-04  0.53387597D-04 -0.18307882D-03
 -0.56766081D-03  0.61213112D-05  0.29150820D-04  0.21180911D-04 -0.11862735D-04
  0.90672447D-04  0.13615621D-03 -0.13636412D-03  0.42807949D-04  0.10056467D-03
 -0.11320879D-04  0.85168460D-05  0.24770390D-04 -0.33287236D-04 -0.80379413D-04
  0.14974834D-03  0.39671477D-04  0.20695306D-04  0.68697948D-05 -0.27565101D-04
 -0.26746669D-04 -0.13003265D-04  0.54038069D-04 -0.58216053D-04 -0.10891602D-03
 -0.18818273D-03 -0.30506632D-03 -0.46327248D-03 -0.64390516D-03 -0.76555389D-03
 -0.68198201D-03 -0.33868669D-03 -0.54525691D-04 -0.57527825D-06 -0.27349281D-06
 -0.91232623D-05 -0.31792743D-04 -0.11449081D-03 -0.25238075D-03 -0.35527064D-03
  0.16947567D-04  0.46493333D-03  0.27491217D-03 -0.51559517D-08 -0.62451166D-07
 -0.13023532D-06 -0.37349223D-06 -0.19394932D-07  0.16106796D-05  0.41616869D-05
 -0.33907466D-05  0.17043832D-04 -0.23469612D-05  0.34522898D-07  0.34703197D-02
  0.45712228D-02  0.50427743D-02  0.41884189D-02  0.22241667D-02  0.57384663D-03
  0.11610734D+02  0.15294053D+02  0.16871735D+02  0.14013297D+02  0.74414494D+01
  0.19199328D+01 -0.97276817D-02 -0.12813632D-01 -0.14135442D-01 -0.11740592D-01
 -0.62345800D-02 -0.16085542D-02 -0.13732459D-06  0.13275658D-05  0.18720063D-05
  0.26774643D-05 -0.13558302D-07 -0.24554873D-05 -0.45954262D-03  0.44425624D-02
  0.62644767D-02  0.89598589D-02 -0.45371464D-04 -0.82170357D-02  0.41953492D-06
 -0.40557937D-05 -0.57190925D-05 -0.81798151D-05  0.41421432D-07  0.75016619D-05
  0.22910172D-04  0.76653281D-01 -0.65147734D-04 -0.19233163D-06 -0.64338319D-03
  0.88034098D-06 -0.17308544D-07 -0.57918007D-04  0.41349972D-07  0.12268505D-04
 -0.13437140D-04  0.11686344D-05 -0.17668363D-06 -0.29682385D-06 -0.98149759D-03
 -0.41958192D-05  0.47074364D-05 -0.51161721D-06  0.64150776D-07  0.10757118D-06
  0.35687068D-03  0.12238099D-05 -0.12612267D-05  0.37416793D-07 -0.10991267D-07
 -0.18640245D-07 -0.61064729D-04  0.68369493D-08  0.24290747D-05  0.59932961D-07
 -0.54550421D-08  0.21291466D-05  0.34658315D-04 -0.15055806D-07 -0.94163706D-05
 -0.34838114D-04 -0.97559768D-08  0.31169683D-08  0.14713722D-04  0.53745058D-07
  0.55852220D-08  0.14812220D-04 -0.70700449D-05 -0.14936127D-07 -0.58953385D-04
  0.69088098D-05 -0.25093774D-07  0.23519087D-05  0.43839619D-05  0.74317921D-05
  0.11252738D-04  0.14068401D-04  0.12101348D-04  0.46411274D-05  0.16292598D-08
  0.21568349D-07  0.78340168D-07  0.23239463D-06  0.26778787D-06 -0.32526826D-06
  0.28819925D-06  0.46433831D-06 -0.16281855D-06 -0.87101606D-07 -0.85183468D-07
 -0.56284319D-07 -0.28698690D-03 -0.28066692D-03 -0.18544850D-03 -0.42254340D-05
 -0.41323822D-05 -0.27304396D-05 -0.41911800D-08 -0.84306708D-05 -0.13513397D-05
 -0.18679832D-07 -0.66020210D-04  0.56319797D-06 -0.58073434D-08 -0.19500819D-04
 -0.63762649D-07  0.70807858D-04 -0.70959992D-04  0.15213419D-06 -0.34544629D-07
 -0.63498181D-07 -0.13225775D-03 -0.35528811D-04  0.35692278D-04 -0.16346777D-06
  0.23342609D-07  0.42168653D-07  0.10155344D-03  0.17931915D-04 -0.18263699D-04
  0.33178403D-06 -0.15537116D-07 -0.27237659D-07 -0.73610036D-04 -0.52183260D-07
 -0.70781640D-04 -0.67741040D-06  0.10288296D-07 -0.71169007D-04 -0.18861357D-03
  0.14626148D-06  0.28351393D-03  0.19064580D-03  0.15195942D-06  0.17326661D-07
  0.25146045D-04  0.25433827D-06 -0.25659194D-08  0.25241794D-04  0.59872874D-04
 -0.49414062D-07 -0.10067993D-03 -0.60635889D-04 -0.52758588D-07
MO    3     MO 0.0        OCC NO =    2.0000210  ORB. ENERGY =    0.000000
 -0.14440028D-01 -0.26919121D-01 -0.45496981D-01 -0.68390449D-01 -0.84005417D-01
 -0.70897608D-01 -0.26659352D-01 -0.38054501D-05 -0.28443382D-04 -0.10629941D-03
 -0.29655881D-03 -0.39730704D-03  0.46914554D-03 -0.87316350D-03 -0.19431209D-02
 -0.82787717D-04  0.20816340D-06  0.19516642D-06  0.13897012D-06 -0.40306004D-05
 -0.37789441D-05 -0.26908333D-05  0.11690366D-02  0.10960461D-02  0.78045013D-03
  0.10747636D-06  0.14388083D-04  0.61024070D-03 -0.65786841D-07  0.47079605D-05
 -0.38041261D-03  0.81445143D-09  0.20063368D-07  0.46592510D-05 -0.10400235D-03
 -0.10885025D-03  0.21285260D-03 -0.25523683D-08  0.11327394D-06 -0.30329657D-06
 -0.20304037D-04 -0.26460797D-04  0.46764834D-04 -0.27985650D-08  0.22892427D-07
 -0.30131417D-05  0.11567984D-04  0.11155830D-04 -0.22723814D-04  0.18433941D-09
 -0.12001700D-07  0.28427850D-06 -0.16029454D-07  0.36470257D-04  0.79452144D-05
  0.39734560D-07 -0.10858609D-03 -0.12490540D-04  0.83538025D-08 -0.82467518D-06
 -0.11345103D-04  0.38676304D-07  0.28825234D-08  0.51550220D-04 -0.85887308D-04
  0.82086519D-07 -0.15480600D-03  0.12837898D-03 -0.90734090D-07  0.15534545D-06
  0.12928294D-03  0.55143203D-07 -0.37590627D-05 -0.67796244D-05 -0.99965522D-05
  0.76861869D-03  0.25235522D-03  0.53293791D-05  0.18355050D-07  0.99556238D-04
  0.31523266D-04  0.25415776D-07  0.20088979D-03 -0.69902531D-05  0.13363296D-07
  0.46448993D-04  0.39827593D-04 -0.74445815D-04  0.53373728D-04  0.21072087D-04
  0.46911079D-07  0.44385379D-07  0.76979412D-04 -0.99071438D-05 -0.11572474D-04
  0.21479618D-04 -0.65590430D-08  0.65199272D-08 -0.35286704D-04 -0.49565993D-05
 -0.89394309D-05 -0.13181186D-04  0.74611975D-03  0.23161056D-03  0.50105578D-05
  0.82240192D-04 -0.48322162D-04  0.28032273D-04  0.16966621D-03 -0.96408846D-04
 -0.40434488D-05  0.37560841D-04 -0.21073094D-04  0.38636002D-04  0.21435825D-04
 -0.41809158D-04  0.20373333D-04 -0.10949065D-03  0.65976889D-04 -0.37564688D-04
 -0.11361594D-04 -0.10316337D-04  0.21677932D-04  0.29113381D-05 -0.30022613D-04
  0.17073254D-04 -0.49563945D-05 -0.89390616D-05 -0.13180641D-04  0.74612282D-03
  0.23160765D-03  0.50105785D-05 -0.82242753D-04 -0.48301313D-04  0.28061987D-04
 -0.16969226D-03 -0.96366634D-04 -0.39817593D-05 -0.37551985D-04 -0.21063613D-04
  0.38649281D-04  0.21440248D-04 -0.41836560D-04  0.20396312D-04  0.10944504D-03
 -0.65988132D-04 -0.37587952D-04 -0.11351666D-04 -0.10315571D-04  0.21667237D-04
 -0.29045161D-05  0.30050117D-04  0.17066574D-04 -0.15454882D+00 -0.28914435D+00
 -0.49957731D+00 -0.80987351D+00 -0.12298706D+01 -0.17094045D+01 -0.20323509D+01
 -0.18104888D+01 -0.89912704D+00 -0.14475185D+00 -0.15272175D-02 -0.72259118D-03
 -0.24104432D-01 -0.83999120D-01 -0.30249443D+00 -0.66681133D+00 -0.93865515D+00
  0.44776910D-01  0.12283933D+01  0.72634125D+00 -0.15528722D-04 -0.18809075D-03
 -0.39224342D-03 -0.11248858D-02 -0.58413756D-04  0.48510533D-02  0.12534190D-01
 -0.10212268D-01  0.46582559D-01 -0.38343904D-03 -0.13180976D-03  0.10536264D-02
  0.13878725D-02  0.15310406D-02  0.12716491D-02  0.67528096D-03  0.17422602D-03
  0.17971164D-02  0.23672227D-02  0.26114172D-02  0.21689864D-02  0.11517920D-02
  0.29716835D-03  0.59472288D+01  0.78338915D+01  0.86420086D+01  0.71778648D+01
  0.38116454D+01  0.98342444D+00 -0.37397813D-07  0.36153800D-06  0.50980631D-06
  0.72915789D-06 -0.36923529D-08 -0.66870656D-06 -0.50019328D-07  0.48355468D-06
  0.68186257D-06  0.97524386D-06 -0.49384976D-08 -0.89439060D-06 -0.21107457D-03
  0.20405331D-02  0.28773647D-02  0.41153927D-02 -0.20839769D-04 -0.37742032D-02
  0.73875980D-05  0.12965156D-04  0.41695378D-01 -0.86058567D-07 -0.28939095D-06
 -0.48465068D-03 -0.17264628D-08  0.73163072D-08 -0.98543194D-05 -0.68290009D-05
 -0.63385075D-05  0.13167508D-04  0.31239123D-09  0.67961667D-08  0.62265559D-06
 -0.11178218D-03 -0.11190577D-03  0.22368796D-03 -0.21338549D-10  0.11935924D-06
  0.22857435D-06 -0.14345146D-04 -0.14385870D-04  0.28731015D-04  0.21953969D-10
  0.15375663D-07  0.14990639D-06  0.12925271D-08 -0.72232838D-05  0.54166714D-05
 -0.97824876D-08  0.21484373D-04 -0.79048758D-05  0.59049062D-08  0.18547846D-06
 -0.83451385D-05 -0.75877153D-08  0.82670474D-08  0.20828785D-05 -0.33900728D-04
  0.11447436D-07 -0.60948510D-05  0.50716712D-04 -0.36248578D-07 -0.15378453D-06
  0.50985471D-04  0.21492599D-08 -0.88014636D-03 -0.16405943D-02 -0.27811729D-02
 -0.42110719D-02 -0.52647674D-02 -0.45286440D-02 -0.17368325D-02 -0.68758061D-06
 -0.91022799D-05 -0.33061137D-04 -0.98075239D-04 -0.11301190D-03  0.13726979D-03
 -0.96114231D-04 -0.16054433D-03  0.12182950D-04  0.66854938D-06  0.65382670D-06
  0.43201094D-06  0.30358342D-05  0.29689795D-05  0.19617303D-05  0.39046952D-02
  0.38187067D-02  0.25231809D-02  0.14977301D-06  0.74286376D-06  0.87979535D-03
  0.40980411D-08  0.69942450D-07  0.20987292D-04  0.15588343D-08  0.65668915D-07
  0.93308530D-05 -0.35982602D-04 -0.35311308D-04  0.71293910D-04  0.89341900D-09
  0.36892445D-07 -0.11171882D-06  0.21302596D-04  0.21001714D-04 -0.42304310D-04
 -0.38591887D-09 -0.22087227D-07  0.41043095D-08  0.18059511D-04  0.18173583D-04
 -0.36233095D-04  0.26705463D-10 -0.18037593D-07 -0.20324980D-06 -0.98636905D-08
 -0.29290456D-05  0.45970333D-04 -0.14035622D-07  0.80404825D-05 -0.69012545D-04
  0.43626693D-07  0.74665442D-06 -0.68898455D-04 -0.20417541D-09  0.58230286D-08
  0.96152850D-06 -0.25248250D-04  0.71550776D-08 -0.25238231D-05  0.37872153D-04
 -0.24624163D-07 -0.36076237D-06  0.37872598D-04  0.23823586D-10
MO    4     MO 0.0        OCC NO =    2.0000123  ORB. ENERGY =    0.000000
  0.27208456D-01  0.50722044D-01  0.85727164D-01  0.12886392D+00  0.15828624D+00
  0.13358800D+00  0.50232578D-01 -0.13864155D-05 -0.10362597D-04 -0.38727392D-04
 -0.10804339D-03 -0.14474836D-03  0.17092082D-03  0.26763426D-02 -0.36320680D-02
 -0.44021762D-04  0.64898190D-06  0.60846178D-06  0.43326104D-06  0.85844763D-05
  0.80484922D-05  0.57310059D-05  0.36708978D-02  0.34417000D-02  0.24506955D-02
  0.23206101D-06  0.23497928D-04  0.13093700D-02 -0.72560125D-07  0.10823627D-04
 -0.41924115D-03  0.67304649D-09  0.52132967D-07  0.36508688D-05 -0.31685535D-03
 -0.32088032D-03  0.63773567D-03 -0.21993040D-08  0.33854143D-06  0.94475297D-06
  0.15682844D-04  0.46752139D-05 -0.20358058D-04 -0.52309061D-08 -0.12802533D-07
 -0.62366800D-05 -0.17278293D-04 -0.18450467D-04  0.35728760D-04 -0.27114930D-09
  0.18532450D-07  0.62498695D-06  0.10325288D-07 -0.42994248D-04  0.23103453D-04
 -0.55171506D-07  0.12899651D-03 -0.35734910D-04  0.24195641D-07 -0.13768906D-07
 -0.33575450D-04 -0.44247716D-07  0.11981005D-07  0.81875771D-04 -0.16402768D-03
  0.13788855D-06 -0.24598938D-03  0.24513971D-03 -0.17383157D-06  0.36206317D-06
  0.24694332D-03  0.88311068D-07 -0.91293924D-04 -0.16465235D-03 -0.24277980D-03
  0.10525398D-02  0.71953028D-03  0.46448999D-05  0.24737852D-09 -0.51089030D-04
  0.39298243D-04  0.31821786D-07  0.30826721D-03 -0.48737728D-04  0.28599314D-07
  0.11535155D-03  0.77808669D-04 -0.14617021D-03  0.28289745D-04  0.11788046D-03
  0.70848669D-07  0.11272919D-06  0.14626438D-03 -0.15221898D-04 -0.20812084D-04
  0.36033982D-04 -0.12838657D-07  0.10086176D-07 -0.64408333D-04 -0.90596784D-04
 -0.16339503D-03 -0.24092588D-03  0.10157202D-02  0.67390065D-03  0.42096574D-05
 -0.51800064D-04  0.28973383D-04  0.32351580D-04  0.25985285D-03 -0.14725735D-03
 -0.41959758D-04  0.95064590D-04 -0.53407366D-04  0.75463303D-04 -0.18822550D-04
 -0.10044641D-03  0.11926896D-03 -0.14081494D-03  0.12386831D-03 -0.70123700D-04
 -0.19313650D-04 -0.16643594D-04  0.35957244D-04  0.67505548D-05 -0.54410428D-04
  0.30903414D-04 -0.90597049D-04 -0.16339551D-03 -0.24092658D-03  0.10157237D-02
  0.67390440D-03  0.42094441D-05  0.51818574D-04  0.28960170D-04  0.32333182D-04
 -0.25990554D-03 -0.14719232D-03 -0.41867949D-04 -0.95051765D-04 -0.53383344D-04
  0.75497059D-04 -0.18829001D-04 -0.10048124D-03  0.11931024D-03  0.14074971D-03
 -0.12378841D-03 -0.70142552D-04 -0.19296075D-04 -0.16642079D-04  0.35938153D-04
 -0.67378706D-05  0.54458243D-04  0.30892180D-04  0.91387824D-01  0.17097687D+00
  0.29541010D+00  0.47889448D+00  0.72724723D+00  0.10108052D+01  0.12017700D+01
  0.10705784D+01  0.53167189D+00  0.85594677D-01  0.90307440D-03  0.42787636D-03
  0.14273239D-01  0.49739381D-01  0.17911956D+00  0.39484679D+00  0.55581684D+00
 -0.26514275D-01 -0.72738286D+00 -0.43009693D+00  0.62828863D-05  0.76101096D-04
  0.15870081D-03  0.45512630D-03  0.23634075D-04 -0.19627253D-02 -0.50713053D-02
  0.41318609D-02 -0.28568178D-01  0.14208270D-02 -0.18046409D-03  0.17616978D-02
  0.23205681D-02  0.25599498D-02  0.21262388D-02  0.11290918D-02  0.29131158D-03
  0.10167428D-01  0.13392881D-01  0.14774444D-01  0.12271333D-01  0.65164182D-02
  0.16812699D-02  0.99105216D+01  0.13054475D+02  0.14401130D+02  0.11961266D+02
  0.63517641D+01  0.16387883D+01 -0.59899159D-07  0.57906653D-06  0.81654426D-06
  0.11678743D-05 -0.59139510D-08 -0.10710509D-05 -0.32352958D-06  0.31276758D-05
  0.44103493D-05  0.63079662D-05 -0.31942653D-07 -0.57850000D-05 -0.33689004D-03
  0.32568361D-02  0.45924789D-02  0.65684597D-02 -0.33261755D-04 -0.60238971D-02
  0.12892942D-04  0.73593678D-04  0.72528694D-01 -0.54408752D-07 -0.52121740D-06
 -0.30810692D-03 -0.67520944D-09 -0.15463800D-07 -0.40047049D-05  0.45497202D-03
  0.45541763D-03 -0.91038965D-03 -0.18559345D-09 -0.48604426D-06 -0.21726366D-05
 -0.31012182D-03 -0.31027192D-03  0.62039374D-03  0.11735937D-09  0.33103768D-06
  0.13442796D-05  0.42438228D-05  0.41507566D-05 -0.83945794D-05  0.31636689D-11
 -0.46614352D-08  0.14056837D-06  0.18143430D-07 -0.14535654D-04 -0.46908543D-04
 -0.42551498D-08  0.43380879D-04  0.70959890D-04 -0.50175140D-07  0.22608198D-06
  0.69765738D-04 -0.15858754D-07  0.15113957D-07  0.42505175D-05 -0.62849128D-04
  0.21606335D-07 -0.12402036D-04  0.93955523D-04 -0.66948205D-07 -0.34951647D-06
  0.94591860D-04  0.45891995D-08 -0.63707217D-02 -0.11875036D-01 -0.20130832D-01