 Entering Gaussian System, Link 0=g09
 Input=GAUSSIAN-YH_2.com
 Output=GAUSSIAN-YH_2.log
 Initial command:
 /home/bruns/programas/chemistry/gaussian/g09/l1.exe /home/bruns/programas/chemistry/gaussian/work/Gau-18767.inp -scrdir=/home/bruns/programas/chemistry/gaussian/work/
 Entering Link 1 = /home/bruns/programas/chemistry/gaussian/g09/l1.exe PID=     18769.
  
 Copyright (c) 1988,1990,1992,1993,1995,1998,2003,2009,2010,
            Gaussian, Inc.  All Rights Reserved.
  
 This is part of the Gaussian(R) 09 program.  It is based on
 the Gaussian(R) 03 system (copyright 2003, Gaussian, Inc.),
 the Gaussian(R) 98 system (copyright 1998, Gaussian, Inc.),
 the Gaussian(R) 94 system (copyright 1995, Gaussian, Inc.),
 the Gaussian 92(TM) system (copyright 1992, Gaussian, Inc.),
 the Gaussian 90(TM) system (copyright 1990, Gaussian, Inc.),
 the Gaussian 88(TM) system (copyright 1988, Gaussian, Inc.),
 the Gaussian 86(TM) system (copyright 1986, Carnegie Mellon
 University), and the Gaussian 82(TM) system (copyright 1983,
 Carnegie Mellon University). Gaussian is a federally registered
 trademark of Gaussian, Inc.
  
 This software contains proprietary and confidential information,
 including trade secrets, belonging to Gaussian, Inc.
  
 This software is provided under written license and may be
 used, copied, transmitted, or stored only in accord with that
 written license.
  
 The following legend is applicable only to US Government
 contracts under FAR:
  
                    RESTRICTED RIGHTS LEGEND
  
 Use, reproduction and disclosure by the US Government is
 subject to restrictions as set forth in subparagraphs (a)
 and (c) of the Commercial Computer Software - Restricted
 Rights clause in FAR 52.227-19.
  
 Gaussian, Inc.
 340 Quinnipiac St., Bldg. 40, Wallingford CT 06492
  
  
 ---------------------------------------------------------------
 Warning -- This program may not be used in any manner that
 competes with the business of Gaussian, Inc. or will provide
 assistance to any competitor of Gaussian, Inc.  The licensee
 of this program is prohibited from giving any competitor of
 Gaussian, Inc. access to this program.  By using this program,
 the user acknowledges that Gaussian, Inc. is engaged in the
 business of creating and licensing software in the field of
 computational chemistry and represents and warrants to the
 licensee that it is not a competitor of Gaussian, Inc. and that
 it will not use this program in any manner prohibited above.
 ---------------------------------------------------------------
  

 Cite this work as:
 Gaussian 09, Revision B.01,
 M. J. Frisch, G. W. Trucks, H. B. Schlegel, G. E. Scuseria, 
 M. A. Robb, J. R. Cheeseman, G. Scalmani, V. Barone, B. Mennucci, 
 G. A. Petersson, H. Nakatsuji, M. Caricato, X. Li, H. P. Hratchian, 
 A. F. Izmaylov, J. Bloino, G. Zheng, J. L. Sonnenberg, M. Hada, 
 M. Ehara, K. Toyota, R. Fukuda, J. Hasegawa, M. Ishida, T. Nakajima, 
 Y. Honda, O. Kitao, H. Nakai, T. Vreven, J. A. Montgomery, Jr., 
 J. E. Peralta, F. Ogliaro, M. Bearpark, J. J. Heyd, E. Brothers, 
 K. N. Kudin, V. N. Staroverov, T. Keith, R. Kobayashi, J. Normand, 
 K. Raghavachari, A. Rendell, J. C. Burant, S. S. Iyengar, J. Tomasi, 
 M. Cossi, N. Rega, J. M. Millam, M. Klene, J. E. Knox, J. B. Cross, 
 V. Bakken, C. Adamo, J. Jaramillo, R. Gomperts, R. E. Stratmann, 
 O. Yazyev, A. J. Austin, R. Cammi, C. Pomelli, J. W. Ochterski, 
 R. L. Martin, K. Morokuma, V. G. Zakrzewski, G. A. Voth, 
 P. Salvador, J. J. Dannenberg, S. Dapprich, A. D. Daniels, 
 O. Farkas, J. B. Foresman, J. V. Ortiz, J. Cioslowski, 
 and D. J. Fox, Gaussian, Inc., Wallingford CT, 2010.
 
 ******************************************
 Gaussian 09:  EM64L-G09RevB.01 12-Aug-2010
                10-Aug-2021 
 ******************************************
 %nproc=8
 Will use up to    8 processors via shared memory.
 %mem=8GB
 -----------------------------------------------------
 # QCISD aug-cc-pvtz nosymm density=current output=wfn
 -----------------------------------------------------
 1/30=1,38=1/1;
 2/12=2,15=1,17=6,18=5,40=1/2;
 3/5=16,6=1,7=10,11=9,16=1,25=1,30=1,71=1/1,2,3;
 4//1;
 5/5=2,38=5/2;
 8/6=4,9=120000,10=1/1,4;
 9/5=8,15=1/13;
 11/28=-7,31=1,32=3,42=3/11;
 10/5=6,13=10,31=1/2;
 6/7=2,8=2,9=2,10=2,22=-1,31=1/1;
 99/5=1,6=1100,9=1/99;
 ----------
 title line
 ----------
 Symbolic Z-matrix:
 Charge = -1 Multiplicity = 1
 C                     0.00018   0.00003  -0.49771 
 H                     0.00002  -1.06257  -0.62073 
 H                    -0.91131   0.52637  -0.62125 
 H                     0.91175   0.52613  -0.62157 
 Cl                    0.00056   0.00096   1.64472 
 F                    -0.00019  -0.00092  -2.59346 
 
                          Input orientation:                          
 ---------------------------------------------------------------------
 Center     Atomic      Atomic             Coordinates (Angstroms)
 Number     Number       Type             X           Y           Z
 ---------------------------------------------------------------------
      1          6           0        0.000175    0.000029   -0.497709
      2          1           0        0.000019   -1.062570   -0.620726
      3          1           0       -0.911312    0.526365   -0.621245
      4          1           0        0.911750    0.526132   -0.621570
      5         17           0        0.000555    0.000962    1.644718
      6          9           0       -0.000186   -0.000921   -2.593460
 ---------------------------------------------------------------------
                    Distance matrix (angstroms):
                    1          2          3          4          5
     1  C    0.000000
     2  H    1.069696   0.000000
     3  H    1.059764   1.831731   0.000000
     4  H    1.059762   1.831728   1.823062   0.000000
     5  Cl   2.142427   2.502666   2.498427   2.498428   0.000000
     6  F    2.095751   2.240263   2.235579   2.235568   4.238178
                    6
     6  F    0.000000
 Symmetry turned off by external request.
 Stoichiometry    CH3ClF(1-)
 Framework group  C1[X(CH3ClF)]
 Deg. of freedom    12
 Full point group                 C1      NOp   1
 Rotational constants (GHZ):    149.9250393      2.2147299      2.2145230
 Standard basis: Aug-CC-pVTZ (5D, 7F)
 Integral buffers will be    131072 words long.
 Raffenetti 1 integral format.
 Two-electron integral symmetry is turned off.
   211 basis functions,   339 primitive gaussians,   244 cartesian basis functions
    18 alpha electrons       18 beta electrons
       nuclear repulsion energy        84.9432404872 Hartrees.
 NAtoms=    6 NActive=    6 NUniq=    6 SFac= 1.00D+00 NAtFMM=   50 NAOKFM=F Big=F
 One-electron integrals computed using PRISM.
 NBasis=   211 RedAO= T  NBF=   211
 NBsUse=   211 1.00D-06 NBFU=   211
 Harris functional with IExCor=  205 diagonalized for initial guess.
 ExpMin= 2.53D-02 ExpMax= 4.56D+05 ExpMxC= 1.44D+03 IAcc=3 IRadAn=         0 AccDes= 0.00D+00
 HarFok:  IExCor=  205 AccDes= 0.00D+00 IRadAn=         0 IDoV= 1
 ScaDFX=  1.000000  1.000000  1.000000  1.000000
 FoFCou: FMM=F IPFlag=           0 FMFlag=      100000 FMFlg1=           0
         NFxFlg=           0 DoJE=T BraDBF=F KetDBF=T FulRan=T
         Omega=  0.000000  0.000000  1.000000  0.000000  0.000000 ICntrl=     500 IOpCl=  0
         NMat0=    1 NMatS0=    1 NMatT0=    0 NMatD0=    1 NMtDS0=    0 NMtDT0=    0
         I1Cent=           4 NGrid=           0.
 Symmetry not used in FoFCou.
 Requested convergence on RMS density matrix=1.00D-08 within 128 cycles.
 Requested convergence on MAX density matrix=1.00D-06.
 Requested convergence on             energy=1.00D-06.
 No special actions if energy rises.
 Keep R1 ints in memory in canonical form, NReq=454274131.
 DSYEVD returned Info=       33919 IAlg= 4 N=   211 NDim=   211 NE2=     2970790 trying DSYEV.
 SCF Done:  E(RHF) =  -598.617050337     A.U. after   12 cycles
             Convg  =    0.9358D-08             -V/T =  2.0001
 ExpMin= 2.53D-02 ExpMax= 4.56D+05 ExpMxC= 1.44D+03 IAcc=3 IRadAn=         5 AccDes= 0.00D+00
 HarFok:  IExCor=  205 AccDes= 0.00D+00 IRadAn=         5 IDoV=-2
 ScaDFX=  1.000000  1.000000  1.000000  1.000000
 DSYEVD returned Info=          93 IAlg= 4 N=    46 NDim=    46 NE2=    21472034 trying DSYEV.
 Range of M.O.s used for correlation:     8   211
 NBasis=   211 NAE=    18 NBE=    18 NFC=     7 NFV=     0
 NROrb=    204 NOA=    11 NOB=    11 NVA=   193 NVB=   193

 **** Warning!!: The largest alpha MO coefficient is  0.35268081D+02

 Semi-Direct transformation.
 ModeAB=           2 MOrb=            11 LenV=    1072528250
 LASXX=     44979418 LTotXX=    44979418 LenRXX=    44979418
 LTotAB=    45631872 MaxLAS=    67073160 LenRXY=    67073160
 NonZer=    89958836 LenScr=   135708672 LnRSAI=           0
 LnScr1=           0 LExtra=           0 Total=    247761250
 MaxDsk=          -1 SrtSym=           F ITran=            4
 JobTyp=0 Pass  1:  I=   1 to  11.
 (rs|ai) integrals will be sorted in core.
 Spin components of T(2) and E(2):
     alpha-alpha T2 =       0.2569334308D-01 E2=     -0.8209889219D-01
     alpha-beta  T2 =       0.1454176871D+00 E2=     -0.5100970999D+00
     beta-beta   T2 =       0.2569334308D-01 E2=     -0.8209889219D-01
 ANorm=    0.1093985545D+01
 E2 =    -0.6742948843D+00 EUMP2 =    -0.59929134522149D+03
 R2 and R3 integrals will be kept in memory, NReq=   900794930.
 Iterations=  50 Convergence= 0.100D-07
 Iteration Nr.   1
 **********************
 DD1Dir will call FoFMem   1 times, MxPair=       132
 NAB=    66 NAA=     0 NBB=     0.
 MP4(R+Q)=  0.14453059D-01
 E3=       -0.18688709D-01        EUMP3=      -0.59931003393D+03
 E4(DQ)=   -0.45759029D-03        UMP4(DQ)=   -0.59931049152D+03
 E4(SDQ)=  -0.98357583D-02        UMP4(SDQ)=  -0.59931986969D+03
 DE(Corr)= -0.67853053     E(Corr)=     -599.29558087    
 NORM(A)=   0.10997879D+01
 Iteration Nr.   2
 **********************
 DD1Dir will call FoFMem   1 times, MxPair=       132
 NAB=    66 NAA=     0 NBB=     0.
 DE(Corr)= -0.70075841     E(CORR)=     -599.31780875     Delta=-2.22D-02
 NORM(A)=   0.11071589D+01
 Iteration Nr.   3
 **********************
 DD1Dir will call FoFMem   1 times, MxPair=       132
 NAB=    66 NAA=     0 NBB=     0.
 DE(Corr)= -0.69836094     E(CORR)=     -599.31541127     Delta= 2.40D-03
 NORM(A)=   0.11111513D+01
 Iteration Nr.   4
 **********************
 DD1Dir will call FoFMem   1 times, MxPair=       132
 NAB=    66 NAA=     0 NBB=     0.
 DE(Corr)= -0.70142571     E(CORR)=     -599.31847605     Delta=-3.06D-03
 NORM(A)=   0.11132554D+01
 Iteration Nr.   5
 **********************
 DD1Dir will call FoFMem   1 times, MxPair=       132
 NAB=    66 NAA=     0 NBB=     0.
 DE(Corr)= -0.70202109     E(CORR)=     -599.31907142     Delta=-5.95D-04
 NORM(A)=   0.11142873D+01
 Iteration Nr.   6
 **********************
 DD1Dir will call FoFMem   1 times, MxPair=       132
 NAB=    66 NAA=     0 NBB=     0.
 DE(Corr)= -0.70216803     E(CORR)=     -599.31921837     Delta=-1.47D-04
 NORM(A)=   0.11146142D+01
 Iteration Nr.   7
 **********************
 DD1Dir will call FoFMem   1 times, MxPair=       132
 NAB=    66 NAA=     0 NBB=     0.
 DE(Corr)= -0.70219784     E(CORR)=     -599.31924818     Delta=-2.98D-05
 NORM(A)=   0.11146454D+01
 Iteration Nr.   8
 **********************
 DD1Dir will call FoFMem   1 times, MxPair=       132
 NAB=    66 NAA=     0 NBB=     0.
 DE(Corr)= -0.70221176     E(CORR)=     -599.31926209     Delta=-1.39D-05
 NORM(A)=   0.11146633D+01
 Iteration Nr.   9
 **********************
 DD1Dir will call FoFMem   1 times, MxPair=       132
 NAB=    66 NAA=     0 NBB=     0.
 DE(Corr)= -0.70218849     E(CORR)=     -599.31923882     Delta= 2.33D-05
 NORM(A)=   0.11146665D+01
 Iteration Nr.  10
 **********************
 DD1Dir will call FoFMem   1 times, MxPair=       132
 NAB=    66 NAA=     0 NBB=     0.
 DE(Corr)= -0.70220782     E(CORR)=     -599.31925815     Delta=-1.93D-05
 NORM(A)=   0.11146667D+01
 Iteration Nr.  11
 **********************
 DD1Dir will call FoFMem   1 times, MxPair=       132
 NAB=    66 NAA=     0 NBB=     0.
 DE(Corr)= -0.70219860     E(CORR)=     -599.31924894     Delta= 9.21D-06
 NORM(A)=   0.11146696D+01
 Iteration Nr.  12
 **********************
 DD1Dir will call FoFMem   1 times, MxPair=       132
 NAB=    66 NAA=     0 NBB=     0.
 DE(Corr)= -0.70220236     E(CORR)=     -599.31925270     Delta=-3.76D-06
 NORM(A)=   0.11146700D+01
 Iteration Nr.  13
 **********************
 DD1Dir will call FoFMem   1 times, MxPair=       132
 NAB=    66 NAA=     0 NBB=     0.
 DE(Corr)= -0.70220293     E(CORR)=     -599.31925327     Delta=-5.69D-07
 NORM(A)=   0.11146707D+01
 Iteration Nr.  14
 **********************
 DD1Dir will call FoFMem   1 times, MxPair=       132
 NAB=    66 NAA=     0 NBB=     0.
 DE(Corr)= -0.70220316     E(CORR)=     -599.31925350     Delta=-2.26D-07
 NORM(A)=   0.11146708D+01
 Iteration Nr.  15
 **********************
 DD1Dir will call FoFMem   1 times, MxPair=       132
 NAB=    66 NAA=     0 NBB=     0.
 DE(Corr)= -0.70220307     E(CORR)=     -599.31925341     Delta= 9.08D-08
 NORM(A)=   0.11146708D+01
 Iteration Nr.  16
 **********************
 DD1Dir will call FoFMem   1 times, MxPair=       132
 NAB=    66 NAA=     0 NBB=     0.
 DE(Corr)= -0.70220327     E(CORR)=     -599.31925361     Delta=-2.04D-07
 NORM(A)=   0.11146706D+01
 Iteration Nr.  17
 **********************
 DD1Dir will call FoFMem   1 times, MxPair=       132
 NAB=    66 NAA=     0 NBB=     0.
 DE(Corr)= -0.70220314     E(CORR)=     -599.31925348     Delta= 1.31D-07
 NORM(A)=   0.11146705D+01
 Iteration Nr.  18
 **********************
 DD1Dir will call FoFMem   1 times, MxPair=       132
 NAB=    66 NAA=     0 NBB=     0.
 DE(Corr)= -0.70220318     E(CORR)=     -599.31925352     Delta=-3.68D-08
 NORM(A)=   0.11146703D+01
 Iteration Nr.  19
 **********************
 DD1Dir will call FoFMem   1 times, MxPair=       132
 NAB=    66 NAA=     0 NBB=     0.
 DE(Corr)= -0.70220313     E(CORR)=     -599.31925346     Delta= 5.32D-08
 NORM(A)=   0.11146703D+01
 Iteration Nr.  20
 **********************
 DD1Dir will call FoFMem   1 times, MxPair=       132
 NAB=    66 NAA=     0 NBB=     0.
 DE(Corr)= -0.70220313     E(CORR)=     -599.31925347     Delta=-2.95D-09
 NORM(A)=   0.11146702D+01
 Iteration Nr.  21
 **********************
 DD1Dir will call FoFMem   1 times, MxPair=       132
 NAB=    66 NAA=     0 NBB=     0.
 DE(Corr)= -0.70220311     E(CORR)=     -599.31925345     Delta= 1.99D-08
 NORM(A)=   0.11146702D+01
 Iteration Nr.  22
 **********************
 DD1Dir will call FoFMem   1 times, MxPair=       132
 NAB=    66 NAA=     0 NBB=     0.
 DE(Corr)= -0.70220311     E(CORR)=     -599.31925344     Delta= 2.31D-09
 NORM(A)=   0.11146701D+01
 Iteration Nr.  23
 **********************
 DD1Dir will call FoFMem   1 times, MxPair=       132
 NAB=    66 NAA=     0 NBB=     0.
 DE(Corr)= -0.70220310     E(CORR)=     -599.31925344     Delta= 5.36D-09
 NORM(A)=   0.11146701D+01
 Iteration Nr.  24
 **********************
 DD1Dir will call FoFMem   1 times, MxPair=       132
 NAB=    66 NAA=     0 NBB=     0.
 DE(Corr)= -0.70220310     E(CORR)=     -599.31925344     Delta=-8.43D-10
 NORM(A)=   0.11146701D+01
 Iteration Nr.  25
 **********************
 DD1Dir will call FoFMem   1 times, MxPair=       132
 NAB=    66 NAA=     0 NBB=     0.
 DE(Corr)= -0.70220310     E(CORR)=     -599.31925343     Delta= 4.38D-09
 NORM(A)=   0.11146701D+01
 Iteration Nr.  26
 **********************
 DD1Dir will call FoFMem   1 times, MxPair=       132
 NAB=    66 NAA=     0 NBB=     0.
 DE(Corr)= -0.70220310     E(CORR)=     -599.31925344     Delta=-3.77D-09
 NORM(A)=   0.11146701D+01
 Iteration Nr.  27
 **********************
 DD1Dir will call FoFMem   1 times, MxPair=       132
 NAB=    66 NAA=     0 NBB=     0.
 DE(Corr)= -0.70220310     E(CORR)=     -599.31925344     Delta= 3.14D-09
 NORM(A)=   0.11146701D+01
 Iteration Nr.  28
 **********************
 DD1Dir will call FoFMem   1 times, MxPair=       132
 NAB=    66 NAA=     0 NBB=     0.
 DE(Corr)= -0.70220310     E(CORR)=     -599.31925344     Delta=-3.29D-09
 NORM(A)=   0.11146701D+01
 Largest amplitude= 6.61D-02

 Z-AMPLITUDE ITERATIONS

 Iteration Nr.   1
 **********************
 DD1Dir will call FoFMem   1 times, MxPair=       132
 NAB=    66 NAA=     0 NBB=     0.
 DE(Z)  -0.68278828D+00          E(Z)=    -0.59929983861D+03
 NORM(A)=   0.11148961D+01
 Iteration Nr.   2
 **********************
 DD1Dir will call FoFMem   1 times, MxPair=       132
 NAB=    66 NAA=     0 NBB=     0.
 DE(Z)  -0.68281304D+00          E(Z)=    -0.59929986338D+03
 NORM(A)=   0.11151487D+01
 Iteration Nr.   3
 **********************
 DD1Dir will call FoFMem   1 times, MxPair=       132
 NAB=    66 NAA=     0 NBB=     0.
 DE(Z)  -0.68283369D+00          E(Z)=    -0.59929988402D+03
 NORM(A)=   0.11149561D+01
 Iteration Nr.   4
 **********************
 DD1Dir will call FoFMem   1 times, MxPair=       132
 NAB=    66 NAA=     0 NBB=     0.
 DE(Z)  -0.68281679D+00          E(Z)=    -0.59929986713D+03
 NORM(A)=   0.11141591D+01
 Iteration Nr.   5
 **********************
 DD1Dir will call FoFMem   1 times, MxPair=       132
 NAB=    66 NAA=     0 NBB=     0.
 DE(Z)  -0.68273838D+00          E(Z)=    -0.59929978871D+03
 NORM(A)=   0.11080020D+01
 Iteration Nr.   6
 **********************
 DD1Dir will call FoFMem   1 times, MxPair=       132
 NAB=    66 NAA=     0 NBB=     0.
 DE(Z)  -0.68211847D+00          E(Z)=    -0.59929916880D+03
 NORM(A)=   0.11079963D+01
 Iteration Nr.   7
 **********************
 DD1Dir will call FoFMem   1 times, MxPair=       132
 NAB=    66 NAA=     0 NBB=     0.
 DE(Z)  -0.68212166D+00          E(Z)=    -0.59929917200D+03
 NORM(A)=   0.11079917D+01
 Iteration Nr.   8
 **********************
 DD1Dir will call FoFMem   1 times, MxPair=       132
 NAB=    66 NAA=     0 NBB=     0.
 DE(Z)  -0.68211879D+00          E(Z)=    -0.59929916913D+03
 NORM(A)=   0.11079880D+01
 Iteration Nr.   9
 **********************
 DD1Dir will call FoFMem   1 times, MxPair=       132
 NAB=    66 NAA=     0 NBB=     0.
 DE(Z)  -0.68211894D+00          E(Z)=    -0.59929916928D+03
 NORM(A)=   0.11079870D+01
 Iteration Nr.  10
 **********************
 DD1Dir will call FoFMem   1 times, MxPair=       132
 NAB=    66 NAA=     0 NBB=     0.
 DE(Z)  -0.68211882D+00          E(Z)=    -0.59929916916D+03
 NORM(A)=   0.11079867D+01
 Iteration Nr.  11
 **********************
 DD1Dir will call FoFMem   1 times, MxPair=       132
 NAB=    66 NAA=     0 NBB=     0.
 DE(Z)  -0.68211880D+00          E(Z)=    -0.59929916914D+03
 NORM(A)=   0.11079866D+01
 Iteration Nr.  12
 **********************
 DD1Dir will call FoFMem   1 times, MxPair=       132
 NAB=    66 NAA=     0 NBB=     0.
 DE(Z)  -0.68211887D+00          E(Z)=    -0.59929916920D+03
 NORM(A)=   0.11079867D+01
 Iteration Nr.  13
 **********************
 DD1Dir will call FoFMem   1 times, MxPair=       132
 NAB=    66 NAA=     0 NBB=     0.
 DE(Z)  -0.68211890D+00          E(Z)=    -0.59929916923D+03
 NORM(A)=   0.11079866D+01
 Iteration Nr.  14
 **********************
 DD1Dir will call FoFMem   1 times, MxPair=       132
 NAB=    66 NAA=     0 NBB=     0.
 DE(Z)  -0.68211888D+00          E(Z)=    -0.59929916921D+03
 NORM(A)=   0.11079866D+01
 Iteration Nr.  15
 **********************
 DD1Dir will call FoFMem   1 times, MxPair=       132
 NAB=    66 NAA=     0 NBB=     0.
 DE(Z)  -0.68211890D+00          E(Z)=    -0.59929916924D+03
 NORM(A)=   0.11079866D+01
 Iteration Nr.  16
 **********************
 DD1Dir will call FoFMem   1 times, MxPair=       132
 NAB=    66 NAA=     0 NBB=     0.
 DE(Z)  -0.68211890D+00          E(Z)=    -0.59929916923D+03
 NORM(A)=   0.11079866D+01
 Iteration Nr.  17
 **********************
 DD1Dir will call FoFMem   1 times, MxPair=       132
 NAB=    66 NAA=     0 NBB=     0.
 DE(Z)  -0.68211889D+00          E(Z)=    -0.59929916923D+03
 NORM(A)=   0.11079866D+01
 Iteration Nr.  18
 **********************
 DD1Dir will call FoFMem   1 times, MxPair=       132
 NAB=    66 NAA=     0 NBB=     0.
 DE(Z)  -0.68211889D+00          E(Z)=    -0.59929916923D+03
 NORM(A)=   0.11079831D+01
 Iteration Nr.  19
 **********************
 DD1Dir will call FoFMem   1 times, MxPair=       132
 NAB=    66 NAA=     0 NBB=     0.
 DE(Z)  -0.68211844D+00          E(Z)=    -0.59929916878D+03
 NORM(A)=   0.11079866D+01
 Iteration Nr.  20
 **********************
 DD1Dir will call FoFMem   1 times, MxPair=       132
 NAB=    66 NAA=     0 NBB=     0.
 DE(Z)  -0.68211889D+00          E(Z)=    -0.59929916923D+03
 NORM(A)=   0.11079866D+01
 Iteration Nr.  21
 **********************
 DD1Dir will call FoFMem   1 times, MxPair=       132
 NAB=    66 NAA=     0 NBB=     0.
 DE(Z)  -0.68211889D+00          E(Z)=    -0.59929916923D+03
 NORM(A)=   0.11079866D+01
 Discarding MO integrals.
          Differentiating once with respect to electric field.
                with respect to dipole field.
          Electric field/nuclear overlap derivatives assumed to be zero.
          Keep R1 ints in memory in canonical form, NReq=448662239.
          There are     1 degrees of freedom in the 1st order CPHF.  IDoFFX=0.
 LinEq1:  Iter=  0 NonCon=     1 RMS=3.11D-03 Max=1.20D-01
 AX will form     1 AO Fock derivatives at one time.
 LinEq1:  Iter=  1 NonCon=     1 RMS=6.96D-04 Max=9.58D-03
 LinEq1:  Iter=  2 NonCon=     1 RMS=2.30D-04 Max=5.74D-03
 LinEq1:  Iter=  3 NonCon=     1 RMS=9.49D-05 Max=1.45D-03
 LinEq1:  Iter=  4 NonCon=     1 RMS=3.85D-05 Max=4.12D-04
 LinEq1:  Iter=  5 NonCon=     1 RMS=1.07D-05 Max=2.27D-04
 LinEq1:  Iter=  6 NonCon=     1 RMS=2.43D-06 Max=4.28D-05
 LinEq1:  Iter=  7 NonCon=     1 RMS=6.09D-07 Max=9.17D-06
 LinEq1:  Iter=  8 NonCon=     1 RMS=1.50D-07 Max=1.81D-06
 LinEq1:  Iter=  9 NonCon=     1 RMS=3.05D-08 Max=7.52D-07
 LinEq1:  Iter= 10 NonCon=     1 RMS=6.58D-09 Max=8.96D-08
 LinEq1:  Iter= 11 NonCon=     1 RMS=1.06D-09 Max=1.16D-08
 LinEq1:  Iter= 12 NonCon=     1 RMS=1.69D-10 Max=2.85D-09
 LinEq1:  Iter= 13 NonCon=     0 RMS=2.41D-11 Max=3.23D-10
 Linear equations converged to 1.000D-10 1.000D-09 after    13 iterations.
 End of Minotr Frequency-dependent properties file   721 does not exist.
 End of Minotr Frequency-dependent properties file   722 does not exist.

 **********************************************************************

            Population analysis using the QCI/CC density.

 **********************************************************************

     Natural Orbital Coefficients:
                           1         2         3         4         5
     Eigenvalues --     2.00003   2.00003   2.00002   2.00001   2.00001
   1 1   C  1S         -0.00005   0.00000  -0.04333   0.07921   0.97628
   2        2S          0.00001   0.00000   0.00131   0.00052  -0.01331
   3        3S          0.00000   0.00000  -0.00132   0.00395   0.03981
   4        4S          0.00016   0.00000  -0.01259  -0.02347   0.00322
   5        5S          0.00001   0.00000  -0.00119  -0.00059  -0.00058
   6        6PX         0.00000   0.00005   0.00000   0.00000   0.00000
   7        6PY         0.00005   0.00000   0.00000   0.00000  -0.00004
   8        6PZ         0.00000   0.00000   0.00053   0.00168   0.00087
   9        7PX         0.00000   0.00085   0.00000   0.00000   0.00000
  10        7PY         0.00082   0.00000  -0.00003  -0.00005   0.00008
  11        7PZ         0.00001   0.00000   0.00141   0.00303  -0.00090
  12        8PX         0.00000   0.00456   0.00000   0.00000   0.00000
  13        8PY         0.00450   0.00000  -0.00005  -0.00011   0.00008
  14        8PZ        -0.00002   0.00000  -0.00372  -0.00408  -0.00310
  15        9PX         0.00000   0.00042   0.00000   0.00000   0.00000
  16        9PY         0.00042   0.00000   0.00000   0.00000  -0.00001
  17        9PZ         0.00000   0.00000   0.00021   0.00017  -0.00049
  18       10D 0        0.00000   0.00000   0.00011   0.00033  -0.00057
  19       10D+1        0.00000  -0.00015   0.00000   0.00000   0.00000
  20       10D-1       -0.00015   0.00000   0.00000   0.00000   0.00000
  21       10D+2        0.00004   0.00000   0.00000   0.00000   0.00001
  22       10D-2        0.00000   0.00004   0.00000   0.00000   0.00000
  23       11D 0        0.00000   0.00000   0.00022  -0.00008  -0.00031
  24       11D+1        0.00000   0.00026   0.00000   0.00000   0.00000
  25       11D-1        0.00025   0.00000   0.00001   0.00002  -0.00002
  26       11D+2        0.00100   0.00000  -0.00002  -0.00003   0.00005
  27       11D-2        0.00000   0.00100   0.00000   0.00000   0.00000
  28       12D 0        0.00000   0.00000  -0.00079   0.00122  -0.00234
  29       12D+1        0.00000  -0.00130   0.00000   0.00000   0.00000
  30       12D-1       -0.00130   0.00000  -0.00001  -0.00001   0.00000
  31       12D+2        0.00162   0.00000  -0.00001  -0.00002   0.00002
  32       12D-2        0.00000   0.00161   0.00000   0.00000   0.00000
  33       13F 0        0.00000   0.00000   0.00001   0.00003   0.00019
  34       13F+1        0.00000  -0.00019   0.00000   0.00000   0.00000
  35       13F-1       -0.00019   0.00000   0.00000   0.00000   0.00000
  36       13F+2        0.00001   0.00000   0.00000   0.00000   0.00000
  37       13F-2        0.00000   0.00002   0.00000   0.00000   0.00000
  38       13F+3        0.00000   0.00000   0.00000   0.00000   0.00000
  39       13F-3        0.00000   0.00000  -0.00006   0.00007   0.00090
  40       14F 0        0.00000   0.00000  -0.00112  -0.00215  -0.00020
  41       14F+1        0.00000   0.00057   0.00000   0.00000   0.00000
  42       14F-1        0.00057   0.00000   0.00000  -0.00001  -0.00001
  43       14F+2        0.00034   0.00000   0.00000   0.00001  -0.00001
  44       14F-2        0.00000   0.00034   0.00000   0.00000   0.00000
  45       14F+3        0.00000   0.00000   0.00000   0.00000   0.00000
  46       14F-3        0.00001   0.00000  -0.00087  -0.00136  -0.00188
  47 2   H  1S         -0.00016   0.00000  -0.00002  -0.00035  -0.00129
  48        2S          0.00113   0.00000   0.00240   0.00323  -0.00055
  49        3S          0.00849   0.00000   0.00170   0.00502  -0.00414
  50        4S         -0.00027   0.00000   0.00011   0.00009  -0.00013
  51        5PX         0.00000   0.00000   0.00000   0.00000   0.00000
  52        5PY         0.00003   0.00000   0.00004  -0.00003  -0.00047
  53        5PZ         0.00001   0.00000   0.00001   0.00001  -0.00008
  54        6PX         0.00000   0.00018   0.00000   0.00000   0.00000
  55        6PY         0.00065   0.00000   0.00045   0.00069  -0.00072
  56        6PZ         0.00060   0.00000   0.00000  -0.00009   0.00023
  57        7PX         0.00000   0.00090   0.00000   0.00000   0.00000
  58        7PY         0.00207   0.00000   0.00051   0.00130  -0.00096
  59        7PZ         0.00027   0.00000   0.00046   0.00090  -0.00005
  60        8D 0        0.00004   0.00000   0.00001   0.00007   0.00015
  61        8D+1        0.00000  -0.00001   0.00000   0.00000   0.00000
  62        8D-1        0.00009   0.00000   0.00002   0.00004  -0.00004
  63        8D+2       -0.00005   0.00000  -0.00004  -0.00005   0.00029
  64        8D-2        0.00000   0.00001   0.00000   0.00000   0.00000
  65        9D 0        0.00038   0.00000   0.00015   0.00025   0.00060
  66        9D+1        0.00000   0.00024   0.00000   0.00000   0.00000
  67        9D-1        0.00012   0.00000  -0.00014  -0.00025   0.00001
  68        9D+2       -0.00013   0.00000   0.00001   0.00003  -0.00011
  69        9D-2        0.00000   0.00012   0.00000   0.00000   0.00000
  70 3   H  1S          0.00008  -0.00014  -0.00002  -0.00035  -0.00135
  71        2S         -0.00060   0.00103   0.00247   0.00335  -0.00079
  72        3S         -0.00431   0.00751   0.00186   0.00537  -0.00446
  73        4S          0.00013  -0.00023   0.00011   0.00010  -0.00014
  74        5PX        -0.00001   0.00003   0.00004  -0.00002  -0.00042
  75        5PY         0.00001  -0.00001  -0.00002   0.00001   0.00024
  76        5PZ        -0.00001   0.00001   0.00001   0.00002  -0.00009
  77        6PX        -0.00020   0.00054   0.00040   0.00061  -0.00072
  78        6PY         0.00030  -0.00020  -0.00024  -0.00036   0.00043
  79        6PZ        -0.00031   0.00053  -0.00001  -0.00010   0.00023
  80        7PX        -0.00050   0.00180   0.00047   0.00118  -0.00090
  81        7PY         0.00120  -0.00051  -0.00028  -0.00070   0.00054
  82        7PZ        -0.00013   0.00024   0.00047   0.00093  -0.00006
  83        8D 0       -0.00002   0.00003   0.00001   0.00006   0.00014
  84        8D+1       -0.00005   0.00007   0.00002   0.00004  -0.00003
  85        8D-1        0.00001  -0.00005  -0.00001  -0.00002   0.00002
  86        8D+2        0.00000   0.00003   0.00002   0.00003  -0.00014
  87        8D-2        0.00002  -0.00003  -0.00004  -0.00005   0.00024
  88        9D 0       -0.00020   0.00034   0.00015   0.00025   0.00062
  89        9D+1        0.00005   0.00016  -0.00012  -0.00022   0.00001
  90        9D-1        0.00022   0.00005   0.00007   0.00013   0.00000
  91        9D+2        0.00006   0.00011  -0.00001  -0.00001   0.00005
  92        9D-2        0.00010  -0.00007   0.00000   0.00002  -0.00008
  93 4   H  1S          0.00008   0.00014  -0.00002  -0.00035  -0.00135
  94        2S         -0.00060  -0.00103   0.00247   0.00335  -0.00079
  95        3S         -0.00431  -0.00751   0.00186   0.00537  -0.00446
  96        4S          0.00013   0.00023   0.00011   0.00010  -0.00014
  97        5PX         0.00001   0.00003  -0.00004   0.00002   0.00042
  98        5PY         0.00001   0.00001  -0.00002   0.00001   0.00024
  99        5PZ        -0.00001  -0.00001   0.00001   0.00002  -0.00009
 100        6PX         0.00020   0.00054  -0.00040  -0.00061   0.00072
 101        6PY         0.00030   0.00020  -0.00024  -0.00036   0.00042
 102        6PZ        -0.00031  -0.00053  -0.00001  -0.00010   0.00023
 103        7PX         0.00050   0.00180  -0.00047  -0.00118   0.00090
 104        7PY         0.00120   0.00051  -0.00028  -0.00070   0.00054
 105        7PZ        -0.00013  -0.00024   0.00047   0.00093  -0.00006
 106        8D 0       -0.00002  -0.00003   0.00001   0.00006   0.00014
 107        8D+1        0.00005   0.00007  -0.00002  -0.00004   0.00003
 108        8D-1        0.00001   0.00005  -0.00001  -0.00002   0.00002
 109        8D+2        0.00000  -0.00003   0.00002   0.00003  -0.00014
 110        8D-2       -0.00002  -0.00003   0.00004   0.00005  -0.00024
 111        9D 0       -0.00020  -0.00034   0.00015   0.00025   0.00062
 112        9D+1       -0.00005   0.00016   0.00012   0.00022  -0.00001
 113        9D-1        0.00022  -0.00005   0.00007   0.00013   0.00000
 114        9D+2        0.00006  -0.00011  -0.00001  -0.00001   0.00005
 115        9D-2       -0.00010  -0.00007   0.00000  -0.00002   0.00008
 116 5   Cl 1S          0.00010   0.00000  -0.25068   0.14789  -0.02266
 117        2S         -0.00033   0.00000   0.84618  -0.49990   0.07769
 118        3S          0.00001   0.00000  -0.02310   0.00933  -0.00238
 119        4S         -0.00002   0.00000   0.06657  -0.04073   0.00638
 120        5S          0.00001   0.00000  -0.00211   0.00776   0.00350
 121        6S          0.00000   0.00000  -0.00155  -0.00214   0.00299
 122        7PX         0.00009   0.97886   0.00009   0.00015  -0.00001
 123        7PY         0.97886  -0.00009   0.00030  -0.00012   0.00007
 124        7PZ        -0.00005  -0.00017   0.50041   0.83622  -0.04623
 125        8PX         0.00000  -0.01915   0.00000   0.00000   0.00000
 126        8PY        -0.01915   0.00000  -0.00001   0.00000   0.00000
 127        8PZ         0.00000   0.00000  -0.00877  -0.01404   0.00009
 128        9PX         0.00000   0.05233   0.00001   0.00001   0.00000
 129        9PY         0.05233   0.00000   0.00002  -0.00001   0.00000
 130        9PZ         0.00000  -0.00001   0.02841   0.04956  -0.00262
 131       10PX         0.00000  -0.00578   0.00000   0.00000   0.00000
 132       10PY        -0.00578   0.00000   0.00000   0.00000   0.00000
 133       10PZ         0.00000   0.00000  -0.00434  -0.00274  -0.00346
 134       11PX         0.00000  -0.00215   0.00000   0.00000   0.00000
 135       11PY        -0.00215   0.00000   0.00000   0.00000   0.00000
 136       11PZ         0.00000   0.00000  -0.00036  -0.00014  -0.00053
 137       12D 0        0.00000   0.00000   0.00001  -0.00051  -0.00017
 138       12D+1        0.00000  -0.00032   0.00000   0.00000   0.00000
 139       12D-1       -0.00032   0.00000   0.00000   0.00000   0.00000
 140       12D+2        0.00001   0.00000   0.00000   0.00000   0.00000
 141       12D-2        0.00000   0.00001   0.00000   0.00000   0.00000
 142       13D 0        0.00000   0.00000   0.00087   0.00243   0.00042
 143       13D+1        0.00000   0.00081   0.00000   0.00000   0.00000
 144       13D-1        0.00081   0.00000   0.00000   0.00000   0.00000
 145       13D+2       -0.00002   0.00000   0.00000   0.00000   0.00000
 146       13D-2        0.00000  -0.00002   0.00000   0.00000   0.00000
 147       14D 0        0.00000   0.00000   0.00058  -0.00018   0.00080
 148       14D+1        0.00000  -0.00071   0.00000   0.00000   0.00000
 149       14D-1       -0.00071   0.00000   0.00000   0.00000   0.00000
 150       14D+2        0.00003   0.00000   0.00000   0.00000   0.00000
 151       14D-2        0.00000   0.00003   0.00000   0.00000   0.00000
 152       15F 0        0.00000   0.00000   0.00001  -0.00007  -0.00003
 153       15F+1        0.00000  -0.00001   0.00000   0.00000   0.00000
 154       15F-1       -0.00001   0.00000   0.00000   0.00000   0.00000
 155       15F+2        0.00003   0.00000   0.00000   0.00000   0.00000
 156       15F-2        0.00000   0.00003   0.00000   0.00000   0.00000
 157       15F+3        0.00000   0.00000   0.00000   0.00000   0.00000
 158       15F-3        0.00000   0.00000   0.00001   0.00003   0.00000
 159       16F 0        0.00000   0.00000  -0.00031  -0.00058  -0.00031
 160       16F+1        0.00000  -0.00022   0.00000   0.00000   0.00000
 161       16F-1       -0.00022   0.00000   0.00000   0.00000   0.00000
 162       16F+2       -0.00003   0.00000   0.00000   0.00000   0.00000
 163       16F-2        0.00000  -0.00003   0.00000   0.00000   0.00000
 164       16F+3        0.00000   0.00000   0.00000   0.00000   0.00000
 165       16F-3        0.00000   0.00000  -0.00002  -0.00005   0.00002
 166 6   F  1S          0.00000   0.00000  -0.00144  -0.01039  -0.04985
 167        2S          0.00000   0.00000   0.00020   0.00043   0.00080
 168        3S          0.00000   0.00000  -0.00007  -0.00045  -0.00203
 169        4S          0.00000   0.00000  -0.00054  -0.00105   0.00055
 170        5S          0.00000   0.00000   0.00011  -0.00168   0.00176
 171        6PX         0.00000  -0.00004   0.00000   0.00000   0.00000
 172        6PY        -0.00004   0.00000   0.00000   0.00000   0.00000
 173        6PZ         0.00000   0.00000   0.00058   0.00111   0.00011
 174        7PX         0.00000  -0.00001   0.00000   0.00000   0.00000
 175        7PY        -0.00001   0.00000   0.00000   0.00000   0.00000
 176        7PZ         0.00000   0.00000   0.00069   0.00132   0.00002
 177        8PX         0.00000  -0.00024   0.00000   0.00000   0.00000
 178        8PY        -0.00025   0.00000   0.00000   0.00000   0.00000
 179        8PZ         0.00000   0.00000   0.00008   0.00017   0.00047
 180        9PX         0.00000  -0.00036   0.00000   0.00000   0.00000
 181        9PY        -0.00036   0.00000   0.00000   0.00000   0.00000
 182        9PZ         0.00000   0.00000   0.00017  -0.00009   0.00071
 183       10D 0        0.00000   0.00000   0.00001   0.00001  -0.00002
 184       10D+1        0.00000  -0.00001   0.00000   0.00000   0.00000
 185       10D-1       -0.00001   0.00000   0.00000   0.00000   0.00000
 186       10D+2        0.00001   0.00000   0.00000   0.00000   0.00000
 187       10D-2        0.00000   0.00001   0.00000   0.00000   0.00000
 188       11D 0        0.00000   0.00000  -0.00003  -0.00010   0.00001
 189       11D+1        0.00000   0.00005   0.00000   0.00000   0.00000
 190       11D-1        0.00005   0.00000   0.00000   0.00000   0.00000
 191       11D+2       -0.00003   0.00000   0.00000   0.00000   0.00000
 192       11D-2        0.00000  -0.00003   0.00000   0.00000   0.00000
 193       12D 0        0.00000   0.00000  -0.00019  -0.00012   0.00012
 194       12D+1        0.00000  -0.00022   0.00000   0.00000   0.00000
 195       12D-1       -0.00023   0.00000   0.00000   0.00000   0.00000
 196       12D+2        0.00011   0.00000   0.00000   0.00000   0.00000
 197       12D-2        0.00000   0.00011   0.00000   0.00000   0.00000
 198       13F 0        0.00000   0.00000   0.00001  -0.00001  -0.00004
 199       13F+1        0.00000   0.00002   0.00000   0.00000   0.00000
 200       13F-1        0.00002   0.00000   0.00000   0.00000   0.00000
 201       13F+2       -0.00002   0.00000   0.00000   0.00000   0.00000
 202       13F-2        0.00000  -0.00002   0.00000   0.00000   0.00000
 203       13F+3        0.00000   0.00000   0.00000   0.00000   0.00000
 204       13F-3        0.00000   0.00000   0.00000   0.00000   0.00000
 205       14F 0        0.00000   0.00000  -0.00004   0.00002   0.00013
 206       14F+1        0.00000  -0.00006   0.00000   0.00000   0.00000
 207       14F-1       -0.00006   0.00000   0.00000   0.00000   0.00000
 208       14F+2        0.00004   0.00000   0.00000   0.00000   0.00000
 209       14F-2        0.00000   0.00004   0.00000   0.00000   0.00000
 210       14F+3        0.00000   0.00000   0.00000   0.00000   0.00000
 211       14F-3        0.00000   0.00000   0.00000  -0.00001  -0.00001
                           6         7         8         9        10
     Eigenvalues --     2.00000   2.00000   1.98361   1.97541   1.96940
   1 1   C  1S          0.05046  -0.00046   0.01530  -0.07240  -0.14403
   2        2S         -0.00012  -0.00001  -0.04169   0.19644   0.39823
   3        3S          0.00230  -0.00003  -0.01033   0.04553   0.09631
   4        4S         -0.00695   0.00016   0.00579   0.07790   0.19121
   5        5S         -0.00015   0.00010   0.00784  -0.00665  -0.02892
   6        6PX         0.00000   0.00000   0.00000   0.00000   0.00000
   7        6PY         0.00000   0.00000  -0.00016   0.00121   0.00455
   8        6PZ         0.00004   0.00000   0.00645   0.01055  -0.02708
   9        7PX         0.00000   0.00000   0.00000   0.00000   0.00000
  10        7PY        -0.00001   0.00000  -0.00023   0.00151   0.00578
  11        7PZ        -0.00074   0.00000   0.00704   0.01817  -0.03225
  12        8PX         0.00000   0.00000   0.00000   0.00000   0.00000
  13        8PY         0.00000   0.00000  -0.00009   0.00094   0.00382
  14        8PZ         0.00516   0.00009   0.01652   0.00595  -0.02274
  15        9PX         0.00000   0.00000   0.00000   0.00000   0.00000
  16        9PY         0.00000   0.00000   0.00000   0.00002   0.00016
  17        9PZ         0.00011   0.00001  -0.00071   0.00035  -0.00407
  18       10D 0        0.00004   0.00000   0.00050  -0.00206  -0.00953
  19       10D+1        0.00000   0.00000   0.00000   0.00000   0.00000
  20       10D-1        0.00000   0.00000   0.00001  -0.00003  -0.00009
  21       10D+2        0.00000   0.00000  -0.00001   0.00009   0.00032
  22       10D-2        0.00000   0.00000   0.00000   0.00000   0.00000
  23       11D 0       -0.00023  -0.00002  -0.00530   0.00473  -0.01870
  24       11D+1        0.00000   0.00000   0.00000   0.00000  -0.00001
  25       11D-1       -0.00001   0.00000   0.00003  -0.00006  -0.00014
  26       11D+2        0.00000   0.00000  -0.00007   0.00025   0.00088
  27       11D-2        0.00000   0.00000   0.00000   0.00000   0.00000
  28       12D 0        0.00027   0.00008   0.00206  -0.00829  -0.01672
  29       12D+1        0.00000   0.00000   0.00000   0.00000  -0.00001
  30       12D-1        0.00001   0.00000   0.00003   0.00003  -0.00001
  31       12D+2        0.00001   0.00000  -0.00004   0.00023   0.00069
  32       12D-2        0.00000   0.00000   0.00000   0.00000   0.00000
  33       13F 0       -0.00007   0.00000   0.00001   0.00242   0.00066
  34       13F+1        0.00000   0.00000   0.00000   0.00000   0.00000
  35       13F-1        0.00000   0.00000   0.00000   0.00001   0.00000
  36       13F+2        0.00000   0.00000   0.00000   0.00000   0.00000
  37       13F-2        0.00000   0.00000   0.00000   0.00000   0.00000
  38       13F+3        0.00000   0.00000   0.00000   0.00000   0.00000
  39       13F-3        0.00001   0.00000  -0.00014   0.00194   0.00404
  40       14F 0        0.00126  -0.00001   0.00470   0.00261  -0.00198
  41       14F+1        0.00000   0.00000   0.00000   0.00000   0.00000
  42       14F-1        0.00000   0.00000   0.00000  -0.00003  -0.00010
  43       14F+2        0.00000   0.00000   0.00002  -0.00003  -0.00007
  44       14F-2        0.00000   0.00000   0.00000   0.00000   0.00000
  45       14F+3        0.00000   0.00000   0.00000   0.00000   0.00000
  46       14F-3       -0.00044   0.00003   0.00190  -0.00103   0.00401
  47 2   H  1S         -0.00008   0.00000  -0.00832   0.03552   0.07697
  48        2S          0.00097  -0.00006  -0.01531   0.04282   0.08171
  49        3S          0.00179   0.00004  -0.00105  -0.00395  -0.00938
  50        4S          0.00003   0.00000  -0.00047   0.00051   0.00047
  51        5PX         0.00000   0.00000   0.00000   0.00000   0.00000
  52        5PY         0.00001   0.00000  -0.00106   0.00380   0.00825
  53        5PZ        -0.00004   0.00000   0.00028   0.00092   0.00030
  54        6PX         0.00000   0.00000   0.00000   0.00000   0.00000
  55        6PY         0.00008   0.00000  -0.00088   0.00110   0.00180
  56        6PZ         0.00031  -0.00001   0.00011   0.00240  -0.00051
  57        7PX         0.00000   0.00000   0.00000   0.00000   0.00000
  58        7PY         0.00043   0.00001   0.00129  -0.00462  -0.00947
  59        7PZ        -0.00053   0.00001  -0.00274  -0.00163  -0.00118
  60        8D 0        0.00006   0.00000   0.00014  -0.00034  -0.00088
  61        8D+1        0.00000   0.00000   0.00000   0.00000   0.00000
  62        8D-1       -0.00001   0.00000  -0.00014   0.00048   0.00022
  63        8D+2       -0.00002   0.00000   0.00004  -0.00052  -0.00132
  64        8D-2        0.00000   0.00000   0.00000   0.00000   0.00000
  65        9D 0        0.00008  -0.00001  -0.00005   0.00117   0.00095
  66        9D+1        0.00000   0.00000   0.00000   0.00000   0.00000
  67        9D-1        0.00014   0.00000  -0.00005   0.00005  -0.00036
  68        9D+2        0.00004   0.00000  -0.00095   0.00215   0.00401
  69        9D-2        0.00000   0.00000   0.00000   0.00000   0.00000
  70 3   H  1S         -0.00008   0.00000  -0.00856   0.03699   0.08212
  71        2S          0.00097  -0.00006  -0.01528   0.04348   0.08526
  72        3S          0.00180   0.00004  -0.00088  -0.00521  -0.01323
  73        4S          0.00003   0.00000  -0.00047   0.00050   0.00034
  74        5PX         0.00001   0.00000  -0.00094   0.00344   0.00762
  75        5PY        -0.00001   0.00000   0.00054  -0.00197  -0.00432
  76        5PZ        -0.00004   0.00000   0.00028   0.00096   0.00037
  77        6PX         0.00007   0.00000  -0.00063   0.00068   0.00106
  78        6PY        -0.00004   0.00000   0.00034  -0.00033  -0.00037
  79        6PZ         0.00032  -0.00001   0.00007   0.00243  -0.00049
  80        7PX         0.00038   0.00001   0.00115  -0.00427  -0.00914
  81        7PY        -0.00021   0.00000  -0.00069   0.00259   0.00559
  82        7PZ        -0.00055   0.00001  -0.00281  -0.00174  -0.00137
  83        8D 0        0.00006   0.00000   0.00014  -0.00035  -0.00093
  84        8D+1       -0.00001   0.00000  -0.00013   0.00043   0.00021
  85        8D-1        0.00000   0.00000   0.00007  -0.00025  -0.00012
  86        8D+2        0.00001   0.00000  -0.00002   0.00027   0.00072
  87        8D-2       -0.00001   0.00000   0.00003  -0.00046  -0.00118
  88        9D 0        0.00009  -0.00001  -0.00006   0.00121   0.00100
  89        9D+1        0.00012   0.00000  -0.00005   0.00003  -0.00033
  90        9D-1       -0.00007   0.00000   0.00003  -0.00002   0.00018
  91        9D+2       -0.00002   0.00000   0.00049  -0.00111  -0.00206
  92        9D-2        0.00003   0.00000  -0.00085   0.00194   0.00364
  93 4   H  1S         -0.00008   0.00000  -0.00856   0.03699   0.08212
  94        2S          0.00097  -0.00006  -0.01528   0.04348   0.08526
  95        3S          0.00180   0.00004  -0.00088  -0.00522  -0.01323
  96        4S          0.00003   0.00000  -0.00047   0.00050   0.00034
  97        5PX        -0.00001   0.00000   0.00094  -0.00344  -0.00762
  98        5PY        -0.00001   0.00000   0.00054  -0.00196  -0.00432
  99        5PZ        -0.00004   0.00000   0.00028   0.00096   0.00037
 100        6PX        -0.00007   0.00000   0.00063  -0.00068  -0.00106
 101        6PY        -0.00004   0.00000   0.00034  -0.00033  -0.00037
 102        6PZ         0.00032  -0.00001   0.00007   0.00243  -0.00049
 103        7PX        -0.00038  -0.00001  -0.00116   0.00427   0.00914
 104        7PY        -0.00021   0.00000  -0.00069   0.00259   0.00558
 105        7PZ        -0.00055   0.00001  -0.00281  -0.00174  -0.00138
 106        8D 0        0.00006   0.00000   0.00014  -0.00035  -0.00093
 107        8D+1        0.00001   0.00000   0.00013  -0.00043  -0.00021
 108        8D-1        0.00000   0.00000   0.00007  -0.00025  -0.00012
 109        8D+2        0.00001   0.00000  -0.00002   0.00027   0.00072
 110        8D-2        0.00001   0.00000  -0.00003   0.00046   0.00118
 111        9D 0        0.00009  -0.00001  -0.00006   0.00121   0.00100
 112        9D+1       -0.00012   0.00000   0.00005  -0.00003   0.00034
 113        9D-1       -0.00007   0.00000   0.00003  -0.00002   0.00018
 114        9D+2       -0.00002   0.00000   0.00049  -0.00111  -0.00206
 115        9D-2       -0.00003   0.00000   0.00085  -0.00194  -0.00364
 116 5   Cl 1S          0.00007   0.99708  -0.00063   0.06671  -0.03435
 117        2S         -0.00008   0.01040   0.00289  -0.25278   0.12909
 118        3S          0.00005   0.00017  -0.00384   0.52650  -0.27477
 119        4S          0.00008   0.00026  -0.00024   0.06452  -0.03706
 120        5S         -0.00180  -0.00020  -0.01225   0.35207  -0.16823
 121        6S         -0.00050  -0.00011  -0.00460   0.02445   0.01147
 122        7PX         0.00000   0.00000   0.00000   0.00000   0.00001
 123        7PY         0.00001   0.00000   0.00000  -0.00004  -0.00023
 124        7PZ         0.00735   0.00016   0.00153   0.00445   0.02899
 125        8PX         0.00000   0.00000   0.00000   0.00000  -0.00001
 126        8PY         0.00000   0.00000  -0.00001   0.00011   0.00059
 127        8PZ         0.00051  -0.00003  -0.00229  -0.00567  -0.07248
 128        9PX         0.00000   0.00000   0.00000   0.00000  -0.00001
 129        9PY         0.00000   0.00000  -0.00001   0.00005   0.00026
 130        9PZ         0.00032   0.00003  -0.00265   0.00083  -0.03157
 131       10PX         0.00000   0.00000   0.00000   0.00000  -0.00001
 132       10PY         0.00000   0.00000   0.00000   0.00002   0.00017
 133       10PZ         0.00095   0.00015   0.00270   0.00327  -0.05262
 134       11PX         0.00000   0.00000   0.00000   0.00000   0.00000
 135       11PY         0.00000   0.00000   0.00000   0.00000  -0.00003
 136       11PZ         0.00002   0.00002  -0.00040   0.00268  -0.00877
 137       12D 0       -0.00003   0.00001  -0.00035   0.00446   0.00457
 138       12D+1        0.00000   0.00000   0.00000   0.00000   0.00000
 139       12D-1        0.00000   0.00000   0.00000  -0.00002  -0.00009
 140       12D+2        0.00000   0.00000   0.00000   0.00000   0.00001
 141       12D-2        0.00000   0.00000   0.00000   0.00000   0.00000
 142       13D 0       -0.00022   0.00000  -0.00162   0.00815   0.00978
 143       13D+1        0.00000   0.00000   0.00000   0.00000   0.00000
 144       13D-1        0.00000   0.00000   0.00000  -0.00004  -0.00014
 145       13D+2        0.00000   0.00000   0.00000   0.00000   0.00001
 146       13D-2        0.00000   0.00000   0.00000   0.00000   0.00000
 147       14D 0       -0.00014  -0.00004  -0.00184  -0.00021   0.00541
 148       14D+1        0.00000   0.00000   0.00000   0.00000   0.00000
 149       14D-1        0.00000   0.00000   0.00000   0.00001   0.00002
 150       14D+2        0.00000   0.00000   0.00000  -0.00001  -0.00002
 151       14D-2        0.00000   0.00000   0.00000   0.00000   0.00000
 152       15F 0        0.00005   0.00000   0.00023  -0.00179  -0.00193
 153       15F+1        0.00000   0.00000   0.00000   0.00000   0.00000
 154       15F-1        0.00000   0.00000   0.00000   0.00001   0.00004
 155       15F+2        0.00000   0.00000   0.00000   0.00000  -0.00001
 156       15F-2        0.00000   0.00000   0.00000   0.00000   0.00000
 157       15F+3        0.00000   0.00000   0.00000   0.00000   0.00000
 158       15F-3       -0.00001   0.00000  -0.00001   0.00002   0.00009
 159       16F 0       -0.00005   0.00001   0.00005  -0.00092  -0.00173
 160       16F+1        0.00000   0.00000   0.00000   0.00000   0.00000
 161       16F-1        0.00000   0.00000   0.00000   0.00001   0.00002
 162       16F+2        0.00000   0.00000   0.00000   0.00000   0.00001
 163       16F-2        0.00000   0.00000   0.00000   0.00000   0.00000
 164       16F+3        0.00000   0.00000   0.00000   0.00000   0.00000
 165       16F-3        0.00003   0.00000   0.00002   0.00000  -0.00020
 166 6   F  1S          0.97742  -0.00002   0.21190   0.01292   0.02157
 167        2S         -0.01503   0.00000  -0.53165  -0.03345  -0.05721
 168        3S          0.04206   0.00000  -0.16472  -0.01062  -0.01850
 169        4S          0.00192  -0.00001  -0.36880  -0.02320  -0.04385
 170        5S         -0.00084  -0.00006  -0.04529   0.00416   0.00786
 171        6PX         0.00000   0.00000   0.00000   0.00000   0.00002
 172        6PY         0.00000   0.00000   0.00003   0.00019   0.00164
 173        6PZ         0.00048   0.00000   0.01354   0.01230   0.08802
 174        7PX         0.00000   0.00000   0.00000   0.00000   0.00002
 175        7PY         0.00000   0.00000   0.00003   0.00023   0.00197
 176        7PZ        -0.00012   0.00000   0.01478   0.01503   0.10590
 177        8PX         0.00000   0.00000   0.00000   0.00000   0.00002
 178        8PY         0.00000   0.00000   0.00003   0.00016   0.00151
 179        8PZ         0.00240  -0.00001   0.01248   0.01188   0.08425
 180        9PX         0.00000   0.00000   0.00000   0.00000   0.00000
 181        9PY         0.00000   0.00000   0.00001   0.00004   0.00040
 182        9PZ        -0.00008  -0.00002   0.00220   0.00305   0.02440
 183       10D 0       -0.00002   0.00000  -0.00013   0.00017   0.00060
 184       10D+1        0.00000   0.00000   0.00000   0.00000   0.00000
 185       10D-1        0.00000   0.00000   0.00000   0.00000   0.00001
 186       10D+2        0.00000   0.00000   0.00000   0.00000   0.00000
 187       10D-2        0.00000   0.00000   0.00000   0.00000   0.00000
 188       11D 0       -0.00003   0.00000  -0.00104   0.00089   0.00276
 189       11D+1        0.00000   0.00000   0.00000   0.00000   0.00000
 190       11D-1        0.00000   0.00000   0.00000   0.00001   0.00004
 191       11D+2        0.00000   0.00000   0.00000   0.00000   0.00000
 192       11D-2        0.00000   0.00000   0.00000   0.00000   0.00000
 193       12D 0        0.00080   0.00000  -0.00055   0.00034   0.00389
 194       12D+1        0.00000   0.00000   0.00000   0.00000   0.00000
 195       12D-1        0.00000   0.00000   0.00000  -0.00001   0.00002
 196       12D+2        0.00000   0.00000   0.00000  -0.00001  -0.00001
 197       12D-2        0.00000   0.00000   0.00000   0.00000   0.00000
 198       13F 0       -0.00006   0.00000  -0.00002   0.00013   0.00027
 199       13F+1        0.00000   0.00000   0.00000   0.00000   0.00000
 200       13F-1        0.00000   0.00000   0.00000   0.00000   0.00001
 201       13F+2        0.00000   0.00000   0.00000   0.00000   0.00000
 202       13F-2        0.00000   0.00000   0.00000   0.00000   0.00000
 203       13F+3        0.00000   0.00000   0.00000   0.00000   0.00000
 204       13F-3        0.00001   0.00000   0.00001   0.00002   0.00003
 205       14F 0        0.00020   0.00000  -0.00040  -0.00006   0.00063
 206       14F+1        0.00000   0.00000   0.00000   0.00000   0.00000
 207       14F-1        0.00000   0.00000   0.00000   0.00000   0.00000
 208       14F+2        0.00000   0.00000   0.00000   0.00000  -0.00001
 209       14F-2        0.00000   0.00000   0.00000   0.00000   0.00000
 210       14F+3        0.00000   0.00000   0.00000   0.00000   0.00000
 211       14F-3       -0.00001   0.00000  -0.00007  -0.00006  -0.00009
                          11        12        13        14        15
     Eigenvalues --     1.96436   1.96432   1.95922   1.95897   1.94910
   1 1   C  1S          0.00000   0.00157   0.00000   0.00165   0.00000
   2        2S          0.00000  -0.00432   0.00000  -0.00445   0.00000
   3        3S          0.00000  -0.00095   0.00000  -0.00086   0.00000
   4        4S          0.00000  -0.00091   0.00000   0.00165  -0.00001
   5        5S          0.00000   0.00067   0.00000   0.00121   0.00000
   6        6PX         0.09765  -0.00001   0.23118   0.00002   0.06809
   7        6PY         0.00001   0.09257  -0.00002   0.23162   0.00000
   8        6PZ        -0.00002   0.00016  -0.00004   0.00006  -0.00001
   9        7PX         0.13092  -0.00001   0.30654   0.00002   0.09466
  10        7PY         0.00001   0.12425  -0.00002   0.30704  -0.00001
  11        7PZ        -0.00002   0.00010  -0.00005   0.00009  -0.00002
  12        8PX         0.09562  -0.00001   0.23626   0.00002   0.07266
  13        8PY         0.00001   0.09051  -0.00002   0.23653   0.00000
  14        8PZ        -0.00002   0.00022  -0.00004   0.00019  -0.00001
  15        9PX        -0.00227   0.00000   0.01886   0.00000   0.01224
  16        9PY         0.00000  -0.00265   0.00000   0.01875   0.00000
  17        9PZ         0.00000   0.00007   0.00000   0.00005   0.00000
  18       10D 0        0.00000   0.00008   0.00000   0.00002   0.00000
  19       10D+1       -0.00271   0.00000  -0.00128   0.00000  -0.00374
  20       10D-1        0.00000  -0.00264   0.00000  -0.00126   0.00000
  21       10D+2        0.00000   0.00589   0.00000   0.01481   0.00000
  22       10D-2        0.00624   0.00000   0.01487   0.00000   0.00504
  23       11D 0        0.00000   0.00010   0.00000  -0.00019   0.00001
  24       11D+1       -0.01276   0.00000   0.00760  -0.00001  -0.01550
  25       11D-1        0.00000  -0.01275  -0.00001   0.00755   0.00000
  26       11D+2        0.00001   0.01963   0.00002   0.04538   0.00000
  27       11D-2        0.02060  -0.00001   0.04534  -0.00001   0.01708
  28       12D 0        0.00000   0.00028   0.00000   0.00020   0.00000
  29       12D+1       -0.00610   0.00000   0.00564  -0.00001   0.00117
  30       12D-1        0.00000  -0.00622  -0.00001   0.00567   0.00000
  31       12D+2        0.00001   0.01914   0.00001   0.03608   0.00000
  32       12D-2        0.02000  -0.00001   0.03594  -0.00001   0.01008
  33       13F 0        0.00000  -0.00001   0.00000  -0.00002   0.00000
  34       13F+1        0.00025   0.00000  -0.00202   0.00000  -0.00224
  35       13F-1        0.00000   0.00027   0.00000  -0.00201   0.00000
  36       13F+2        0.00000  -0.00063   0.00000  -0.00016   0.00000
  37       13F-2       -0.00064   0.00000  -0.00012   0.00000  -0.00033
  38       13F+3       -0.00001   0.00000  -0.00003   0.00000  -0.00001
  39       13F-3        0.00000  -0.00007   0.00000  -0.00010   0.00000
  40       14F 0        0.00000   0.00002   0.00000   0.00008   0.00000
  41       14F+1        0.00039   0.00000  -0.00582   0.00000  -0.00724
  42       14F-1        0.00000   0.00050   0.00000  -0.00575   0.00000
  43       14F+2        0.00000  -0.00385   0.00000  -0.00020   0.00000
  44       14F-2       -0.00385   0.00000  -0.00013   0.00000  -0.00324
  45       14F+3        0.00000   0.00000  -0.00003   0.00000   0.00001
  46       14F-3        0.00000   0.00002   0.00000   0.00008   0.00000
  47 2   H  1S         -0.00001  -0.06456  -0.00001  -0.15252   0.00000
  48        2S         -0.00001  -0.05959  -0.00001  -0.15952   0.00000
  49        3S          0.00001   0.05378   0.00001   0.11478   0.00000
  50        4S          0.00000  -0.00612   0.00000   0.01687   0.00000
  51        5PX         0.00203   0.00000   0.00425   0.00000   0.00103
  52        5PY         0.00000  -0.00505   0.00000  -0.01241   0.00000
  53        5PZ         0.00000   0.00011   0.00000  -0.00275   0.00000
  54        6PX         0.00796   0.00000   0.01346   0.00000   0.00370
  55        6PY         0.00000   0.00674   0.00000   0.01064   0.00000
  56        6PZ         0.00000  -0.00271   0.00000   0.00008   0.00000
  57        7PX         0.00923   0.00000   0.01330   0.00001   0.00281
  58        7PY         0.00000   0.01326   0.00000   0.04551   0.00000
  59        7PZ         0.00000   0.00040   0.00000   0.00736   0.00000
  60        8D 0        0.00000   0.00040   0.00000   0.00140   0.00000
  61        8D+1        0.00001   0.00000   0.00031   0.00000  -0.00003
  62        8D-1        0.00000  -0.00074   0.00000  -0.00028   0.00000
  63        8D+2        0.00000   0.00059   0.00000   0.00200   0.00000
  64        8D-2        0.00103   0.00000   0.00220   0.00000   0.00059
  65        9D 0        0.00000  -0.00063   0.00000   0.00143   0.00000
  66        9D+1       -0.00152   0.00000   0.00100   0.00000  -0.00117
  67        9D-1        0.00000  -0.00340   0.00000   0.00330   0.00000
  68        9D+2        0.00000  -0.00163   0.00000  -0.00278   0.00000
  69        9D-2        0.00169   0.00000   0.00292   0.00000   0.00114
  70 3   H  1S         -0.05817   0.03111  -0.13133   0.07520  -0.04058
  71        2S         -0.05242   0.02756  -0.13377   0.07620  -0.03996
  72        3S          0.04988  -0.02731   0.10311  -0.05941   0.00453
  73        4S         -0.00508   0.00305   0.01498  -0.00855   0.00093
  74        5PX        -0.00343   0.00295  -0.00820   0.00721  -0.00244
  75        5PY         0.00319   0.00029   0.00726   0.00024   0.00202
  76        5PZ         0.00002  -0.00005  -0.00243   0.00140   0.00015
  77        6PX         0.00743   0.00030   0.01188   0.00102   0.00515
  78        6PY         0.00033   0.00761   0.00100   0.01326  -0.00083
  79        6PZ        -0.00240   0.00137   0.00034  -0.00015  -0.00101
  80        7PX         0.01282  -0.00169   0.03754  -0.01378   0.00799
  81        7PY        -0.00206   0.00990  -0.01396   0.02144  -0.00299
  82        7PZ         0.00056  -0.00023   0.00656  -0.00375   0.00256
  83        8D 0        0.00035  -0.00018   0.00117  -0.00067   0.00035
  84        8D+1       -0.00055   0.00032  -0.00010   0.00024  -0.00023
  85        8D-1        0.00033  -0.00018   0.00024   0.00017   0.00011
  86        8D+2        0.00020   0.00089   0.00015   0.00218   0.00004
  87        8D-2        0.00071   0.00021   0.00200   0.00016   0.00054
  88        9D 0       -0.00048   0.00027   0.00126  -0.00075  -0.00013
  89        9D+1       -0.00288   0.00079   0.00281  -0.00103  -0.00064
  90        9D-1        0.00078  -0.00202  -0.00104   0.00155  -0.00031
  91        9D+2        0.00141   0.00084   0.00240   0.00157   0.00095
  92        9D-2       -0.00081   0.00133  -0.00130   0.00236  -0.00053
  93 4   H  1S          0.05819   0.03108   0.13134   0.07518   0.04058
  94        2S          0.05243   0.02754   0.13377   0.07619   0.03996
  95        3S         -0.04989  -0.02729  -0.10312  -0.05940  -0.00453
  96        4S          0.00508   0.00305  -0.01499  -0.00855  -0.00093
  97        5PX        -0.00343  -0.00295  -0.00820  -0.00721  -0.00244
  98        5PY        -0.00319   0.00029  -0.00726   0.00025  -0.00202
  99        5PZ        -0.00002  -0.00004   0.00243   0.00140  -0.00015
 100        6PX         0.00743  -0.00030   0.01188  -0.00102   0.00515
 101        6PY        -0.00033   0.00761  -0.00100   0.01326   0.00083
 102        6PZ         0.00240   0.00137  -0.00034  -0.00015   0.00101
 103        7PX         0.01282   0.00169   0.03754   0.01378   0.00799
 104        7PY         0.00206   0.00990   0.01395   0.02144   0.00299
 105        7PZ        -0.00057  -0.00023  -0.00657  -0.00375  -0.00256
 106        8D 0       -0.00035  -0.00018  -0.00117  -0.00067  -0.00035
 107        8D+1       -0.00056  -0.00032  -0.00010  -0.00025  -0.00023
 108        8D-1       -0.00033  -0.00018  -0.00024   0.00017  -0.00011
 109        8D+2       -0.00020   0.00089  -0.00015   0.00218  -0.00004
 110        8D-2        0.00071  -0.00021   0.00200  -0.00016   0.00054
 111        9D 0        0.00048   0.00027  -0.00126  -0.00075   0.00013
 112        9D+1       -0.00288  -0.00079   0.00281   0.00103  -0.00064
 113        9D-1       -0.00078  -0.00202   0.00104   0.00155   0.00031
 114        9D+2       -0.00141   0.00084  -0.00240   0.00157  -0.00096
 115        9D-2       -0.00081  -0.00133  -0.00130  -0.00236  -0.00053
 116 5   Cl 1S          0.00000   0.00022   0.00000   0.00019   0.00000
 117        2S          0.00000  -0.00082   0.00000  -0.00069   0.00000
 118        3S          0.00000   0.00181   0.00000   0.00158   0.00000
 119        4S          0.00000   0.00026   0.00000   0.00024   0.00000
 120        5S          0.00000   0.00095   0.00000   0.00077   0.00000
 121        6S          0.00000  -0.00032   0.00000  -0.00044   0.00000
 122        7PX        -0.00878   0.00000  -0.04367   0.00000   0.22357
 123        7PY         0.00000  -0.00835   0.00000  -0.04554  -0.00002
 124        7PZ         0.00000  -0.00047   0.00001  -0.00084  -0.00004
 125        8PX         0.02079   0.00000   0.10319   0.00001  -0.51146
 126        8PY         0.00000   0.01974  -0.00001   0.10750   0.00004
 127        8PZ         0.00000   0.00114  -0.00002   0.00197   0.00009
 128        9PX         0.00964   0.00000   0.04773   0.00000  -0.24706
 129        9PY         0.00000   0.00918   0.00000   0.04979   0.00002
 130        9PZ         0.00000   0.00049  -0.00001   0.00087   0.00004
 131       10PX         0.01038   0.00000   0.05591   0.00000  -0.36765
 132       10PY         0.00000   0.00996   0.00000   0.05882   0.00003
 133       10PZ         0.00000   0.00087  -0.00001   0.00151   0.00006
 134       11PX         0.00213   0.00000   0.00342   0.00000  -0.06217
 135       11PY         0.00000   0.00217   0.00000   0.00386   0.00000
 136       11PZ         0.00000   0.00015   0.00000   0.00027   0.00001
 137       12D 0        0.00000  -0.00006   0.00000  -0.00008   0.00000
 138       12D+1       -0.00188   0.00000  -0.00618   0.00000   0.00022
 139       12D-1        0.00000  -0.00177   0.00000  -0.00624   0.00000
 140       12D+2        0.00000   0.00010   0.00000   0.00055   0.00000
 141       12D-2        0.00011   0.00000   0.00054   0.00000   0.00024
 142       13D 0        0.00000  -0.00015   0.00000  -0.00020   0.00000
 143       13D+1       -0.00290   0.00000  -0.01096   0.00000   0.00068
 144       13D-1        0.00000  -0.00270   0.00000  -0.01108   0.00000
 145       13D+2        0.00000   0.00031   0.00000   0.00066   0.00000
 146       13D-2        0.00032   0.00000   0.00064   0.00000   0.00055
 147       14D 0        0.00000  -0.00009   0.00000  -0.00016   0.00000
 148       14D+1        0.00006   0.00000   0.00004   0.00000   0.00335
 149       14D-1        0.00000   0.00006   0.00000   0.00000   0.00000
 150       14D+2        0.00000  -0.00066   0.00000  -0.00007   0.00000
 151       14D-2       -0.00066   0.00000  -0.00007   0.00000   0.00006
 152       15F 0        0.00000   0.00003   0.00000   0.00003   0.00000
 153       15F+1        0.00088   0.00000   0.00263   0.00000  -0.00141
 154       15F-1        0.00000   0.00083   0.00000   0.00266   0.00000
 155       15F+2        0.00000  -0.00011   0.00000  -0.00034   0.00000
 156       15F-2       -0.00011   0.00000  -0.00034   0.00000  -0.00010
 157       15F+3        0.00000   0.00000   0.00000   0.00000   0.00000
 158       15F-3        0.00000   0.00000   0.00000   0.00000   0.00000
 159       16F 0        0.00000   0.00003   0.00000   0.00004   0.00000
 160       16F+1        0.00059   0.00000   0.00201   0.00000  -0.00179
 161       16F-1        0.00000   0.00056   0.00000   0.00206   0.00000
 162       16F+2        0.00000   0.00002   0.00000   0.00018   0.00000
 163       16F-2        0.00001   0.00000   0.00018   0.00000  -0.00020
 164       16F+3        0.00000   0.00000   0.00000   0.00000   0.00000
 165       16F-3        0.00000   0.00000   0.00000   0.00000   0.00000
 166 6   F  1S          0.00000  -0.00021   0.00000  -0.00017   0.00000
 167        2S          0.00000   0.00058   0.00000   0.00050   0.00000
 168        3S          0.00000   0.00019   0.00000   0.00017   0.00000
 169        4S          0.00000   0.00042   0.00000   0.00040   0.00000
 170        5S          0.00000  -0.00022   0.00000  -0.00021   0.00000
 171        6PX         0.33236  -0.00003  -0.16165  -0.00001  -0.02266
 172        6PY         0.00003   0.33550   0.00001  -0.15496   0.00000
 173        6PZ        -0.00006  -0.00167   0.00003  -0.00289   0.00001
 174        7PX         0.39646  -0.00004  -0.19167  -0.00001  -0.02682
 175        7PY         0.00004   0.40018   0.00001  -0.18369   0.00000
 176        7PZ        -0.00007  -0.00200   0.00003  -0.00345   0.00001
 177        8PX         0.32053  -0.00003  -0.16124  -0.00001  -0.02297
 178        8PY         0.00003   0.32366   0.00001  -0.15480   0.00000
 179        8PZ        -0.00006  -0.00165   0.00003  -0.00285   0.00001
 180        9PX         0.10078  -0.00001  -0.05687   0.00000  -0.01118
 181        9PY         0.00001   0.10188   0.00000  -0.05486   0.00000
 182        9PZ        -0.00002  -0.00051   0.00001  -0.00084   0.00000
 183       10D 0        0.00000  -0.00001   0.00000  -0.00001   0.00000
 184       10D+1        0.00060   0.00000   0.00009   0.00000   0.00012
 185       10D-1        0.00000   0.00060   0.00000   0.00010   0.00000
 186       10D+2        0.00000   0.00002   0.00000   0.00004   0.00000
 187       10D-2        0.00002   0.00000   0.00004   0.00000   0.00001
 188       11D 0        0.00000  -0.00004   0.00000  -0.00005   0.00000
 189       11D+1        0.00242   0.00000   0.00122   0.00000   0.00060
 190       11D-1        0.00000   0.00240   0.00000   0.00128   0.00000
 191       11D+2        0.00000   0.00004   0.00000   0.00026   0.00000
 192       11D-2        0.00005   0.00000   0.00025   0.00000   0.00018
 193       12D 0        0.00000  -0.00007   0.00000  -0.00012   0.00000
 194       12D+1        0.00593   0.00000  -0.00355   0.00000   0.00031
 195       12D-1        0.00000   0.00601   0.00000  -0.00344   0.00000
 196       12D+2        0.00000   0.00003   0.00000  -0.00028   0.00000
 197       12D-2        0.00004   0.00000  -0.00028   0.00000  -0.00037
 198       13F 0        0.00000   0.00000   0.00000   0.00000   0.00000
 199       13F+1        0.00022   0.00000   0.00025   0.00000   0.00006
 200       13F-1        0.00000   0.00021   0.00000   0.00026   0.00000
 201       13F+2        0.00000   0.00005   0.00000   0.00011   0.00000
 202       13F-2        0.00005   0.00000   0.00011   0.00000   0.00006
 203       13F+3        0.00000   0.00000   0.00000   0.00000   0.00000
 204       13F-3        0.00000   0.00000   0.00000   0.00000   0.00000
 205       14F 0        0.00000  -0.00002   0.00000  -0.00002   0.00000
 206       14F+1        0.00146   0.00000  -0.00087   0.00000   0.00001
 207       14F-1        0.00000   0.00148   0.00000  -0.00084   0.00000
 208       14F+2        0.00000  -0.00013   0.00000  -0.00024   0.00000
 209       14F-2       -0.00013   0.00000  -0.00024   0.00000  -0.00016
 210       14F+3        0.00000   0.00000   0.00000   0.00000   0.00000
 211       14F-3        0.00000   0.00000   0.00000   0.00000   0.00000
                          16        17        18        19        20
     Eigenvalues --     1.94908   1.94876   1.93532   0.06022   0.02496
   1 1   C  1S         -0.00236   0.05346  -0.01585  -0.02405   0.00207
   2        2S          0.00677  -0.15221   0.05115   0.06665  -0.00754
   3        3S          0.00168  -0.03588   0.01677   0.02434  -0.00348
   4        4S          0.01402  -0.29220   0.08710  -0.22000   0.00006
   5        5S          0.00278  -0.05753   0.03918  -0.02853   0.00117
   6        6PX         0.00001  -0.00001  -0.00002   0.00005   0.00009
   7        6PY         0.06966   0.00442  -0.00035   0.00013   0.16061
   8        6PZ         0.00205  -0.04566  -0.12875   0.27952   0.00043
   9        7PX         0.00001  -0.00001  -0.00003   0.00008   0.00016
  10        7PY         0.09674   0.00621  -0.00068   0.00048   0.29980
  11        7PZ         0.00289  -0.06466  -0.18069   0.44345   0.00070
  12        8PX         0.00001  -0.00001  -0.00001   0.00004   0.00007
  13        8PY         0.07439   0.00477  -0.00073  -0.00006   0.13761
  14        8PZ         0.00303  -0.06403  -0.07642   0.20132  -0.00009
  15        9PX         0.00000   0.00000   0.00000   0.00000   0.00002
  16        9PY         0.01239   0.00070  -0.00008  -0.00006   0.02940
  17        9PZ         0.00004  -0.00123  -0.00163  -0.00009  -0.00003
  18       10D 0       -0.00045   0.00935  -0.01106  -0.00875   0.00004
  19       10D+1        0.00000   0.00000   0.00000   0.00000   0.00001
  20       10D-1       -0.00373  -0.00019  -0.00002   0.00010   0.02538
  21       10D+2        0.00512   0.00031  -0.00002   0.00004   0.00362
  22       10D-2        0.00000   0.00000   0.00000   0.00000   0.00001
  23       11D 0       -0.00237   0.04987  -0.04571   0.06666  -0.00087
  24       11D+1        0.00000   0.00002  -0.00001   0.00002   0.00002
  25       11D-1       -0.01534  -0.00078   0.00000   0.00004   0.05939
  26       11D+2        0.01742   0.00122  -0.00017   0.00016   0.07259
  27       11D-2       -0.00001   0.00000   0.00000   0.00000   0.00002
  28       12D 0       -0.00130   0.02813  -0.00385  -0.01678  -0.00017
  29       12D+1        0.00000   0.00001   0.00000   0.00000   0.00001
  30       12D-1        0.00121   0.00010  -0.00011   0.00009   0.01895
  31       12D+2        0.01028   0.00085  -0.00015   0.00004   0.01681
  32       12D-2        0.00000   0.00000   0.00000   0.00000   0.00001
  33       13F 0        0.00010  -0.00209  -0.00327  -0.00588  -0.00014
  34       13F+1        0.00000   0.00000   0.00000   0.00000  -0.00001
  35       13F-1       -0.00226  -0.00013   0.00000  -0.00002  -0.00996
  36       13F+2       -0.00033  -0.00003   0.00002  -0.00003   0.00310
  37       13F-2        0.00000   0.00000   0.00000   0.00000   0.00000
  38       13F+3        0.00000   0.00000   0.00000   0.00000   0.00000
  39       13F-3        0.00012  -0.00311   0.00117  -0.00057  -0.00010
  40       14F 0        0.00029  -0.00543  -0.00087   0.01163  -0.00024
  41       14F+1        0.00000   0.00000   0.00000   0.00000   0.00000
  42       14F-1       -0.00730  -0.00035   0.00002  -0.00009  -0.00294
  43       14F+2       -0.00322  -0.00021   0.00003   0.00001  -0.00244
  44       14F-2        0.00000   0.00000   0.00000   0.00001   0.00000
  45       14F+3        0.00000  -0.00001   0.00000  -0.00001   0.00000
  46       14F-3        0.00070  -0.01518   0.00916  -0.03758   0.00007
  47 2   H  1S         -0.04634  -0.03687   0.02904  -0.00683   0.04637
  48        2S         -0.04827  -0.00671   0.02346   0.07960   0.27512
  49        3S          0.00398   0.02173   0.02038   0.06745   0.17512
  50        4S          0.00108   0.00009   0.00197   0.00722   0.07130
  51        5PX         0.00000   0.00000   0.00000   0.00000   0.00000
  52        5PY        -0.00356  -0.00234   0.00246  -0.00189  -0.00873
  53        5PZ         0.00030  -0.00264  -0.00314   0.01396  -0.01197
  54        6PX         0.00000   0.00000   0.00000   0.00001   0.00001
  55        6PY         0.00531   0.00616  -0.00174   0.01066   0.06314
  56        6PZ        -0.00107  -0.00117  -0.01018   0.02834  -0.00556
  57        7PX         0.00000   0.00000   0.00000   0.00000   0.00001
  58        7PY         0.00966   0.01182  -0.00184   0.01252   0.05294
  59        7PZ         0.00254   0.00811   0.00298  -0.01338   0.00574
  60        8D 0        0.00042   0.00017  -0.00084   0.00054   0.00249
  61        8D+1        0.00000   0.00000   0.00000   0.00000   0.00000
  62        8D-1       -0.00028  -0.00023  -0.00168   0.00668  -0.00399
  63        8D+2        0.00052   0.00053  -0.00060   0.00174   0.00243
  64        8D-2        0.00000   0.00000   0.00000   0.00000   0.00000
  65        9D 0       -0.00018   0.00085  -0.00278   0.00579  -0.00382
  66        9D+1        0.00000   0.00000   0.00000   0.00000   0.00000
  67        9D-1       -0.00055   0.00198  -0.00058  -0.00554   0.01547
  68        9D+2       -0.00119   0.00095   0.00039  -0.00118  -0.01034
  69        9D-2        0.00000   0.00000   0.00000   0.00000   0.00001
  70 3   H  1S          0.02549  -0.03232   0.02876  -0.00681  -0.01954
  71        2S          0.02371  -0.00165   0.02288   0.07959  -0.13168
  72        3S         -0.00400   0.02163   0.02062   0.06881  -0.08658
  73        4S         -0.00058   0.00007   0.00195   0.00723  -0.03581
  74        5PX         0.00216  -0.00172   0.00214  -0.00174   0.00516
  75        5PY        -0.00015   0.00107  -0.00125   0.00101   0.00014
  76        5PZ         0.00005  -0.00267  -0.00322   0.01430   0.00614
  77        6PX        -0.00101   0.00476  -0.00130   0.00844  -0.02300
  78        6PY         0.00448  -0.00241   0.00068  -0.00479   0.02159
  79        6PZ         0.00063  -0.00091  -0.01031   0.02819   0.00263
  80        7PX        -0.00356   0.00950  -0.00138   0.01105  -0.02282
  81        7PY         0.00497  -0.00515   0.00068  -0.00637   0.01264
  82        7PZ        -0.00186   0.00800   0.00318  -0.01397  -0.00304
  83        8D 0       -0.00021   0.00013  -0.00085   0.00061  -0.00129
  84        8D+1        0.00012  -0.00017  -0.00148   0.00583   0.00251
  85        8D-1       -0.00010   0.00010   0.00085  -0.00337   0.00038
  86        8D+2        0.00061  -0.00022   0.00030  -0.00092   0.00236
  87        8D-2        0.00001   0.00046  -0.00053   0.00162  -0.00011
  88        9D 0        0.00004   0.00085  -0.00283   0.00594   0.00171
  89        9D+1       -0.00040   0.00174  -0.00047  -0.00509  -0.00488
  90        9D-1       -0.00094  -0.00106   0.00027   0.00298   0.00724
  91        9D+2        0.00064  -0.00048  -0.00019   0.00057  -0.00151
  92        9D-2        0.00092   0.00101   0.00028  -0.00097   0.00481
  93 4   H  1S          0.02548  -0.03233   0.02876  -0.00681  -0.01957
  94        2S          0.02371  -0.00165   0.02288   0.07959  -0.13186
  95        3S         -0.00400   0.02163   0.02062   0.06881  -0.08670
  96        4S         -0.00058   0.00007   0.00195   0.00723  -0.03586
  97        5PX        -0.00216   0.00172  -0.00215   0.00174  -0.00516
  98        5PY        -0.00015   0.00107  -0.00125   0.00101   0.00013
  99        5PZ         0.00005  -0.00267  -0.00321   0.01430   0.00615
 100        6PX         0.00101  -0.00476   0.00130  -0.00843   0.02305
 101        6PY         0.00448  -0.00241   0.00068  -0.00479   0.02160
 102        6PZ         0.00063  -0.00091  -0.01031   0.02819   0.00263
 103        7PX         0.00356  -0.00950   0.00138  -0.01106   0.02285
 104        7PY         0.00497  -0.00515   0.00068  -0.00636   0.01265
 105        7PZ        -0.00187   0.00800   0.00318  -0.01397  -0.00306
 106        8D 0       -0.00021   0.00013  -0.00085   0.00061  -0.00129
 107        8D+1       -0.00012   0.00017   0.00148  -0.00583  -0.00252
 108        8D-1       -0.00010   0.00010   0.00085  -0.00337   0.00038
 109        8D+2        0.00061  -0.00022   0.00030  -0.00092   0.00236
 110        8D-2       -0.00001  -0.00046   0.00053  -0.00162   0.00011
 111        9D 0        0.00004   0.00085  -0.00283   0.00594   0.00171
 112        9D+1        0.00040  -0.00173   0.00047   0.00509   0.00490
 113        9D-1       -0.00094  -0.00106   0.00027   0.00298   0.00724
 114        9D+2        0.00064  -0.00048  -0.00019   0.00058  -0.00152
 115        9D-2       -0.00093  -0.00101  -0.00028   0.00097  -0.00481
 116 5   Cl 1S         -0.00046   0.01022   0.00049  -0.01679   0.00002
 117        2S          0.00176  -0.03901  -0.00162   0.05631  -0.00004
 118        3S         -0.00357   0.08063   0.01114  -0.15675   0.00017
 119        4S         -0.00055   0.01245   0.00450  -0.03985  -0.00001
 120        5S         -0.00316   0.06912   0.01211  -0.04616   0.00024
 121        6S         -0.00104   0.02041  -0.01254   0.01560  -0.00002
 122        7PX         0.00002   0.00000  -0.00004  -0.00003   0.00001
 123        7PY         0.22297   0.01062  -0.00021  -0.00004   0.02111
 124        7PZ        -0.00161   0.02657  -0.21011  -0.16338   0.00058
 125        8PX        -0.00004   0.00000   0.00008   0.00006  -0.00002
 126        8PY        -0.51005  -0.02427   0.00047   0.00011  -0.03295
 127        8PZ         0.00374  -0.06203   0.46457   0.36065  -0.00129
 128        9PX        -0.00002   0.00000   0.00004   0.00004  -0.00002
 129        9PY        -0.24641  -0.01174   0.00024   0.00006  -0.03506
 130        9PZ         0.00183  -0.03095   0.21827   0.20642  -0.00085
 131       10PX        -0.00003  -0.00001   0.00006   0.00001   0.00001
 132       10PY        -0.36681  -0.01760   0.00039   0.00001   0.01686
 133       10PZ         0.00401  -0.07209   0.31777   0.02954   0.00055
 134       11PX         0.00000   0.00000   0.00001   0.00000   0.00000
 135       11PY        -0.06211  -0.00303   0.00010   0.00001   0.00607
 136       11PZ         0.00121  -0.02399   0.04620   0.00735   0.00028
 137       12D 0        0.00020  -0.00473  -0.01239   0.06743  -0.00126
 138       12D+1        0.00000   0.00000   0.00000   0.00002  -0.00003
 139       12D-1        0.00015  -0.00004   0.00002   0.00004  -0.05787
 140       12D+2        0.00025   0.00002   0.00000   0.00000   0.00062
 141       12D-2        0.00000   0.00000   0.00000   0.00000  -0.00001
 142       13D 0        0.00030  -0.00757  -0.01942   0.09780  -0.00187
 143       13D+1        0.00000   0.00000  -0.00001   0.00003  -0.00005
 144       13D-1        0.00057  -0.00005   0.00004   0.00001  -0.08633
 145       13D+2        0.00057   0.00004   0.00000  -0.00001   0.00098
 146       13D-2        0.00000   0.00000   0.00000   0.00000  -0.00002
 147       14D 0       -0.00013   0.00151  -0.01324   0.03012  -0.00018
 148       14D+1        0.00000   0.00000   0.00000   0.00001  -0.00001
 149       14D-1        0.00333   0.00016   0.00000   0.00000  -0.00936
 150       14D+2        0.00007   0.00000  -0.00001  -0.00001   0.00018
 151       14D-2        0.00000   0.00000   0.00000   0.00000   0.00000
 152       15F 0       -0.00004   0.00099   0.00459  -0.00358   0.00010
 153       15F+1        0.00000   0.00000   0.00000   0.00000   0.00000
 154       15F-1       -0.00138  -0.00005   0.00000   0.00000   0.00499
 155       15F+2       -0.00011  -0.00001   0.00000   0.00000  -0.00020
 156       15F-2        0.00000   0.00000   0.00000   0.00000   0.00000
 157       15F+3        0.00000   0.00000   0.00000   0.00000   0.00000
[...]
  81        7PY        -2.29762 -10.01360  -0.58877   0.99177  -0.84150
  82        7PZ        -1.22190   1.89633  -2.91947   0.02170  -0.39206
  83        8D 0       -0.03888   0.00104   0.01034   0.02517   0.00949
  84        8D+1        0.00933  -0.01032  -0.02903   0.00819   0.00943
  85        8D-1       -0.01169  -0.03683  -0.00775  -0.00490   0.00024
  86        8D+2        0.07801   0.07866   0.04800   0.02459   0.01274
  87        8D-2       -0.10417   0.06713   0.03654  -0.04227   0.03027
  88        9D 0       -0.51933  -0.15816   0.39672  -0.14771   0.13117
  89        9D+1       -0.17880   0.29103  -0.04825  -0.03516  -0.15667
  90        9D-1        0.16469   0.22348   0.25352   0.02384  -0.00250
  91        9D+2       -0.29487  -0.99653  -1.38026  -0.36018  -0.50665
  92        9D-2       -0.00094  -1.37890   0.54345   0.62071  -0.14173
  93 4   H  1S         -0.03784   0.00215  -0.01054  -0.00954   0.01338
  94        2S          0.55078   1.55067   3.00678  -0.51545  -1.07560
  95        3S          9.59513  12.36472  23.89389  -3.20506 -12.76516
  96        4S          1.43862  -1.14640  -1.57315  -1.98330  -5.54438
  97        5PX        -0.02914   0.00455   0.10512  -0.08049  -0.07314
  98        5PY         0.00102   0.10429  -0.00212  -0.04660   0.01096
  99        5PZ         0.05936  -0.00494   0.00911   0.03073   0.00506
 100        6PX        -0.62056  -0.27664  -2.15020   0.60769   0.78729
 101        6PY        -0.59791  -1.57966  -0.38686   0.35102  -0.07735
 102        6PZ        -0.32128   0.06789   0.02408  -0.16348  -0.08006
 103        7PX        -0.87118   0.60070  -9.68815   1.72369   4.72280
 104        7PY        -2.29782 -10.01371   0.58868   0.99135  -0.83985
 105        7PZ        -1.22314   1.89573   2.92249   0.02118  -0.39417
 106        8D 0       -0.03887   0.00103  -0.01035   0.02518   0.00950
 107        8D+1       -0.00937   0.01029  -0.02902  -0.00819  -0.00944
 108        8D-1       -0.01173  -0.03681   0.00774  -0.00491   0.00024
 109        8D+2        0.07809   0.07864  -0.04794   0.02460   0.01271
 110        8D-2        0.10412  -0.06719   0.03662   0.04226  -0.03029
 111        9D 0       -0.51926  -0.15792  -0.39699  -0.14773   0.13121
 112        9D+1        0.17866  -0.29070  -0.04898   0.03519   0.15704
 113        9D-1        0.16478   0.22310  -0.25359   0.02405  -0.00250
 114        9D+2       -0.29551  -0.99608   1.38022  -0.36046  -0.50645
 115        9D-2        0.00088   1.37940   0.54285  -0.62050   0.14178
 116 5   Cl 1S          0.02011  -0.00320   0.00001   0.01171  -0.00001
 117        2S          0.27846  -0.04419   0.00007   0.16289  -0.00017
 118        3S          0.77587  -0.12349   0.00020   0.45770  -0.00025
 119        4S         -0.04255   0.00613  -0.00001  -0.01454   0.00038
 120        5S         -4.32509   0.68560  -0.00110  -3.02397   0.00609
 121        6S         -9.67545   1.60500  -0.00233 -13.20897  -0.02340
 122        7PX         0.00000   0.00000   0.00076   0.00000   0.00000
 123        7PY         0.00016   0.00059   0.00000   0.00007  -0.00294
 124        7PZ        -0.00439   0.00106   0.00000  -0.02264  -0.00013
 125        8PX        -0.00001   0.00000   0.01764  -0.00005  -0.00003
 126        8PY         0.00332   0.01642   0.00000   0.00113  -0.05904
 127        8PZ        -0.06158   0.01436  -0.00001  -0.31545  -0.00176
 128        9PX         0.00000   0.00000  -0.00387   0.00001   0.00000
 129        9PY        -0.00079  -0.00299   0.00000  -0.00024   0.00978
 130        9PZ         0.00134  -0.00155   0.00000   0.07935   0.00045
 131       10PX         0.00104  -0.00017  -0.04580   0.00090   0.00018
 132       10PY         0.00732  -0.06606   0.00001  -0.00454   0.42309
 133       10PZ         5.83749  -0.95754   0.00145   5.06003   0.00846
 134       11PX         0.00042  -0.00009  -1.13407   0.00058  -0.00010
 135       11PY        -0.17798  -1.13432   0.00004  -0.00675  -0.25177
 136       11PZ         0.77203  -0.13340   0.00037   3.34558   0.01020
 137       12D 0        0.06739  -0.01081   0.00001   0.00190   0.00002
 138       12D+1        0.00001   0.00000   0.03073   0.00000   0.00000
 139       12D-1        0.00546   0.02998   0.00000   0.00034  -0.00335
 140       12D+2       -0.00237  -0.00786   0.00000  -0.00003   0.01217
 141       12D-2        0.00000   0.00001  -0.00897   0.00000   0.00000
 142       13D 0       -0.38404   0.06144  -0.00006  -0.07062  -0.00034
 143       13D+1       -0.00009   0.00001  -0.11378  -0.00002   0.00002
 144       13D-1       -0.02082  -0.10947   0.00000  -0.00131   0.02418
 145       13D+2        0.00625   0.01805  -0.00001   0.00024  -0.04399
 146       13D-2       -0.00001  -0.00002   0.02111   0.00000   0.00000
 147       14D 0       -1.37130   0.22893  -0.00043  -1.23232  -0.00391
 148       14D+1       -0.00049   0.00010   0.29543  -0.00038  -0.00018
 149       14D-1        0.04449   0.30584   0.00000   0.00666  -0.32551
 150       14D+2       -0.01118  -0.06867   0.00003  -0.00415   0.20402
 151       14D-2        0.00003   0.00008  -0.06159   0.00000  -0.00005
 152       15F 0       -0.04234   0.00748  -0.00001   0.00131  -0.00009
 153       15F+1       -0.00002   0.00001   0.00515   0.00000  -0.00001
 154       15F-1        0.00071   0.00512   0.00000   0.00019  -0.01875
 155       15F+2       -0.00114  -0.00971   0.00000  -0.00079   0.01054
 156       15F-2        0.00000   0.00001  -0.00858  -0.00001   0.00000
 157       15F+3        0.00000   0.00000   0.00002   0.00001   0.00000
 158       15F-3       -0.00932   0.00115   0.00000   0.02285   0.00017
 159       16F 0        0.22997  -0.03862   0.00006   0.08806   0.00068
 160       16F+1        0.00010  -0.00003  -0.01487   0.00004   0.00004
 161       16F-1       -0.00177  -0.01775  -0.00001  -0.00101   0.06433
 162       16F+2        0.00610   0.04657   0.00001   0.00238  -0.04325
 163       16F-2       -0.00002  -0.00002   0.04257   0.00001   0.00002
 164       16F+3        0.00001   0.00001  -0.00007  -0.00002  -0.00001
 165       16F-3        0.01948  -0.00243   0.00001  -0.04263  -0.00042
 166 6   F  1S          0.03994  -0.00589   0.00001  -0.02274   0.00006
 167        2S          0.14067  -0.02038   0.00004  -0.08636   0.00029
 168        3S         -0.07146   0.01080  -0.00002   0.03683  -0.00003
 169        4S         -0.37448   0.05419  -0.00010  -0.01926  -0.00087
 170        5S         -0.08089   0.01988  -0.00001  -5.94197   0.00185
 171        6PX         0.00000   0.00000  -0.00742   0.00000   0.00000
 172        6PY        -0.00117  -0.00725   0.00000  -0.00001   0.00163
 173        6PZ         0.00522  -0.00100   0.00000   0.00222   0.00007
 174        7PX        -0.00002   0.00000   0.03804   0.00000   0.00000
 175        7PY         0.00580   0.03785   0.00000   0.00003  -0.00587
 176        7PZ        -0.06218   0.01068  -0.00002   0.00276  -0.00025
 177        8PX         0.00017  -0.00003  -0.26249  -0.00004   0.00000
 178        8PY        -0.03804  -0.26623   0.00001  -0.00036   0.00087
 179        8PZ         0.61713  -0.10128   0.00020  -0.24778  -0.00076
 180        9PX         0.00005  -0.00002  -0.82127  -0.00043  -0.00010
 181        9PY        -0.11470  -0.83120   0.00003  -0.00348  -0.23224
 182        9PZ        -0.87201   0.14646  -0.00006  -2.49487  -0.00067
 183       10D 0        0.01112  -0.00175   0.00001  -0.00797   0.00004
 184       10D+1        0.00001   0.00000  -0.01462   0.00000   0.00000
 185       10D-1       -0.00206  -0.01471   0.00000  -0.00004   0.00219
 186       10D+2        0.00101   0.00483   0.00000   0.00001   0.00283
 187       10D-2        0.00000   0.00000   0.00520   0.00000   0.00000
 188       11D 0       -0.04114   0.00662  -0.00002   0.01569  -0.00011
 189       11D+1       -0.00002   0.00001   0.04696   0.00000   0.00000
 190       11D-1        0.00649   0.04731   0.00000   0.00009  -0.00376
 191       11D+2       -0.00362  -0.01635   0.00000   0.00000  -0.01006
 192       11D-2        0.00001   0.00001  -0.01789   0.00000   0.00000
 193       12D 0        0.40866  -0.06641   0.00015  -0.01159  -0.00046
 194       12D+1        0.00016  -0.00004  -0.13640   0.00000  -0.00002
 195       12D-1       -0.01715  -0.14226   0.00000  -0.00002  -0.03079
 196       12D+2        0.01366   0.06014   0.00000   0.00007   0.01930
 197       12D-2       -0.00002  -0.00004   0.06701   0.00000   0.00000
 198       13F 0       -0.02697   0.00456   0.00000  -0.00757   0.00000
 199       13F+1       -0.00001   0.00000  -0.01809   0.00000   0.00000
 200       13F-1       -0.00269  -0.01812   0.00000  -0.00021   0.00803
 201       13F+2       -0.00158  -0.00891  -0.00001   0.00004   0.00276
 202       13F-2        0.00000   0.00000  -0.00950   0.00000   0.00000
 203       13F+3        0.00000   0.00000  -0.00006   0.00000   0.00000
 204       13F-3        0.01288  -0.00188   0.00000  -0.00126  -0.00009
 205       14F 0        0.06680  -0.01126   0.00000   0.01170  -0.00001
 206       14F+1        0.00002  -0.00001   0.03949   0.00000  -0.00001
 207       14F-1        0.00621   0.03856  -0.00001   0.00039  -0.01757
 208       14F+2        0.00430   0.02452   0.00002  -0.00002  -0.00654
 209       14F-2        0.00000   0.00000   0.02590   0.00000  -0.00001
 210       14F+3       -0.00001   0.00001   0.00009   0.00000   0.00000
 211       14F-3       -0.01748   0.00248   0.00000   0.00240   0.00017
                         211
     Eigenvalues --     0.00000
   1 1   C  1S          0.00000
   2        2S         -0.00001
   3        3S          0.00000
   4        4S         -0.00010
   5        5S         -0.00007
   6        6PX        -0.00743
   7        6PY         0.00000
   8        6PZ         0.00000
   9        7PX         1.53907
  10        7PY        -0.00062
  11        7PZ        -0.00027
  12        8PX        17.39759
  13        8PY        -0.00727
  14        8PZ        -0.00309
  15        9PX         7.87016
  16        9PY        -0.00334
  17        9PZ        -0.00140
  18       10D 0        0.00000
  19       10D+1       -0.00157
  20       10D-1        0.00000
  21       10D+2        0.00000
  22       10D-2        0.02193
  23       11D 0        0.00007
  24       11D+1       -0.21000
  25       11D-1        0.00001
  26       11D+2       -0.00003
  27       11D-2        0.42453
  28       12D 0        0.00039
  29       12D+1       -1.28516
  30       12D-1        0.00064
  31       12D+2       -0.00019
  32       12D-2       -0.55470
  33       13F 0       -0.00002
  34       13F+1        0.03859
  35       13F-1       -0.00002
  36       13F+2        0.00001
  37       13F-2        0.00929
  38       13F+3        0.00032
  39       13F-3        0.00000
  40       14F 0        0.00018
  41       14F+1       -0.40614
  42       14F-1        0.00019
  43       14F+2       -0.00011
  44       14F-2       -0.07977
  45       14F+3        0.00172
  46       14F-3       -0.00002
  47 2   H  1S          0.00001
  48        2S         -0.00060
  49        3S         -0.00740
  50        4S         -0.00327
  51        5PX         0.05142
  52        5PY         0.00003
  53        5PZ        -0.00001
  54        6PX        -0.50650
  55        6PY        -0.00030
  56        6PZ         0.00004
  57        7PX        -3.44190
  58        7PY        -0.00170
  59        7PZ         0.00037
  60        8D 0        0.00000
  61        8D+1        0.00564
  62        8D-1        0.00000
  63        8D+2        0.00002
  64        8D-2        0.03025
  65        9D 0        0.00010
  66        9D+1       -0.09096
  67        9D-1        0.00003
  68        9D+2       -0.00008
  69        9D-2       -0.57123
  70 3   H  1S         -0.02307
  71        2S          1.93605
  72        3S         22.63941
  73        4S          9.66967
  74        5PX        -0.07525
  75        5PY         0.07375
  76        5PZ        -0.00915
  77        6PX         0.86906
  78        6PY        -0.80217
  79        6PZ         0.14539
  80        7PX         4.76576
  81        7PY        -4.77210
  82        7PZ         0.71765
  83        8D 0       -0.01625
  84        8D+1       -0.01043
  85        8D-1        0.00920
  86        8D+2        0.03008
  87        8D-2       -0.02337
  88        9D 0       -0.23246
  89        9D+1        0.18394
  90        9D-1       -0.15980
  91        9D+2       -0.12683
  92        9D-2       -0.35191
  93 4   H  1S          0.02306
  94        2S         -1.93545
  95        3S        -22.63189
  96        4S         -9.66637
  97        5PX        -0.07522
  98        5PY        -0.07374
  99        5PZ         0.00918
 100        6PX         0.86875
 101        6PY         0.80200
 102        6PZ        -0.14565
 103        7PX         4.76393
 104        7PY         4.77138
 105        7PZ        -0.71911
 106        8D 0        0.01625
 107        8D+1       -0.01041
 108        8D-1       -0.00918
 109        8D+2       -0.03011
 110        8D-2       -0.02334
 111        9D 0        0.23227
 112        9D+1        0.18399
 113        9D-1        0.15988
 114        9D+2        0.12701
 115        9D-2       -0.35200
 116 5   Cl 1S          0.00000
 117        2S          0.00000
 118        3S          0.00000
 119        4S          0.00000
 120        5S          0.00000
 121        6S          0.00001
 122        7PX        -0.00302
 123        7PY         0.00000
 124        7PZ         0.00000
 125        8PX        -0.05986
 126        8PY         0.00002
 127        8PZ         0.00001
 128        9PX         0.01016
 129        9PY         0.00000
 130        9PZ         0.00000
 131       10PX         0.42564
 132       10PY        -0.00018
 133       10PZ        -0.00008
 134       11PX        -0.24395
 135       11PY         0.00011
 136       11PZ         0.00004
 137       12D 0        0.00000
 138       12D+1       -0.00381
 139       12D-1        0.00000
 140       12D+2        0.00000
 141       12D-2        0.01202
 142       13D 0       -0.00001
 143       13D+1        0.02611
 144       13D-1        0.00000
 145       13D+2        0.00001
 146       13D-2       -0.04350
 147       14D 0        0.00010
 148       14D+1       -0.32749
 149       14D-1        0.00010
 150       14D+2       -0.00007
 151       14D-2        0.20247
 152       15F 0        0.00001
 153       15F+1       -0.01838
 154       15F-1        0.00001
 155       15F+2       -0.00001
 156       15F-2        0.01065
 157       15F+3       -0.00006
 158       15F-3        0.00000
 159       16F 0       -0.00003
 160       16F+1        0.06288
 161       16F-1       -0.00002
 162       16F+2        0.00002
 163       16F-2       -0.04323
 164       16F+3        0.00012
 165       16F-3       -0.00001
 166 6   F  1S          0.00000
 167        2S          0.00000
 168        3S          0.00000
 169        4S          0.00000
 170        5S          0.00000
 171        6PX         0.00169
 172        6PY         0.00000
 173        6PZ         0.00000
 174        7PX        -0.00606
 175        7PY         0.00000
 176        7PZ         0.00000
 177        8PX         0.00081
 178        8PY         0.00000
 179        8PZ         0.00000
 180        9PX        -0.22900
 181        9PY         0.00010
 182        9PZ         0.00004
 183       10D 0        0.00000
 184       10D+1        0.00220
 185       10D-1        0.00000
 186       10D+2        0.00000
 187       10D-2        0.00293
 188       11D 0        0.00000
 189       11D+1       -0.00379
 190       11D-1        0.00000
 191       11D+2        0.00000
 192       11D-2       -0.01036
 193       12D 0        0.00001
 194       12D+1       -0.03208
 195       12D-1        0.00001
 196       12D+2       -0.00001
 197       12D-2        0.01980
 198       13F 0        0.00000
 199       13F+1        0.00811
 200       13F-1        0.00000
 201       13F+2        0.00000
 202       13F-2        0.00264
 203       13F+3       -0.00001
 204       13F-3        0.00000
 205       14F 0        0.00001
 206       14F+1       -0.01802
 207       14F-1        0.00001
 208       14F+2        0.00000
 209       14F-2       -0.00644
 210       14F+3       -0.00002
 211       14F-3        0.00000
          Condensed to atoms (all electrons):
              1          2          3          4          5          6
     1  C    6.998268  -0.001288  -0.008940  -0.008940  -0.050956  -0.099762
     2  H   -0.001288   0.546517   0.019405   0.019405  -0.018908   0.003902
     3  H   -0.008940   0.019405   0.546594   0.021138  -0.018968   0.004328
     4  H   -0.008940   0.019405   0.021138   0.546594  -0.018969   0.004326
     5  Cl  -0.050956  -0.018908  -0.018968  -0.018969  17.709786   0.026432
     6  F   -0.099762   0.003902   0.004328   0.004326   0.026432   9.907833
 Mulliken atomic charges:
              1
     1  C   -0.828382
     2  H    0.430967
     3  H    0.436443
     4  H    0.436446
     5  Cl  -0.628416
     6  F   -0.847058
 Sum of Mulliken atomic charges =  -1.00000
 Mulliken charges with hydrogens summed into heavy atoms:
              1
     1  C    0.475474
     5  Cl  -0.628416
     6  F   -0.847058
 Sum of Mulliken charges with hydrogens summed into heavy atoms =  -1.00000
 Electronic spatial extent (au):  <R**2>=            490.4029
 Charge=             -1.0000 electrons
 Dipole moment (field-independent basis, Debye):
    X=             -0.0006    Y=             -0.0004    Z=              4.0641  Tot=              4.0641
 Quadrupole moment (field-independent basis, Debye-Ang):
   XX=            -28.1913   YY=            -28.1774   ZZ=            -62.8335
   XY=              0.0000   XZ=             -0.0050   YZ=             -0.0149
 Traceless Quadrupole moment (field-independent basis, Debye-Ang):
   XX=             11.5428   YY=             11.5566   ZZ=            -23.0994
   XY=              0.0000   XZ=             -0.0050   YZ=             -0.0149
 Octapole moment (field-independent basis, Debye-Ang**2):
  XXX=             -0.0244  YYY=             -0.9608  ZZZ=             49.6926  XYY=             -0.0086
  XXY=              0.9589  XXZ=             -4.2320  XZZ=             -0.0066  YZZ=              0.0163
  YYZ=             -4.2420  XYZ=             -0.0002
 Hexadecapole moment (field-independent basis, Debye-Ang**3):
 XXXX=            -41.2833 YYYY=            -41.3656 ZZZZ=           -761.7321 XXXY=              0.0004
 XXXZ=             -0.0507 YYYX=             -0.0002 YYYZ=              0.5021 ZZZX=             -0.0657
 ZZZY=             -0.2187 XXYY=            -13.7868 XXZZ=           -103.3994 YYZZ=           -103.4167
 XXYZ=             -0.6902 YYXZ=             -0.0166 ZZXY=              0.0002
 N-N= 8.494324048725D+01 E-N=-1.604090285488D+03  KE= 5.991808440702D+02
 1\1\GINC-TRAPISTA\SP\RQCISD-FC\Aug-CC-pVTZ\C1H3Cl1F1(1-)\BRUNS\10-Aug-
 2021\0\\# QCISD aug-cc-pvtz nosymm density=current output=wfn\\title l
 ine\\-1,1\C,0,0.000175,0.000029,-0.497709\H,0,0.000019,-1.06257,-0.620
 726\H,0,-0.911312,0.526365,-0.621245\H,0,0.91175,0.526132,-0.62157\Cl,
 0,0.000555,0.000962,1.644718\F,0,-0.000186,-0.000921,-2.59346\\Version
 =EM64L-G09RevB.01\HF=-598.6170503\MP2=-599.2913452\MP3=-599.3100339\MP
 4D=-599.3249446\MP4DQ=-599.3104915\MP4SDQ=-599.3198697\QCISD=-599.3192
 534\RMSD=9.358e-09\Dipole=0.0002717,-0.0002478,1.586469\Quadrupole=8.5
 817815,8.5920788,-17.1738603,-0.0000028,-0.0036935,-0.0110479\PG=C01 [
 X(C1H3Cl1F1)]\\@

 Writing a WFN file to GAUSSIAN-YH_2.wfn.


 FROM AN ANONYMOUS WRITER, ON PERSPECTIVE:

 MAN, DESPITE HIS ARTISTIC PRETENSIONS, HIS SOPHISTICATION AND MANY 
 ACCOMPLISHMENTS, OWES THE FACT OF HIS EXISTENCE TO A SIX-INCH LAYER OF 
 TOPSOIL AND THE FACT THAT IT RAINS.
 Job cpu time:  0 days  8 hours 28 minutes 53.3 seconds.
 File lengths (MBytes):  RWF=  29002 Int=      0 D2E=      0 Chk=      4 Scr=      1
 Normal termination of Gaussian 09 at Tue Aug 10 22:01:42 2021.
