 Entering Gaussian System, Link 0=g09
 Input=GAUSSIAN+ZH_4.com
 Output=GAUSSIAN+ZH_4.log
 Initial command:
 /home/bruns/programas/chemistry/gaussian/g09/l1.exe /home/bruns/programas/chemistry/gaussian/work/Gau-21921.inp -scrdir=/home/bruns/programas/chemistry/gaussian/work/
 Entering Link 1 = /home/bruns/programas/chemistry/gaussian/g09/l1.exe PID=     21923.
  
 Copyright (c) 1988,1990,1992,1993,1995,1998,2003,2009,2010,
            Gaussian, Inc.  All Rights Reserved.
  
 This is part of the Gaussian(R) 09 program.  It is based on
 the Gaussian(R) 03 system (copyright 2003, Gaussian, Inc.),
 the Gaussian(R) 98 system (copyright 1998, Gaussian, Inc.),
 the Gaussian(R) 94 system (copyright 1995, Gaussian, Inc.),
 the Gaussian 92(TM) system (copyright 1992, Gaussian, Inc.),
 the Gaussian 90(TM) system (copyright 1990, Gaussian, Inc.),
 the Gaussian 88(TM) system (copyright 1988, Gaussian, Inc.),
 the Gaussian 86(TM) system (copyright 1986, Carnegie Mellon
 University), and the Gaussian 82(TM) system (copyright 1983,
 Carnegie Mellon University). Gaussian is a federally registered
 trademark of Gaussian, Inc.
  
 This software contains proprietary and confidential information,
 including trade secrets, belonging to Gaussian, Inc.
  
 This software is provided under written license and may be
 used, copied, transmitted, or stored only in accord with that
 written license.
  
 The following legend is applicable only to US Government
 contracts under FAR:
  
                    RESTRICTED RIGHTS LEGEND
  
 Use, reproduction and disclosure by the US Government is
 subject to restrictions as set forth in subparagraphs (a)
 and (c) of the Commercial Computer Software - Restricted
 Rights clause in FAR 52.227-19.
  
 Gaussian, Inc.
 340 Quinnipiac St., Bldg. 40, Wallingford CT 06492
  
  
 ---------------------------------------------------------------
 Warning -- This program may not be used in any manner that
 competes with the business of Gaussian, Inc. or will provide
 assistance to any competitor of Gaussian, Inc.  The licensee
 of this program is prohibited from giving any competitor of
 Gaussian, Inc. access to this program.  By using this program,
 the user acknowledges that Gaussian, Inc. is engaged in the
 business of creating and licensing software in the field of
 computational chemistry and represents and warrants to the
 licensee that it is not a competitor of Gaussian, Inc. and that
 it will not use this program in any manner prohibited above.
 ---------------------------------------------------------------
  

 Cite this work as:
 Gaussian 09, Revision B.01,
 M. J. Frisch, G. W. Trucks, H. B. Schlegel, G. E. Scuseria, 
 M. A. Robb, J. R. Cheeseman, G. Scalmani, V. Barone, B. Mennucci, 
 G. A. Petersson, H. Nakatsuji, M. Caricato, X. Li, H. P. Hratchian, 
 A. F. Izmaylov, J. Bloino, G. Zheng, J. L. Sonnenberg, M. Hada, 
 M. Ehara, K. Toyota, R. Fukuda, J. Hasegawa, M. Ishida, T. Nakajima, 
 Y. Honda, O. Kitao, H. Nakai, T. Vreven, J. A. Montgomery, Jr., 
 J. E. Peralta, F. Ogliaro, M. Bearpark, J. J. Heyd, E. Brothers, 
 K. N. Kudin, V. N. Staroverov, T. Keith, R. Kobayashi, J. Normand, 
 K. Raghavachari, A. Rendell, J. C. Burant, S. S. Iyengar, J. Tomasi, 
 M. Cossi, N. Rega, J. M. Millam, M. Klene, J. E. Knox, J. B. Cross, 
 V. Bakken, C. Adamo, J. Jaramillo, R. Gomperts, R. E. Stratmann, 
 O. Yazyev, A. J. Austin, R. Cammi, C. Pomelli, J. W. Ochterski, 
 R. L. Martin, K. Morokuma, V. G. Zakrzewski, G. A. Voth, 
 P. Salvador, J. J. Dannenberg, S. Dapprich, A. D. Daniels, 
 O. Farkas, J. B. Foresman, J. V. Ortiz, J. Cioslowski, 
 and D. J. Fox, Gaussian, Inc., Wallingford CT, 2010.
 
 ******************************************
 Gaussian 09:  EM64L-G09RevB.01 12-Aug-2010
                10-Aug-2021 
 ******************************************
 %nproc=8
 Will use up to    8 processors via shared memory.
 %mem=8GB
 -----------------------------------------------------
 # QCISD aug-cc-pvtz nosymm density=current output=wfn
 -----------------------------------------------------
 1/30=1,38=1/1;
 2/12=2,15=1,17=6,18=5,40=1/2;
 3/5=16,6=1,7=10,11=9,16=1,25=1,30=1,71=1/1,2,3;
 4//1;
 5/5=2,38=5/2;
 8/6=4,9=120000,10=1/1,4;
 9/5=8,15=1/13;
 11/28=-7,31=1,32=3,42=3/11;
 10/5=6,13=10,31=1/2;
 6/7=2,8=2,9=2,10=2,22=-1,31=1/1;
 99/5=1,6=1100,9=1/99;
 ----------
 title line
 ----------
 Symbolic Z-matrix:
 Charge = -1 Multiplicity = 1
 C                     0.00018   0.00003  -0.49771 
 H                     0.00002  -1.05257  -0.62073 
 H                    -0.91131   0.52637  -0.62125 
 H                     0.91175   0.52613  -0.61157 
 Cl                    0.00056   0.00096   1.64472 
 F                    -0.00019  -0.00092  -2.59346 
 
                          Input orientation:                          
 ---------------------------------------------------------------------
 Center     Atomic      Atomic             Coordinates (Angstroms)
 Number     Number       Type             X           Y           Z
 ---------------------------------------------------------------------
      1          6           0        0.000175    0.000029   -0.497709
      2          1           0        0.000019   -1.052570   -0.620726
      3          1           0       -0.911312    0.526365   -0.621245
      4          1           0        0.911750    0.526132   -0.611570
      5         17           0        0.000555    0.000962    1.644718
      6          9           0       -0.000186   -0.000921   -2.593460
 ---------------------------------------------------------------------
                    Distance matrix (angstroms):
                    1          2          3          4          5
     1  C    0.000000
     2  H    1.059763   0.000000
     3  H    1.059764   1.823063   0.000000
     4  H    1.058640   1.823085   1.823088   0.000000
     5  Cl   2.142427   2.498433   2.498427   2.489360   0.000000
     6  F    2.095751   2.235541   2.235579   2.244393   4.238178
                    6
     6  F    0.000000
 Symmetry turned off by external request.
 This structure is nearly, but not quite of a higher symmetry.
 Consider Symm=Loose if the higher symmetry is desired.
 Stoichiometry    CH3ClF(1-)
 Framework group  C1[X(CH3ClF)]
 Deg. of freedom    12
 Full point group                 C1      NOp   1
 Rotational constants (GHZ):    150.8794444      2.2148517      2.2148516
 Standard basis: Aug-CC-pVTZ (5D, 7F)
 Integral buffers will be    131072 words long.
 Raffenetti 1 integral format.
 Two-electron integral symmetry is turned off.
   211 basis functions,   339 primitive gaussians,   244 cartesian basis functions
    18 alpha electrons       18 beta electrons
       nuclear repulsion energy        84.9922944946 Hartrees.
 NAtoms=    6 NActive=    6 NUniq=    6 SFac= 1.00D+00 NAtFMM=   50 NAOKFM=F Big=F
 One-electron integrals computed using PRISM.
 NBasis=   211 RedAO= T  NBF=   211
 NBsUse=   211 1.00D-06 NBFU=   211
 Harris functional with IExCor=  205 diagonalized for initial guess.
 ExpMin= 2.53D-02 ExpMax= 4.56D+05 ExpMxC= 1.44D+03 IAcc=3 IRadAn=         0 AccDes= 0.00D+00
 HarFok:  IExCor=  205 AccDes= 0.00D+00 IRadAn=         0 IDoV= 1
 ScaDFX=  1.000000  1.000000  1.000000  1.000000
 FoFCou: FMM=F IPFlag=           0 FMFlag=      100000 FMFlg1=           0
         NFxFlg=           0 DoJE=T BraDBF=F KetDBF=T FulRan=T
         Omega=  0.000000  0.000000  1.000000  0.000000  0.000000 ICntrl=     500 IOpCl=  0
         NMat0=    1 NMatS0=    1 NMatT0=    0 NMatD0=    1 NMtDS0=    0 NMtDT0=    0
         I1Cent=           4 NGrid=           0.
 Symmetry not used in FoFCou.
 Requested convergence on RMS density matrix=1.00D-08 within 128 cycles.
 Requested convergence on MAX density matrix=1.00D-06.
 Requested convergence on             energy=1.00D-06.
 No special actions if energy rises.
 Keep R1 ints in memory in canonical form, NReq=454274131.
 SCF Done:  E(RHF) =  -598.617115449     A.U. after   12 cycles
             Convg  =    0.9464D-08             -V/T =  2.0001
 ExpMin= 2.53D-02 ExpMax= 4.56D+05 ExpMxC= 1.44D+03 IAcc=3 IRadAn=         5 AccDes= 0.00D+00
 HarFok:  IExCor=  205 AccDes= 0.00D+00 IRadAn=         5 IDoV=-2
 ScaDFX=  1.000000  1.000000  1.000000  1.000000
 DSYEVD returned Info=          93 IAlg= 4 N=    46 NDim=    46 NE2=    21472034 trying DSYEV.
 DSYEVD returned Info=          93 IAlg= 4 N=    46 NDim=    46 NE2=    21472034 trying DSYEV.
 Range of M.O.s used for correlation:     8   211
 NBasis=   211 NAE=    18 NBE=    18 NFC=     7 NFV=     0
 NROrb=    204 NOA=    11 NOB=    11 NVA=   193 NVB=   193

 **** Warning!!: The largest alpha MO coefficient is  0.35859025D+02

 Semi-Direct transformation.
 ModeAB=           2 MOrb=            11 LenV=    1072528236
 LASXX=     44979418 LTotXX=    44979418 LenRXX=    44979418
 LTotAB=    45631872 MaxLAS=    67073160 LenRXY=    67073160
 NonZer=    89958836 LenScr=   135708672 LnRSAI=           0
 LnScr1=           0 LExtra=           0 Total=    247761250
 MaxDsk=          -1 SrtSym=           F ITran=            4
 JobTyp=0 Pass  1:  I=   1 to  11.
 (rs|ai) integrals will be sorted in core.
 Spin components of T(2) and E(2):
     alpha-alpha T2 =       0.2567283394D-01 E2=     -0.8208099272D-01
     alpha-beta  T2 =       0.1452367020D+00 E2=     -0.5099611965D+00
     beta-beta   T2 =       0.2567283394D-01 E2=     -0.8208099272D-01
 ANorm=    0.1093884075D+01
 E2 =    -0.6741231819D+00 EUMP2 =    -0.59929123863062D+03
 R2 and R3 integrals will be kept in memory, NReq=   900794930.
 Iterations=  50 Convergence= 0.100D-07
 Iteration Nr.   1
 **********************
 DD1Dir will call FoFMem   1 times, MxPair=       132
 NAB=    66 NAA=     0 NBB=     0.
 MP4(R+Q)=  0.14436976D-01
 E3=       -0.18693220D-01        EUMP3=      -0.59930993185D+03
 E4(DQ)=   -0.45117898D-03        UMP4(DQ)=   -0.59931038303D+03
 E4(SDQ)=  -0.98191861D-02        UMP4(SDQ)=  -0.59931975104D+03
 DE(Corr)= -0.67837943     E(Corr)=     -599.29549487    
 NORM(A)=   0.10996706D+01
 Iteration Nr.   2
 **********************
 DD1Dir will call FoFMem   1 times, MxPair=       132
 NAB=    66 NAA=     0 NBB=     0.
 DE(Corr)= -0.70058053     E(CORR)=     -599.31769598     Delta=-2.22D-02
 NORM(A)=   0.11070259D+01
 Iteration Nr.   3
 **********************
 DD1Dir will call FoFMem   1 times, MxPair=       132
 NAB=    66 NAA=     0 NBB=     0.
 DE(Corr)= -0.69818326     E(CORR)=     -599.31529871     Delta= 2.40D-03
 NORM(A)=   0.11110119D+01
 Iteration Nr.   4
 **********************
 DD1Dir will call FoFMem   1 times, MxPair=       132
 NAB=    66 NAA=     0 NBB=     0.
 DE(Corr)= -0.70124244     E(CORR)=     -599.31835788     Delta=-3.06D-03
 NORM(A)=   0.11131169D+01
 Iteration Nr.   5
 **********************
 DD1Dir will call FoFMem   1 times, MxPair=       132
 NAB=    66 NAA=     0 NBB=     0.
 DE(Corr)= -0.70183738     E(CORR)=     -599.31895283     Delta=-5.95D-04
 NORM(A)=   0.11141463D+01
 Iteration Nr.   6
 **********************
 DD1Dir will call FoFMem   1 times, MxPair=       132
 NAB=    66 NAA=     0 NBB=     0.
 DE(Corr)= -0.70198387     E(CORR)=     -599.31909932     Delta=-1.46D-04
 NORM(A)=   0.11144709D+01
 Iteration Nr.   7
 **********************
 DD1Dir will call FoFMem   1 times, MxPair=       132
 NAB=    66 NAA=     0 NBB=     0.
 DE(Corr)= -0.70201347     E(CORR)=     -599.31912892     Delta=-2.96D-05
 NORM(A)=   0.11145017D+01
 Iteration Nr.   8
 **********************
 DD1Dir will call FoFMem   1 times, MxPair=       132
 NAB=    66 NAA=     0 NBB=     0.
 DE(Corr)= -0.70202724     E(CORR)=     -599.31914269     Delta=-1.38D-05
 NORM(A)=   0.11145193D+01
 Iteration Nr.   9
 **********************
 DD1Dir will call FoFMem   1 times, MxPair=       132
 NAB=    66 NAA=     0 NBB=     0.
 DE(Corr)= -0.70200414     E(CORR)=     -599.31911959     Delta= 2.31D-05
 NORM(A)=   0.11145224D+01
 Iteration Nr.  10
 **********************
 DD1Dir will call FoFMem   1 times, MxPair=       132
 NAB=    66 NAA=     0 NBB=     0.
 DE(Corr)= -0.70202334     E(CORR)=     -599.31913879     Delta=-1.92D-05
 NORM(A)=   0.11145226D+01
 Iteration Nr.  11
 **********************
 DD1Dir will call FoFMem   1 times, MxPair=       132
 NAB=    66 NAA=     0 NBB=     0.
 DE(Corr)= -0.70201419     E(CORR)=     -599.31912964     Delta= 9.16D-06
 NORM(A)=   0.11145255D+01
 Iteration Nr.  12
 **********************
 DD1Dir will call FoFMem   1 times, MxPair=       132
 NAB=    66 NAA=     0 NBB=     0.
 DE(Corr)= -0.70201793     E(CORR)=     -599.31913338     Delta=-3.75D-06
 NORM(A)=   0.11145260D+01
 Iteration Nr.  13
 **********************
 DD1Dir will call FoFMem   1 times, MxPair=       132
 NAB=    66 NAA=     0 NBB=     0.
 DE(Corr)= -0.70201851     E(CORR)=     -599.31913395     Delta=-5.72D-07
 NORM(A)=   0.11145267D+01
 Iteration Nr.  14
 **********************
 DD1Dir will call FoFMem   1 times, MxPair=       132
 NAB=    66 NAA=     0 NBB=     0.
 DE(Corr)= -0.70201873     E(CORR)=     -599.31913418     Delta=-2.21D-07
 NORM(A)=   0.11145268D+01
 Iteration Nr.  15
 **********************
 DD1Dir will call FoFMem   1 times, MxPair=       132
 NAB=    66 NAA=     0 NBB=     0.
 DE(Corr)= -0.70201864     E(CORR)=     -599.31913409     Delta= 8.82D-08
 NORM(A)=   0.11145267D+01
 Iteration Nr.  16
 **********************
 DD1Dir will call FoFMem   1 times, MxPair=       132
 NAB=    66 NAA=     0 NBB=     0.
 DE(Corr)= -0.70201884     E(CORR)=     -599.31913429     Delta=-2.03D-07
 NORM(A)=   0.11145266D+01
 Iteration Nr.  17
 **********************
 DD1Dir will call FoFMem   1 times, MxPair=       132
 NAB=    66 NAA=     0 NBB=     0.
 DE(Corr)= -0.70201871     E(CORR)=     -599.31913416     Delta= 1.29D-07
 NORM(A)=   0.11145265D+01
 Iteration Nr.  18
 **********************
 DD1Dir will call FoFMem   1 times, MxPair=       132
 NAB=    66 NAA=     0 NBB=     0.
 DE(Corr)= -0.70201875     E(CORR)=     -599.31913420     Delta=-3.64D-08
 NORM(A)=   0.11145263D+01
 Iteration Nr.  19
 **********************
 DD1Dir will call FoFMem   1 times, MxPair=       132
 NAB=    66 NAA=     0 NBB=     0.
 DE(Corr)= -0.70201870     E(CORR)=     -599.31913415     Delta= 5.18D-08
 NORM(A)=   0.11145262D+01
 Iteration Nr.  20
 **********************
 DD1Dir will call FoFMem   1 times, MxPair=       132
 NAB=    66 NAA=     0 NBB=     0.
 DE(Corr)= -0.70201870     E(CORR)=     -599.31913415     Delta=-2.71D-09
 NORM(A)=   0.11145262D+01
 Iteration Nr.  21
 **********************
 DD1Dir will call FoFMem   1 times, MxPair=       132
 NAB=    66 NAA=     0 NBB=     0.
 DE(Corr)= -0.70201868     E(CORR)=     -599.31913413     Delta= 1.97D-08
 NORM(A)=   0.11145261D+01
 Iteration Nr.  22
 **********************
 DD1Dir will call FoFMem   1 times, MxPair=       132
 NAB=    66 NAA=     0 NBB=     0.
 DE(Corr)= -0.70201868     E(CORR)=     -599.31913413     Delta= 2.22D-09
 NORM(A)=   0.11145261D+01
 Iteration Nr.  23
 **********************
 DD1Dir will call FoFMem   1 times, MxPair=       132
 NAB=    66 NAA=     0 NBB=     0.
 DE(Corr)= -0.70201867     E(CORR)=     -599.31913412     Delta= 4.59D-09
 NORM(A)=   0.11145261D+01
 Iteration Nr.  24
 **********************
 DD1Dir will call FoFMem   1 times, MxPair=       132
 NAB=    66 NAA=     0 NBB=     0.
 DE(Corr)= -0.70201867     E(CORR)=     -599.31913412     Delta=-4.51D-10
 NORM(A)=   0.11145261D+01
 Iteration Nr.  25
 **********************
 DD1Dir will call FoFMem   1 times, MxPair=       132
 NAB=    66 NAA=     0 NBB=     0.
 DE(Corr)= -0.70201867     E(CORR)=     -599.31913412     Delta= 5.47D-09
 NORM(A)=   0.11145261D+01
 Iteration Nr.  26
 **********************
 DD1Dir will call FoFMem   1 times, MxPair=       132
 NAB=    66 NAA=     0 NBB=     0.
 DE(Corr)= -0.70201867     E(CORR)=     -599.31913412     Delta=-5.31D-09
 NORM(A)=   0.11145261D+01
 Iteration Nr.  27
 **********************
 DD1Dir will call FoFMem   1 times, MxPair=       132
 NAB=    66 NAA=     0 NBB=     0.
 DE(Corr)= -0.70201867     E(CORR)=     -599.31913412     Delta= 4.67D-09
 NORM(A)=   0.11145261D+01
 Iteration Nr.  28
 **********************
 DD1Dir will call FoFMem   1 times, MxPair=       132
 NAB=    66 NAA=     0 NBB=     0.
 DE(Corr)= -0.70201867     E(CORR)=     -599.31913412     Delta=-4.67D-09
 NORM(A)=   0.11145261D+01
 Largest amplitude= 6.62D-02

 Z-AMPLITUDE ITERATIONS

 Iteration Nr.   1
 **********************
 DD1Dir will call FoFMem   1 times, MxPair=       132
 NAB=    66 NAA=     0 NBB=     0.
 DE(Z)  -0.68262998D+00          E(Z)=    -0.59929974542D+03
 NORM(A)=   0.11119990D+01
 Iteration Nr.   2
 **********************
 DD1Dir will call FoFMem   1 times, MxPair=       132
 NAB=    66 NAA=     0 NBB=     0.
 DE(Z)  -0.68235068D+00          E(Z)=    -0.59929946613D+03
 NORM(A)=   0.11146708D+01
 Iteration Nr.   3
 **********************
 DD1Dir will call FoFMem   1 times, MxPair=       132
 NAB=    66 NAA=     0 NBB=     0.
 DE(Z)  -0.68264373D+00          E(Z)=    -0.59929975918D+03
 NORM(A)=   0.11168051D+01
 Iteration Nr.   4
 **********************
 DD1Dir will call FoFMem   1 times, MxPair=       132
 NAB=    66 NAA=     0 NBB=     0.
 DE(Z)  -0.68285604D+00          E(Z)=    -0.59929997149D+03
 NORM(A)=   0.11132787D+01
 Iteration Nr.   5
 **********************
 DD1Dir will call FoFMem   1 times, MxPair=       132
 NAB=    66 NAA=     0 NBB=     0.
 DE(Z)  -0.68250779D+00          E(Z)=    -0.59929962324D+03
 NORM(A)=   0.11078718D+01
 Iteration Nr.   6
 **********************
 DD1Dir will call FoFMem   1 times, MxPair=       132
 NAB=    66 NAA=     0 NBB=     0.
 DE(Z)  -0.68196113D+00          E(Z)=    -0.59929907658D+03
 NORM(A)=   0.11078652D+01
 Iteration Nr.   7
 **********************
 DD1Dir will call FoFMem   1 times, MxPair=       132
 NAB=    66 NAA=     0 NBB=     0.
 DE(Z)  -0.68196313D+00          E(Z)=    -0.59929907858D+03
 NORM(A)=   0.11078612D+01
 Iteration Nr.   8
 **********************
 DD1Dir will call FoFMem   1 times, MxPair=       132
 NAB=    66 NAA=     0 NBB=     0.
 DE(Z)  -0.68196178D+00          E(Z)=    -0.59929907723D+03
 NORM(A)=   0.11078577D+01
 Iteration Nr.   9
 **********************
 DD1Dir will call FoFMem   1 times, MxPair=       132
 NAB=    66 NAA=     0 NBB=     0.
 DE(Z)  -0.68196111D+00          E(Z)=    -0.59929907656D+03
 NORM(A)=   0.11078567D+01
 Iteration Nr.  10
 **********************
 DD1Dir will call FoFMem   1 times, MxPair=       132
 NAB=    66 NAA=     0 NBB=     0.
 DE(Z)  -0.68196152D+00          E(Z)=    -0.59929907697D+03
 NORM(A)=   0.11078564D+01
 Iteration Nr.  11
 **********************
 DD1Dir will call FoFMem   1 times, MxPair=       132
 NAB=    66 NAA=     0 NBB=     0.
 DE(Z)  -0.68196145D+00          E(Z)=    -0.59929907690D+03
 NORM(A)=   0.11078563D+01
 Iteration Nr.  12
 **********************
 DD1Dir will call FoFMem   1 times, MxPair=       132
 NAB=    66 NAA=     0 NBB=     0.
 DE(Z)  -0.68196132D+00          E(Z)=    -0.59929907677D+03
 NORM(A)=   0.11078564D+01
 Iteration Nr.  13
 **********************
 DD1Dir will call FoFMem   1 times, MxPair=       132
 NAB=    66 NAA=     0 NBB=     0.
 DE(Z)  -0.68196145D+00          E(Z)=    -0.59929907690D+03
 NORM(A)=   0.11078564D+01
 Iteration Nr.  14
 **********************
 DD1Dir will call FoFMem   1 times, MxPair=       132
 NAB=    66 NAA=     0 NBB=     0.
 DE(Z)  -0.68196143D+00          E(Z)=    -0.59929907688D+03
 NORM(A)=   0.11078564D+01
 Iteration Nr.  15
 **********************
 DD1Dir will call FoFMem   1 times, MxPair=       132
 NAB=    66 NAA=     0 NBB=     0.
 DE(Z)  -0.68196144D+00          E(Z)=    -0.59929907689D+03
 NORM(A)=   0.11078564D+01
 Iteration Nr.  16
 **********************
 DD1Dir will call FoFMem   1 times, MxPair=       132
 NAB=    66 NAA=     0 NBB=     0.
 DE(Z)  -0.68196145D+00          E(Z)=    -0.59929907690D+03
 NORM(A)=   0.11078564D+01
 Iteration Nr.  17
 **********************
 DD1Dir will call FoFMem   1 times, MxPair=       132
 NAB=    66 NAA=     0 NBB=     0.
 DE(Z)  -0.68196145D+00          E(Z)=    -0.59929907690D+03
 NORM(A)=   0.11078564D+01
 Iteration Nr.  18
 **********************
 DD1Dir will call FoFMem   1 times, MxPair=       132
 NAB=    66 NAA=     0 NBB=     0.
 DE(Z)  -0.68196145D+00          E(Z)=    -0.59929907690D+03
 NORM(A)=   0.11078564D+01
 Iteration Nr.  19
 **********************
 DD1Dir will call FoFMem   1 times, MxPair=       132
 NAB=    66 NAA=     0 NBB=     0.
 DE(Z)  -0.68196144D+00          E(Z)=    -0.59929907689D+03
 NORM(A)=   0.11078564D+01
 Iteration Nr.  20
 **********************
 DD1Dir will call FoFMem   1 times, MxPair=       132
 NAB=    66 NAA=     0 NBB=     0.
 DE(Z)  -0.68196144D+00          E(Z)=    -0.59929907689D+03
 NORM(A)=   0.11078564D+01
 Iteration Nr.  21
 **********************
 DD1Dir will call FoFMem   1 times, MxPair=       132
 NAB=    66 NAA=     0 NBB=     0.
 DE(Z)  -0.68196144D+00          E(Z)=    -0.59929907689D+03
 NORM(A)=   0.11078564D+01
 Discarding MO integrals.
          Differentiating once with respect to electric field.
                with respect to dipole field.
          Electric field/nuclear overlap derivatives assumed to be zero.
          Keep R1 ints in memory in canonical form, NReq=448662239.
          There are     1 degrees of freedom in the 1st order CPHF.  IDoFFX=0.
 LinEq1:  Iter=  0 NonCon=     1 RMS=3.11D-03 Max=1.21D-01
 AX will form     1 AO Fock derivatives at one time.
 LinEq1:  Iter=  1 NonCon=     1 RMS=6.94D-04 Max=9.45D-03
 LinEq1:  Iter=  2 NonCon=     1 RMS=2.30D-04 Max=5.71D-03
 LinEq1:  Iter=  3 NonCon=     1 RMS=9.50D-05 Max=1.45D-03
 LinEq1:  Iter=  4 NonCon=     1 RMS=3.84D-05 Max=4.09D-04
 LinEq1:  Iter=  5 NonCon=     1 RMS=1.06D-05 Max=2.25D-04
 LinEq1:  Iter=  6 NonCon=     1 RMS=2.42D-06 Max=4.23D-05
 LinEq1:  Iter=  7 NonCon=     1 RMS=6.05D-07 Max=9.11D-06
 LinEq1:  Iter=  8 NonCon=     1 RMS=1.49D-07 Max=1.80D-06
 LinEq1:  Iter=  9 NonCon=     1 RMS=3.03D-08 Max=7.46D-07
 LinEq1:  Iter= 10 NonCon=     1 RMS=6.54D-09 Max=8.91D-08
 LinEq1:  Iter= 11 NonCon=     1 RMS=1.05D-09 Max=1.16D-08
 LinEq1:  Iter= 12 NonCon=     1 RMS=1.68D-10 Max=2.84D-09
 LinEq1:  Iter= 13 NonCon=     0 RMS=2.39D-11 Max=3.20D-10
 Linear equations converged to 1.000D-10 1.000D-09 after    13 iterations.
 End of Minotr Frequency-dependent properties file   721 does not exist.
 End of Minotr Frequency-dependent properties file   722 does not exist.

 **********************************************************************

            Population analysis using the QCI/CC density.

 **********************************************************************

     Natural Orbital Coefficients:
                           1         2         3         4         5
     Eigenvalues --     2.00003   2.00003   2.00002   2.00001   2.00001
   1 1   C  1S         -0.00017   0.00000  -0.04319   0.08124   0.97613
   2        2S         -0.00001   0.00000   0.00131   0.00049  -0.01332
   3        3S         -0.00001   0.00000  -0.00131   0.00404   0.03985
   4        4S          0.00020   0.00000  -0.01270  -0.02369   0.00290
   5        5S          0.00001   0.00000  -0.00121  -0.00064  -0.00064
   6        6PX         0.00005  -0.00003   0.00000  -0.00001   0.00000
   7        6PY         0.00003   0.00004   0.00000   0.00000   0.00000
   8        6PZ         0.00000   0.00000   0.00054   0.00168   0.00086
   9        7PX         0.00074  -0.00043   0.00000   0.00000   0.00000
  10        7PY         0.00043   0.00074   0.00000   0.00000   0.00000
  11        7PZ         0.00000   0.00000   0.00142   0.00304  -0.00090
  12        8PX         0.00398  -0.00229  -0.00003  -0.00005   0.00000
  13        8PY         0.00230   0.00397  -0.00002  -0.00003   0.00000
  14        8PZ         0.00007   0.00000  -0.00377  -0.00415  -0.00305
  15        9PX         0.00036  -0.00021   0.00000   0.00000   0.00000
  16        9PY         0.00021   0.00036   0.00000   0.00000   0.00000
  17        9PZ         0.00000   0.00000   0.00021   0.00017  -0.00049
  18       10D 0        0.00000   0.00000   0.00011   0.00033  -0.00058
  19       10D+1       -0.00013   0.00008   0.00000   0.00000   0.00001
  20       10D-1       -0.00008  -0.00013   0.00000   0.00000   0.00000
  21       10D+2        0.00002   0.00003   0.00000   0.00000   0.00000
  22       10D-2        0.00003  -0.00002   0.00000   0.00000   0.00000
  23       11D 0       -0.00001   0.00000   0.00022  -0.00007  -0.00027
  24       11D+1        0.00024  -0.00013  -0.00001  -0.00002  -0.00001
  25       11D-1        0.00014   0.00022   0.00000  -0.00001  -0.00001
  26       11D+2        0.00051   0.00089   0.00000   0.00000   0.00000
  27       11D-2        0.00089  -0.00051   0.00000   0.00000   0.00000
  28       12D 0        0.00000   0.00000  -0.00078   0.00120  -0.00237
  29       12D+1       -0.00111   0.00065  -0.00001  -0.00002   0.00001
  30       12D-1       -0.00064  -0.00113  -0.00001  -0.00001   0.00001
  31       12D+2        0.00082   0.00143  -0.00001  -0.00001   0.00000
  32       12D-2        0.00143  -0.00082  -0.00001  -0.00002   0.00000
  33       13F 0        0.00000   0.00000   0.00001   0.00003   0.00019
  34       13F+1       -0.00016   0.00009   0.00000   0.00000   0.00000
  35       13F-1       -0.00010  -0.00016   0.00000   0.00000   0.00000
  36       13F+2        0.00001   0.00001   0.00000   0.00000   0.00000
  37       13F-2        0.00002  -0.00001   0.00000   0.00000   0.00000
  38       13F+3        0.00000   0.00000   0.00000   0.00000   0.00000
  39       13F-3        0.00000   0.00000  -0.00006   0.00007   0.00090
  40       14F 0        0.00001   0.00000  -0.00113  -0.00215  -0.00018
  41       14F+1        0.00050  -0.00029   0.00000   0.00001   0.00000
  42       14F-1        0.00029   0.00049   0.00000   0.00000   0.00000
  43       14F+2        0.00018   0.00029   0.00000  -0.00001  -0.00001
  44       14F-2        0.00030  -0.00017   0.00000  -0.00001  -0.00002
  45       14F+3        0.00000   0.00000   0.00000   0.00000   0.00000
  46       14F-3        0.00002   0.00000  -0.00087  -0.00138  -0.00193
  47 2   H  1S         -0.00008  -0.00014  -0.00002  -0.00035  -0.00135
  48        2S          0.00057   0.00105   0.00246   0.00336  -0.00061
  49        3S          0.00435   0.00759   0.00181   0.00525  -0.00431
  50        4S         -0.00014  -0.00024   0.00011   0.00009  -0.00013
  51        5PX         0.00000   0.00000   0.00000   0.00000   0.00000
  52        5PY         0.00002   0.00003   0.00004  -0.00003  -0.00048
  53        5PZ         0.00001   0.00001   0.00001   0.00002  -0.00009
  54        6PX         0.00017  -0.00010   0.00000   0.00000   0.00000
  55        6PY         0.00033   0.00058   0.00046   0.00070  -0.00079
  56        6PZ         0.00031   0.00053  -0.00001  -0.00010   0.00023
  57        7PX         0.00081  -0.00047  -0.00001  -0.00001   0.00000
  58        7PY         0.00105   0.00183   0.00053   0.00134  -0.00100
  59        7PZ         0.00014   0.00024   0.00047   0.00092  -0.00006
  60        8D 0        0.00002   0.00003   0.00001   0.00007   0.00014
  61        8D+1       -0.00001   0.00001   0.00000   0.00000   0.00000
  62        8D-1        0.00005   0.00008   0.00002   0.00005  -0.00004
  63        8D+2       -0.00002  -0.00004  -0.00004  -0.00005   0.00028
  64        8D-2        0.00001  -0.00001   0.00000   0.00000   0.00000
  65        9D 0        0.00019   0.00034   0.00015   0.00026   0.00063
  66        9D+1        0.00022  -0.00012   0.00000   0.00000  -0.00001
  67        9D-1        0.00006   0.00011  -0.00014  -0.00026   0.00001
  68        9D+2       -0.00006  -0.00011   0.00001   0.00002  -0.00010
  69        9D-2        0.00011  -0.00006   0.00000   0.00000   0.00000
  70 3   H  1S         -0.00008   0.00014  -0.00002  -0.00035  -0.00135
  71        2S          0.00057  -0.00105   0.00246   0.00336  -0.00061
  72        3S          0.00435  -0.00759   0.00181   0.00525  -0.00431
  73        4S         -0.00014   0.00024   0.00011   0.00009  -0.00013
  74        5PX         0.00001  -0.00002   0.00004  -0.00002  -0.00042
  75        5PY        -0.00001   0.00001  -0.00002   0.00001   0.00024
  76        5PZ         0.00001  -0.00001   0.00001   0.00002  -0.00009
  77        6PX         0.00037  -0.00045   0.00040   0.00061  -0.00069
  78        6PY        -0.00002   0.00037  -0.00023  -0.00035   0.00040
  79        6PZ         0.00031  -0.00054  -0.00001  -0.00010   0.00023
  80        7PX         0.00131  -0.00135   0.00046   0.00116  -0.00087
  81        7PY         0.00018   0.00132  -0.00027  -0.00068   0.00050
  82        7PZ         0.00014  -0.00024   0.00047   0.00092  -0.00006
  83        8D 0        0.00002  -0.00003   0.00001   0.00007   0.00014
  84        8D+1        0.00004  -0.00007   0.00002   0.00004  -0.00003
  85        8D-1       -0.00003   0.00003  -0.00001  -0.00002   0.00002
  86        8D+2        0.00002  -0.00002   0.00002   0.00003  -0.00014
  87        8D-2       -0.00002   0.00004  -0.00004  -0.00005   0.00024
  88        9D 0        0.00019  -0.00034   0.00015   0.00026   0.00063
  89        9D+1        0.00016  -0.00003  -0.00012  -0.00022   0.00000
  90        9D-1        0.00015   0.00016   0.00007   0.00013  -0.00001
  91        9D+2        0.00012   0.00000  -0.00001  -0.00001   0.00005
  92        9D-2        0.00000   0.00013   0.00001   0.00002  -0.00009
  93 4   H  1S          0.00015   0.00000  -0.00002  -0.00035  -0.00135
  94        2S         -0.00126   0.00000   0.00247   0.00335  -0.00062
  95        3S         -0.00881   0.00000   0.00189   0.00540  -0.00430
  96        4S          0.00028   0.00000   0.00012   0.00011  -0.00013
  97        5PX         0.00003   0.00000  -0.00004   0.00002   0.00042
  98        5PY         0.00002   0.00000  -0.00002   0.00001   0.00024
  99        5PZ        -0.00001   0.00000   0.00001   0.00002  -0.00008
 100        6PX         0.00058  -0.00010  -0.00039  -0.00059   0.00069
 101        6PY         0.00034   0.00017  -0.00023  -0.00034   0.00040
 102        6PZ        -0.00064   0.00000  -0.00002  -0.00010   0.00026
 103        7PX         0.00184  -0.00047  -0.00048  -0.00119   0.00087
 104        7PY         0.00106   0.00081  -0.00027  -0.00069   0.00050
 105        7PZ        -0.00028   0.00000   0.00048   0.00093  -0.00004
 106        8D 0       -0.00004   0.00000   0.00001   0.00007   0.00014
 107        8D+1        0.00008   0.00001  -0.00002  -0.00004   0.00003
 108        8D-1        0.00005  -0.00001  -0.00001  -0.00002   0.00002
 109        8D+2       -0.00002   0.00001   0.00002   0.00003  -0.00014
 110        8D-2       -0.00004   0.00000   0.00004   0.00005  -0.00024
 111        9D 0       -0.00039   0.00000   0.00015   0.00026   0.00063
 112        9D+1        0.00011  -0.00012   0.00012   0.00022  -0.00002
 113        9D-1        0.00006   0.00021   0.00007   0.00013  -0.00001
 114        9D+2       -0.00006   0.00011  -0.00001  -0.00001   0.00005
 115        9D-2       -0.00011  -0.00006  -0.00001  -0.00002   0.00009
 116 5   Cl 1S          0.00001   0.00000  -0.25044   0.14824  -0.02295
 117        2S         -0.00002   0.00000   0.84537  -0.50111   0.07868
 118        3S          0.00001   0.00000  -0.02308   0.00936  -0.00239
 119        4S          0.00000   0.00000   0.06651  -0.04082   0.00646
 120        5S         -0.00003   0.00000  -0.00208   0.00781   0.00350
 121        6S          0.00000   0.00000  -0.00154  -0.00212   0.00300
 122        7PX         0.84776  -0.48936   0.00107   0.00177   0.00004
 123        7PY         0.48935   0.84776   0.00079   0.00130   0.00001
 124        7PZ        -0.00255  -0.00028   0.50176   0.83532  -0.04790
 125        8PX        -0.01658   0.00957  -0.00002  -0.00002   0.00000
 126        8PY        -0.00957  -0.01658  -0.00001  -0.00002   0.00000
 127        8PZ         0.00006   0.00001  -0.00880  -0.01404   0.00012
 128        9PX         0.04533  -0.02616   0.00006   0.00010   0.00000
 129        9PY         0.02616   0.04533   0.00004   0.00008   0.00000
 130        9PZ        -0.00014  -0.00002   0.02849   0.04950  -0.00272
 131       10PX        -0.00500   0.00289  -0.00001  -0.00001  -0.00001
 132       10PY        -0.00289  -0.00501  -0.00001  -0.00001  -0.00001
 133       10PZ         0.00003   0.00000  -0.00436  -0.00277  -0.00346
 134       11PX        -0.00186   0.00107   0.00000   0.00000   0.00000
 135       11PY        -0.00107  -0.00186   0.00000   0.00000   0.00000
 136       11PZ         0.00000   0.00000  -0.00037  -0.00015  -0.00053
 137       12D 0        0.00000   0.00000   0.00001  -0.00051  -0.00017
 138       12D+1       -0.00028   0.00016   0.00000   0.00000   0.00000
 139       12D-1       -0.00016  -0.00027   0.00000   0.00000   0.00000
 140       12D+2        0.00000   0.00001   0.00000   0.00000   0.00000
 141       12D-2        0.00001   0.00000   0.00000   0.00000   0.00000
 142       13D 0       -0.00001   0.00000   0.00088   0.00243   0.00041
 143       13D+1        0.00070  -0.00040   0.00000   0.00000   0.00000
 144       13D-1        0.00041   0.00070   0.00000   0.00000   0.00000
 145       13D+2       -0.00001  -0.00002   0.00000   0.00000   0.00000
 146       13D-2       -0.00002   0.00001   0.00000   0.00000   0.00000
 147       14D 0        0.00000   0.00000   0.00058  -0.00017   0.00079
 148       14D+1       -0.00062   0.00035   0.00000   0.00000   0.00001
 149       14D-1       -0.00036  -0.00061   0.00000   0.00000   0.00000
 150       14D+2        0.00002   0.00003   0.00000   0.00000   0.00000
 151       14D-2        0.00003  -0.00002   0.00000   0.00000   0.00000
 152       15F 0        0.00000   0.00000   0.00001  -0.00007  -0.00003
 153       15F+1       -0.00001   0.00000   0.00000   0.00000   0.00000
 154       15F-1        0.00000   0.00000   0.00000   0.00000   0.00000
 155       15F+2        0.00001   0.00002   0.00000   0.00000   0.00000
 156       15F-2        0.00002  -0.00001   0.00000   0.00000   0.00000
 157       15F+3        0.00000   0.00000   0.00000   0.00000   0.00000
 158       15F-3        0.00000   0.00000   0.00001   0.00003   0.00000
 159       16F 0        0.00000   0.00000  -0.00032  -0.00058  -0.00031
 160       16F+1       -0.00019   0.00011   0.00000   0.00000   0.00000
 161       16F-1       -0.00011  -0.00019   0.00000   0.00000   0.00000
 162       16F+2       -0.00002  -0.00003   0.00000   0.00000   0.00000
 163       16F-2       -0.00003   0.00002   0.00000   0.00000   0.00000
 164       16F+3        0.00000   0.00000   0.00000   0.00000   0.00000
 165       16F-3        0.00000   0.00000  -0.00002  -0.00005   0.00002
 166 6   F  1S          0.00001   0.00000  -0.00144  -0.01037  -0.04967
 167        2S          0.00000   0.00000   0.00020   0.00043   0.00079
 168        3S          0.00000   0.00000  -0.00007  -0.00045  -0.00202
 169        4S          0.00001   0.00000  -0.00055  -0.00105   0.00057
 170        5S         -0.00001   0.00000   0.00010  -0.00166   0.00180
 171        6PX        -0.00004   0.00002   0.00000   0.00000   0.00000
 172        6PY        -0.00002  -0.00004   0.00000   0.00000   0.00000
 173        6PZ         0.00000   0.00000   0.00058   0.00111   0.00011
 174        7PX         0.00000   0.00000   0.00000   0.00000   0.00000
 175        7PY         0.00000  -0.00001   0.00000   0.00000   0.00000
 176        7PZ         0.00000   0.00000   0.00069   0.00132   0.00001
 177        8PX        -0.00021   0.00012   0.00000   0.00000   0.00000
 178        8PY        -0.00012  -0.00021   0.00000   0.00000   0.00000
 179        8PZ         0.00000   0.00000   0.00008   0.00017   0.00049
 180        9PX        -0.00031   0.00018   0.00000   0.00000   0.00000
 181        9PY        -0.00018  -0.00031   0.00000   0.00000   0.00000
 182        9PZ         0.00000   0.00000   0.00017  -0.00008   0.00072
 183       10D 0        0.00000   0.00000   0.00001   0.00001  -0.00002
 184       10D+1       -0.00001   0.00000   0.00000   0.00000   0.00000
 185       10D-1        0.00000  -0.00001   0.00000   0.00000   0.00000
 186       10D+2        0.00000   0.00001   0.00000   0.00000   0.00000
 187       10D-2        0.00001   0.00000   0.00000   0.00000   0.00000
 188       11D 0        0.00000   0.00000  -0.00003  -0.00010   0.00001
 189       11D+1        0.00004  -0.00002   0.00000   0.00000   0.00000
 190       11D-1        0.00002   0.00004   0.00000   0.00000   0.00000
 191       11D+2       -0.00002  -0.00003   0.00000   0.00000   0.00000
 192       11D-2       -0.00003   0.00002   0.00000   0.00000   0.00000
 193       12D 0        0.00000   0.00000  -0.00019  -0.00012   0.00012
 194       12D+1       -0.00020   0.00011   0.00000   0.00000   0.00000
 195       12D-1       -0.00011  -0.00019   0.00000   0.00000   0.00000
 196       12D+2        0.00005   0.00009   0.00000   0.00000   0.00000
 197       12D-2        0.00009  -0.00005   0.00000   0.00000   0.00000
 198       13F 0        0.00000   0.00000   0.00001  -0.00001  -0.00004
 199       13F+1        0.00002  -0.00001   0.00000   0.00000   0.00000
 200       13F-1        0.00001   0.00002   0.00000   0.00000   0.00000
 201       13F+2       -0.00001  -0.00001   0.00000   0.00000   0.00000
 202       13F-2       -0.00001   0.00001   0.00000   0.00000   0.00000
 203       13F+3        0.00000   0.00000   0.00000   0.00000   0.00000
 204       13F-3        0.00000   0.00000   0.00000   0.00000   0.00000
 205       14F 0        0.00000   0.00000  -0.00004   0.00002   0.00013
 206       14F+1       -0.00005   0.00003   0.00000   0.00000   0.00000
 207       14F-1       -0.00003  -0.00005   0.00000   0.00000   0.00000
 208       14F+2        0.00002   0.00004   0.00000   0.00000   0.00000
 209       14F-2        0.00004  -0.00002   0.00000   0.00000   0.00000
 210       14F+3        0.00000   0.00000   0.00000   0.00000   0.00000
 211       14F-3        0.00000   0.00000   0.00000   0.00000  -0.00001
                           6         7         8         9        10
     Eigenvalues --     2.00000   2.00000   1.98361   1.97544   1.96949
   1 1   C  1S          0.05030  -0.00046   0.01541  -0.07349  -0.14374
   2        2S         -0.00012  -0.00001  -0.04199   0.19942   0.39735
   3        3S          0.00230  -0.00003  -0.01041   0.04628   0.09617
   4        4S         -0.00715   0.00016   0.00577   0.07921   0.19077
   5        5S         -0.00018   0.00010   0.00791  -0.00691  -0.02898
   6        6PX         0.00000   0.00000   0.00004   0.00025   0.00027
   7        6PY         0.00000   0.00000   0.00002   0.00015   0.00014
   8        6PZ         0.00004   0.00000   0.00642   0.01048  -0.02683
   9        7PX        -0.00001   0.00000   0.00010   0.00027   0.00032
  10        7PY        -0.00001   0.00000   0.00006   0.00016   0.00017
  11        7PZ        -0.00075   0.00000   0.00700   0.01806  -0.03197
  12        8PX        -0.00001   0.00000   0.00022   0.00011   0.00009
  13        8PY         0.00000   0.00000   0.00013   0.00007   0.00004
  14        8PZ         0.00518   0.00009   0.01653   0.00595  -0.02253
  15        9PX         0.00000   0.00000   0.00001   0.00001   0.00000
  16        9PY         0.00000   0.00000   0.00000   0.00001   0.00000
  17        9PZ         0.00011   0.00001  -0.00071   0.00032  -0.00409
  18       10D 0        0.00004   0.00000   0.00051  -0.00215  -0.00958
  19       10D+1        0.00000   0.00000  -0.00001   0.00004   0.00008
  20       10D-1        0.00000   0.00000   0.00000   0.00002   0.00004
  21       10D+2        0.00000   0.00000   0.00000   0.00001   0.00001
  22       10D-2        0.00000   0.00000   0.00000   0.00002   0.00003
  23       11D 0       -0.00022  -0.00002  -0.00530   0.00458  -0.01878
  24       11D+1       -0.00001   0.00000  -0.00007   0.00008   0.00021
  25       11D-1        0.00000   0.00000  -0.00004   0.00005   0.00011
  26       11D+2       -0.00001   0.00000   0.00004   0.00002   0.00001
  27       11D-2       -0.00001   0.00000   0.00008   0.00003   0.00002
  28       12D 0        0.00027   0.00008   0.00210  -0.00840  -0.01678
  29       12D+1       -0.00001   0.00000  -0.00001  -0.00001   0.00002
  30       12D-1        0.00000   0.00000   0.00000  -0.00001   0.00000
  31       12D+2       -0.00001   0.00000   0.00005  -0.00001  -0.00003
  32       12D-2       -0.00001   0.00000   0.00008  -0.00002  -0.00006
  33       13F 0       -0.00007   0.00000   0.00001   0.00241   0.00062
  34       13F+1        0.00000   0.00000   0.00000  -0.00001  -0.00001
  35       13F-1        0.00000   0.00000   0.00000   0.00000  -0.00001
  36       13F+2        0.00000   0.00000   0.00000   0.00001   0.00002
  37       13F-2        0.00000   0.00000  -0.00001   0.00002   0.00003
  38       13F+3        0.00000   0.00000   0.00000   0.00000   0.00000
  39       13F-3        0.00001   0.00000  -0.00014   0.00194   0.00397
  40       14F 0        0.00127  -0.00001   0.00469   0.00263  -0.00194
  41       14F+1        0.00000   0.00000   0.00001  -0.00002  -0.00002
  42       14F-1        0.00000   0.00000   0.00001  -0.00001  -0.00001
  43       14F+2        0.00000   0.00000  -0.00002   0.00002   0.00004
  44       14F-2        0.00000   0.00000  -0.00004   0.00003   0.00007
  45       14F+3        0.00000   0.00000   0.00000   0.00000   0.00000
  46       14F-3       -0.00046   0.00003   0.00190  -0.00098   0.00402
  47 2   H  1S         -0.00008   0.00000  -0.00859   0.03714   0.08043
  48        2S          0.00100  -0.00006  -0.01530   0.04369   0.08362
  49        3S          0.00182   0.00004  -0.00074  -0.00492  -0.01213
  50        4S          0.00004   0.00000  -0.00047   0.00052   0.00040
  51        5PX         0.00000   0.00000   0.00000   0.00000   0.00000
  52        5PY         0.00001   0.00000  -0.00109   0.00399   0.00862
  53        5PZ        -0.00004   0.00000   0.00028   0.00095   0.00035
  54        6PX         0.00000   0.00000   0.00003   0.00001   0.00000
  55        6PY         0.00008   0.00000  -0.00072   0.00080   0.00122
  56        6PZ         0.00032  -0.00001   0.00005   0.00246  -0.00044
  57        7PX        -0.00001   0.00000   0.00005  -0.00002  -0.00003
  58        7PY         0.00044   0.00001   0.00139  -0.00495  -0.01031
  59        7PZ        -0.00055   0.00001  -0.00279  -0.00171  -0.00129
  60        8D 0        0.00006   0.00000   0.00014  -0.00035  -0.00091
  61        8D+1        0.00000   0.00000   0.00000   0.00000   0.00000
  62        8D-1       -0.00001   0.00000  -0.00015   0.00050   0.00024
  63        8D+2       -0.00002   0.00000   0.00003  -0.00054  -0.00137
  64        8D-2        0.00000   0.00000   0.00000   0.00000   0.00000
  65        9D 0        0.00009  -0.00001  -0.00007   0.00122   0.00102
  66        9D+1        0.00000   0.00000  -0.00001   0.00000   0.00001
  67        9D-1        0.00014   0.00000  -0.00006   0.00005  -0.00036
  68        9D+2        0.00004   0.00000  -0.00099   0.00226   0.00415
  69        9D-2        0.00000   0.00000   0.00001   0.00000   0.00000
  70 3   H  1S         -0.00008   0.00000  -0.00858   0.03714   0.08043
  71        2S          0.00100  -0.00006  -0.01530   0.04369   0.08362
  72        3S          0.00182   0.00004  -0.00075  -0.00492  -0.01213
  73        4S          0.00004   0.00000  -0.00047   0.00052   0.00040
  74        5PX         0.00001   0.00000  -0.00094   0.00345   0.00747
  75        5PY        -0.00001   0.00000   0.00054  -0.00199  -0.00431
  76        5PZ        -0.00004   0.00000   0.00028   0.00096   0.00035
  77        6PX         0.00006   0.00000  -0.00061   0.00069   0.00106
  78        6PY        -0.00004   0.00000   0.00038  -0.00039  -0.00061
  79        6PZ         0.00032  -0.00001   0.00005   0.00246  -0.00044
  80        7PX         0.00038   0.00001   0.00123  -0.00430  -0.00895
  81        7PY        -0.00023   0.00000  -0.00065   0.00246   0.00513
  82        7PZ        -0.00055   0.00001  -0.00279  -0.00172  -0.00129
  83        8D 0        0.00006   0.00000   0.00014  -0.00035  -0.00091
  84        8D+1       -0.00001   0.00000  -0.00013   0.00043   0.00021
  85        8D-1        0.00000   0.00000   0.00007  -0.00025  -0.00012
  86        8D+2        0.00001   0.00000  -0.00001   0.00027   0.00068
  87        8D-2       -0.00001   0.00000   0.00003  -0.00047  -0.00119
  88        9D 0        0.00009  -0.00001  -0.00007   0.00122   0.00102
  89        9D+1        0.00012   0.00000  -0.00006   0.00004  -0.00031
  90        9D-1       -0.00007   0.00000   0.00003  -0.00002   0.00019
  91        9D+2       -0.00002   0.00000   0.00050  -0.00113  -0.00207
  92        9D-2        0.00003   0.00000  -0.00085   0.00196   0.00359
  93 4   H  1S         -0.00008   0.00000  -0.00850   0.03753   0.08068
  94        2S          0.00103  -0.00006  -0.01544   0.04409   0.08382
  95        3S          0.00185   0.00004  -0.00138  -0.00496  -0.01197
  96        4S          0.00003   0.00000  -0.00049   0.00049   0.00041
  97        5PX        -0.00001   0.00000   0.00094  -0.00350  -0.00750
  98        5PY        -0.00001   0.00000   0.00054  -0.00202  -0.00433
  99        5PZ        -0.00004   0.00000   0.00028   0.00093   0.00028
 100        6PX        -0.00008   0.00000   0.00068  -0.00071  -0.00102
 101        6PY        -0.00005   0.00000   0.00039  -0.00041  -0.00059
 102        6PZ         0.00032  -0.00001   0.00019   0.00235  -0.00061
 103        7PX        -0.00038  -0.00001  -0.00107   0.00434   0.00898
 104        7PY        -0.00022   0.00000  -0.00062   0.00251   0.00518
 105        7PZ        -0.00055   0.00001  -0.00277  -0.00169  -0.00123
 106        8D 0        0.00006   0.00000   0.00014  -0.00036  -0.00091
 107        8D+1        0.00001   0.00000   0.00011  -0.00042  -0.00018
 108        8D-1        0.00000   0.00000   0.00006  -0.00024  -0.00010
 109        8D+2        0.00001   0.00000  -0.00002   0.00028   0.00069
 110        8D-2        0.00001   0.00000  -0.00003   0.00048   0.00119
 111        9D 0        0.00009  -0.00001  -0.00006   0.00123   0.00105
 112        9D+1       -0.00012   0.00000   0.00003  -0.00005   0.00031
 113        9D-1       -0.00007   0.00000   0.00002  -0.00003   0.00018
 114        9D+2       -0.00002   0.00000   0.00049  -0.00113  -0.00208
 115        9D-2       -0.00003   0.00000   0.00084  -0.00196  -0.00360
 116 5   Cl 1S          0.00006   0.99708  -0.00064   0.06644  -0.03486
 117        2S         -0.00005   0.01040   0.00293  -0.25179   0.13104
 118        3S          0.00005   0.00017  -0.00391   0.52441  -0.27879
 119        4S          0.00008   0.00026  -0.00025   0.06423  -0.03755
 120        5S         -0.00180  -0.00020  -0.01232   0.35076  -0.17097
 121        6S         -0.00049  -0.00011  -0.00462   0.02454   0.01127
 122        7PX         0.00002   0.00000   0.00000  -0.00003  -0.00005
 123        7PY         0.00001   0.00000   0.00000  -0.00001  -0.00002
 124        7PZ         0.00725   0.00016   0.00153   0.00464   0.02890
 125        8PX         0.00000   0.00000  -0.00001   0.00008   0.00011
 126        8PY         0.00000   0.00000  -0.00001   0.00005   0.00004
 127        8PZ         0.00051  -0.00003  -0.00229  -0.00618  -0.07231
 128        9PX         0.00000   0.00000   0.00000   0.00004   0.00006
 129        9PY         0.00000   0.00000   0.00000   0.00002   0.00002
 130        9PZ         0.00031   0.00003  -0.00265   0.00060  -0.03154
 131       10PX         0.00000   0.00000   0.00000   0.00005   0.00003
 132       10PY         0.00000   0.00000   0.00000   0.00003   0.00000
 133       10PZ         0.00094   0.00015   0.00270   0.00295  -0.05249
 134       11PX         0.00000   0.00000   0.00000   0.00000   0.00000
 135       11PY         0.00000   0.00000   0.00000   0.00000   0.00000
 136       11PZ         0.00002   0.00002  -0.00041   0.00262  -0.00876
 137       12D 0       -0.00003   0.00001  -0.00035   0.00450   0.00455
 138       12D+1        0.00000   0.00000   0.00000  -0.00001  -0.00001
 139       12D-1        0.00000   0.00000   0.00000   0.00000   0.00000
 140       12D+2        0.00000   0.00000   0.00000   0.00000   0.00000
 141       12D-2        0.00000   0.00000   0.00000   0.00000   0.00000
 142       13D 0       -0.00022   0.00000  -0.00163   0.00820   0.00970
 143       13D+1        0.00000   0.00000   0.00000   0.00000   0.00000
 144       13D-1        0.00000   0.00000   0.00000   0.00000   0.00001
 145       13D+2        0.00000   0.00000   0.00000   0.00000   0.00000
 146       13D-2        0.00000   0.00000   0.00000   0.00000   0.00000
 147       14D 0       -0.00014  -0.00004  -0.00184  -0.00018   0.00538
 148       14D+1        0.00000   0.00000   0.00000  -0.00001   0.00002
 149       14D-1        0.00000   0.00000   0.00000  -0.00001   0.00002
 150       14D+2        0.00000   0.00000   0.00000   0.00000   0.00000
 151       14D-2        0.00000   0.00000   0.00000   0.00000  -0.00001
 152       15F 0        0.00005   0.00000   0.00023  -0.00180  -0.00192
 153       15F+1        0.00000   0.00000   0.00000   0.00000   0.00000
 154       15F-1        0.00000   0.00000   0.00000   0.00000   0.00000
 155       15F+2        0.00000   0.00000   0.00000   0.00000   0.00000
 156       15F-2        0.00000   0.00000   0.00000   0.00000   0.00000
 157       15F+3        0.00000   0.00000   0.00000   0.00000   0.00000
 158       15F-3       -0.00001   0.00000  -0.00001   0.00002   0.00009
 159       16F 0       -0.00005   0.00001   0.00005  -0.00093  -0.00171
 160       16F+1        0.00000   0.00000   0.00000  -0.00001  -0.00001
 161       16F-1        0.00000   0.00000   0.00000  -0.00001  -0.00001
 162       16F+2        0.00000   0.00000   0.00000   0.00000   0.00001
 163       16F-2        0.00000   0.00000  -0.00001   0.00000   0.00001
 164       16F+3        0.00000   0.00000   0.00000   0.00000   0.00000
 165       16F-3        0.00003   0.00000   0.00002  -0.00001  -0.00021
 166 6   F  1S          0.97743  -0.00002   0.21189   0.01315   0.02154
 167        2S         -0.01503   0.00000  -0.53163  -0.03405  -0.05715
 168        3S          0.04206   0.00000  -0.16472  -0.01081  -0.01847
 169        4S          0.00193  -0.00001  -0.36878  -0.02361  -0.04372
 170        5S         -0.00082  -0.00006  -0.04528   0.00426   0.00796
 171        6PX         0.00000   0.00000   0.00005  -0.00004  -0.00044
 172        6PY         0.00000   0.00000   0.00003  -0.00002  -0.00022
 173        6PZ         0.00048   0.00000   0.01360   0.01270   0.08716
 174        7PX         0.00000   0.00000   0.00006  -0.00004  -0.00052
 175        7PY         0.00000   0.00000   0.00004  -0.00002  -0.00027
 176        7PZ        -0.00012   0.00000   0.01485   0.01552   0.10487
 177        8PX         0.00000   0.00000   0.00005  -0.00002  -0.00040
 178        8PY         0.00000   0.00000   0.00003  -0.00001  -0.00020
 179        8PZ         0.00240  -0.00001   0.01254   0.01229   0.08347
 180        9PX         0.00000   0.00000   0.00002  -0.00001  -0.00013
 181        9PY         0.00000   0.00000   0.00001   0.00000  -0.00007
 182        9PZ        -0.00008  -0.00002   0.00222   0.00318   0.02419
 183       10D 0       -0.00002   0.00000  -0.00013   0.00017   0.00060
 184       10D+1        0.00000   0.00000   0.00000   0.00000   0.00000
 185       10D-1        0.00000   0.00000   0.00000   0.00000   0.00000
 186       10D+2        0.00000   0.00000   0.00000   0.00000   0.00000
 187       10D-2        0.00000   0.00000   0.00000   0.00000   0.00000
 188       11D 0       -0.00003   0.00000  -0.00104   0.00091   0.00275
 189       11D+1        0.00000   0.00000   0.00000   0.00000   0.00000
 190       11D-1        0.00000   0.00000   0.00000   0.00000   0.00000
 191       11D+2        0.00000   0.00000   0.00000   0.00000   0.00000
 192       11D-2        0.00000   0.00000   0.00000   0.00000   0.00000
 193       12D 0        0.00080   0.00000  -0.00055   0.00036   0.00387
 194       12D+1        0.00000   0.00000   0.00000   0.00001   0.00001
 195       12D-1        0.00000   0.00000   0.00000   0.00001   0.00001
 196       12D+2        0.00000   0.00000   0.00000   0.00000   0.00000
 197       12D-2        0.00000   0.00000   0.00000   0.00000   0.00000
 198       13F 0       -0.00006   0.00000  -0.00002   0.00013   0.00027
 199       13F+1        0.00000   0.00000   0.00000   0.00000   0.00000
 200       13F-1        0.00000   0.00000   0.00000   0.00000   0.00000
 201       13F+2        0.00000   0.00000   0.00000   0.00000   0.00000
 202       13F-2        0.00000   0.00000   0.00000   0.00000   0.00000
 203       13F+3        0.00000   0.00000   0.00000   0.00000   0.00000
 204       13F-3        0.00001   0.00000   0.00001   0.00002   0.00003
 205       14F 0        0.00020   0.00000  -0.00040  -0.00006   0.00063
 206       14F+1        0.00000   0.00000   0.00000   0.00000   0.00001
 207       14F-1        0.00000   0.00000   0.00000   0.00000   0.00000
 208       14F+2        0.00000   0.00000   0.00000   0.00000   0.00000
 209       14F-2        0.00000   0.00000   0.00000   0.00000   0.00000
 210       14F+3        0.00000   0.00000   0.00000   0.00000   0.00000
 211       14F-3       -0.00001   0.00000  -0.00006  -0.00006  -0.00009
                          11        12        13        14        15
     Eigenvalues --     1.96437   1.96437   1.95929   1.95924   1.94911
   1 1   C  1S          0.00000  -0.00027   0.00017   0.00000  -0.00001
   2        2S          0.00001   0.00081  -0.00050   0.00000   0.00002
   3        3S          0.00000   0.00023  -0.00014   0.00000   0.00001
   4        4S          0.00000  -0.00046   0.00181   0.00001   0.00004
   5        5S          0.00000  -0.00009   0.00024   0.00000   0.00001
   6        6PX        -0.04860   0.08533   0.20004  -0.11543  -0.03391
   7        6PY         0.08491   0.04884   0.11535   0.20018   0.05891
   8        6PZ        -0.00003   0.00042   0.00113  -0.00007  -0.00001
   9        7PX        -0.06513   0.11437   0.26516  -0.15300  -0.04713
  10        7PY         0.11379   0.06547   0.15290   0.26532   0.08188
  11        7PZ        -0.00004   0.00053   0.00145  -0.00009  -0.00002
  12        8PX        -0.04769   0.08347   0.20487  -0.11814  -0.03624
  13        8PY         0.08332   0.04777   0.11814   0.20487   0.06297
  14        8PZ        -0.00003   0.00052   0.00120  -0.00007  -0.00001
  15        9PX         0.00110  -0.00187   0.01637  -0.00948  -0.00612
  16        9PY        -0.00192  -0.00107   0.00944   0.01644   0.01063
  17        9PZ         0.00000  -0.00003   0.00009  -0.00001   0.00000
  18       10D 0        0.00000  -0.00004  -0.00003   0.00000   0.00000
  19       10D+1        0.00134  -0.00229  -0.00096   0.00064   0.00186
  20       10D-1       -0.00234  -0.00131  -0.00055  -0.00110  -0.00323
  21       10D+2        0.00541   0.00312   0.00742   0.01284   0.00436
  22       10D-2       -0.00310   0.00545   0.01286  -0.00741  -0.00251
  23       11D 0        0.00001  -0.00004  -0.00018   0.00000   0.00000
  24       11D+1        0.00634  -0.01083   0.00711  -0.00381   0.00772
  25       11D-1       -0.01106  -0.00619   0.00411   0.00663  -0.01341
  26       11D+2        0.01798   0.01027   0.02273   0.03926   0.01480
  27       11D-2       -0.01030   0.01793   0.03939  -0.02266  -0.00852
  28       12D 0        0.00000  -0.00012  -0.00008   0.00000   0.00000
  29       12D+1        0.00304  -0.00527   0.00528  -0.00276  -0.00055
  30       12D-1       -0.00529  -0.00301   0.00305   0.00481   0.00096
  31       12D+2        0.01749   0.00990   0.01812   0.03118   0.00869
  32       12D-2       -0.01001   0.01728   0.03141  -0.01800  -0.00501
  33       13F 0        0.00000  -0.00001  -0.00003   0.00000   0.00000
  34       13F+1       -0.00012   0.00021  -0.00175   0.00100   0.00112
  35       13F-1        0.00021   0.00012  -0.00101  -0.00174  -0.00194
  36       13F+2       -0.00056  -0.00031  -0.00004  -0.00011  -0.00029
  37       13F-2        0.00032  -0.00054  -0.00007   0.00007   0.00017
  38       13F+3        0.00001   0.00000   0.00000   0.00000   0.00000
  39       13F-3        0.00000   0.00000   0.00001   0.00000   0.00000
  40       14F 0        0.00000   0.00004  -0.00001   0.00000   0.00001
  41       14F+1       -0.00019   0.00026  -0.00507   0.00291   0.00362
  42       14F-1        0.00034   0.00014  -0.00292  -0.00505  -0.00629
  43       14F+2       -0.00337  -0.00186   0.00005  -0.00008  -0.00279
  44       14F-2        0.00193  -0.00325   0.00008   0.00005   0.00161
  45       14F+3        0.00003   0.00000   0.00000  -0.00001   0.00002
  46       14F-3        0.00000  -0.00009   0.00014   0.00000   0.00000
  47 2   H  1S         -0.05841  -0.03344  -0.07579  -0.13130  -0.04053
  48        2S         -0.05261  -0.02997  -0.07749  -0.13378  -0.03992
  49        3S          0.05040   0.02893   0.05964   0.10351   0.00453
  50        4S         -0.00503  -0.00285   0.00866   0.01507   0.00095
  51        5PX        -0.00104   0.00182   0.00378  -0.00219  -0.00053
  52        5PY        -0.00458  -0.00262  -0.00621  -0.01073  -0.00312
  53        5PZ         0.00003   0.00002  -0.00138  -0.00242   0.00016
  54        6PX        -0.00398   0.00696   0.01180  -0.00681  -0.00184
  55        6PY         0.00628   0.00364   0.00555   0.00973   0.00486
  56        6PZ        -0.00242  -0.00129   0.00031   0.00035  -0.00101
  57        7PX        -0.00462   0.00796   0.01172  -0.00666  -0.00137
  58        7PY         0.01224   0.00709   0.02272   0.03952   0.00841
  59        7PZ         0.00057   0.00030   0.00387   0.00649   0.00251
  60        8D 0        0.00036   0.00020   0.00068   0.00118   0.00035
  61        8D+1       -0.00001   0.00002   0.00028  -0.00016   0.00002
  62        8D-1       -0.00065  -0.00036  -0.00011  -0.00021  -0.00025
  63        8D+2        0.00052   0.00030   0.00097   0.00167   0.00045
  64        8D-2       -0.00052   0.00091   0.00194  -0.00112  -0.00030
  65        9D 0       -0.00047  -0.00025   0.00073   0.00127  -0.00013
  66        9D+1        0.00077  -0.00132   0.00089  -0.00051   0.00058
  67        9D-1       -0.00289  -0.00164   0.00173   0.00296  -0.00040
  68        9D+2       -0.00140  -0.00081  -0.00134  -0.00231  -0.00093
  69        9D-2       -0.00082   0.00142   0.00251  -0.00144  -0.00056
  70 3   H  1S          0.05817  -0.03387  -0.07590   0.13124   0.04049
  71        2S          0.05239  -0.03035  -0.07759   0.13372   0.03986
  72        3S         -0.05019   0.02929   0.05972  -0.10347  -0.00453
  73        4S          0.00501  -0.00288   0.00867  -0.01507  -0.00095
  74        5PX         0.00448  -0.00139  -0.00349   0.01038   0.00296
  75        5PY        -0.00137   0.00290   0.00638  -0.00347  -0.00110
  76        5PZ        -0.00002   0.00002  -0.00138   0.00243  -0.00015
  77        6PX        -0.00340   0.00665   0.01071  -0.00501  -0.00328
  78        6PY         0.00662   0.00416   0.00743   0.01077   0.00403
  79        6PZ         0.00241  -0.00131   0.00031  -0.00035   0.00100
  80        7PX        -0.00821   0.01018   0.02556  -0.03087  -0.00659
  81        7PY         0.01015   0.00328  -0.00124   0.02554   0.00539
  82        7PZ        -0.00058   0.00030   0.00388  -0.00651  -0.00251
  83        8D 0       -0.00035   0.00021   0.00069  -0.00118  -0.00035
  84        8D+1        0.00056  -0.00031   0.00004   0.00026   0.00021
  85        8D-1       -0.00032   0.00020   0.00029   0.00003  -0.00014
  86        8D+2        0.00072   0.00064   0.00120   0.00180   0.00048
  87        8D-2       -0.00019   0.00071   0.00181  -0.00088  -0.00024
  88        9D 0        0.00047  -0.00025   0.00073  -0.00128   0.00013
  89        9D+1        0.00210  -0.00209   0.00195  -0.00231   0.00005
  90        9D-1       -0.00212  -0.00031  -0.00009   0.00192  -0.00070
  91        9D+2        0.00002   0.00164   0.00284   0.00009   0.00002
  92        9D-2        0.00163   0.00000   0.00009   0.00271   0.00109
  93 4   H  1S          0.00025   0.06766   0.15160   0.00006   0.00006
  94        2S          0.00022   0.06123   0.15355   0.00006   0.00005
  95        3S         -0.00021  -0.05775  -0.12073  -0.00005  -0.00001
  96        4S          0.00002   0.00577  -0.01737  -0.00001   0.00000
  97        5PX        -0.00106  -0.00463  -0.01074  -0.00220  -0.00053
  98        5PY         0.00180  -0.00268  -0.00620   0.00380   0.00091
  99        5PZ         0.00000  -0.00007   0.00266   0.00000   0.00000
 100        6PX        -0.00401   0.00623   0.00988  -0.00681  -0.00186
 101        6PY         0.00700   0.00357   0.00570   0.01182   0.00323
 102        6PZ         0.00001   0.00284  -0.00055   0.00000   0.00000
 103        7PX        -0.00461   0.01224   0.03967  -0.00666  -0.00135
 104        7PY         0.00810   0.00703   0.02289   0.01157   0.00237
 105        7PZ         0.00000  -0.00029  -0.00734  -0.00001  -0.00001
 106        8D 0        0.00000  -0.00042  -0.00135   0.00000   0.00000
 107        8D+1       -0.00001  -0.00063  -0.00016  -0.00015   0.00002
 108        8D-1        0.00001  -0.00036  -0.00009   0.00026  -0.00003
 109        8D+2        0.00092   0.00030   0.00096   0.00195   0.00052
 110        8D-2       -0.00053   0.00053   0.00166  -0.00112  -0.00030
 111        9D 0        0.00000   0.00058  -0.00145   0.00000   0.00000
 112        9D+1        0.00077  -0.00290   0.00292  -0.00048   0.00059
 113        9D-1       -0.00136  -0.00167   0.00169   0.00084  -0.00103
 114        9D+2        0.00145  -0.00082  -0.00133   0.00248   0.00097
 115        9D-2       -0.00084  -0.00140  -0.00230  -0.00144  -0.00056
 116 5   Cl 1S          0.00000  -0.00010  -0.00009   0.00000   0.00000
 117        2S          0.00000   0.00037   0.00035   0.00000   0.00001
 118        3S         -0.00001  -0.00078  -0.00069   0.00000  -0.00001
 119        4S          0.00000  -0.00011  -0.00010   0.00000   0.00000
 120        5S          0.00000  -0.00059  -0.00076   0.00000  -0.00001
 121        6S          0.00000  -0.00003  -0.00016   0.00000   0.00000
 122        7PX         0.00436  -0.00771  -0.03764   0.02176  -0.11153
 123        7PY        -0.00763  -0.00441  -0.02171  -0.03773   0.19377
 124        7PZ         0.00000   0.00007   0.00013   0.00001  -0.00007
 125        8PX        -0.01033   0.01824   0.08894  -0.05141   0.25515
 126        8PY         0.01806   0.01044   0.05129   0.08916  -0.44327
 127        8PZ        -0.00001  -0.00013  -0.00023  -0.00003   0.00016
 128        9PX        -0.00480   0.00847   0.04114  -0.02378   0.12325
 129        9PY         0.00838   0.00485   0.02373   0.04124  -0.21412
 130        9PZ         0.00000  -0.00007  -0.00014  -0.00001   0.00008
 131       10PX        -0.00516   0.00915   0.04807  -0.02785   0.18343
 132       10PY         0.00901   0.00524   0.02772   0.04829  -0.31869
 133       10PZ         0.00000   0.00003   0.00014  -0.00002   0.00012
 134       11PX        -0.00105   0.00182   0.00291  -0.00169   0.03104
 135       11PY         0.00184   0.00104   0.00168   0.00293  -0.05392
 136       11PZ         0.00000   0.00003   0.00007   0.00000   0.00002
 137       12D 0        0.00000   0.00004   0.00006   0.00000   0.00000
 138       12D+1        0.00094  -0.00166  -0.00538   0.00309  -0.00011
 139       12D-1       -0.00164  -0.00095  -0.00310  -0.00535   0.00020
 140       12D+2        0.00010   0.00006   0.00028   0.00047   0.00022
 141       12D-2       -0.00006   0.00010   0.00048  -0.00027  -0.00012
 142       13D 0        0.00000   0.00003   0.00003   0.00001   0.00000
 143       13D+1        0.00144  -0.00255  -0.00947   0.00547  -0.00036
 144       13D-1       -0.00252  -0.00146  -0.00546  -0.00949   0.00062
 145       13D+2        0.00028   0.00016   0.00032   0.00056   0.00049
 146       13D-2       -0.00016   0.00028   0.00055  -0.00032  -0.00028
 147       14D 0        0.00000   0.00000  -0.00004   0.00000   0.00000
 148       14D+1       -0.00003   0.00002   0.00004  -0.00002  -0.00169
 149       14D-1        0.00005   0.00001   0.00002   0.00003   0.00293
 150       14D+2       -0.00057  -0.00032  -0.00003  -0.00006   0.00008
 151       14D-2        0.00033  -0.00056  -0.00005   0.00004  -0.00005
 152       15F 0        0.00000  -0.00001  -0.00001   0.00000   0.00000
 153       15F+1       -0.00044   0.00077   0.00227  -0.00131   0.00070
 154       15F-1        0.00077   0.00044   0.00131   0.00227  -0.00122
 155       15F+2       -0.00010  -0.00006  -0.00017  -0.00030  -0.00009
 156       15F-2        0.00006  -0.00010  -0.00029   0.00017   0.00005
 157       15F+3        0.00000   0.00000   0.00000   0.00000   0.00000
 158       15F-3        0.00000   0.00000   0.00000   0.00000   0.00000
 159       16F 0        0.00000   0.00000   0.00001   0.00000   0.00000
 160       16F+1       -0.00030   0.00053   0.00172  -0.00100   0.00090
 161       16F-1        0.00052   0.00030   0.00099   0.00174  -0.00156
 162       16F+2        0.00001   0.00001   0.00010   0.00016  -0.00017
 163       16F-2       -0.00001   0.00002   0.00017  -0.00010   0.00010
 164       16F+3        0.00000   0.00000   0.00000   0.00000   0.00000
 165       16F-3        0.00000   0.00000   0.00001   0.00000   0.00000
 166 6   F  1S          0.00000  -0.00005  -0.00014   0.00000   0.00000
 167        2S          0.00000   0.00012   0.00036   0.00000   0.00000
 168        3S          0.00000   0.00004   0.00012   0.00000   0.00000
 169        4S          0.00000   0.00020   0.00040   0.00000   0.00000
 170        5S          0.00000   0.00008   0.00019   0.00000   0.00000
 171        6PX        -0.16504   0.28815  -0.14071   0.08090   0.01129
 172        6PY         0.28835   0.16492  -0.08114  -0.14030  -0.01961
 173        6PZ        -0.00011  -0.00083  -0.00078   0.00005  -0.00004
 174        7PX        -0.19687   0.34372  -0.16686   0.09593   0.01336
 175        7PY         0.34397   0.19673  -0.09622  -0.16635  -0.02321
 176        7PZ        -0.00013  -0.00099  -0.00095   0.00006  -0.00005
 177        8PX        -0.15915   0.27786  -0.14027   0.08069   0.01144
 178        8PY         0.27806   0.15903  -0.08089  -0.13993  -0.01988
 179        8PZ        -0.00010  -0.00073  -0.00066   0.00005  -0.00004
 180        9PX        -0.05001   0.08732  -0.04938   0.02844   0.00557
 181        9PY         0.08738   0.04998  -0.02847  -0.04931  -0.00967
 182        9PZ        -0.00003  -0.00021  -0.00010   0.00002  -0.00001
 183       10D 0        0.00000   0.00000  -0.00001   0.00000   0.00000
 184       10D+1       -0.00030   0.00052   0.00008  -0.00005  -0.00006
 185       10D-1        0.00052   0.00030   0.00004   0.00008   0.00010
 186       10D+2        0.00002   0.00001   0.00002   0.00003   0.00001
 187       10D-2       -0.00001   0.00002   0.00003  -0.00002   0.00000
 188       11D 0        0.00000   0.00000  -0.00002   0.00000   0.00000
 189       11D+1       -0.00120   0.00210   0.00105  -0.00061  -0.00030
 190       11D-1        0.00210   0.00120   0.00060   0.00106   0.00052
 191       11D+2        0.00004   0.00002   0.00013   0.00022   0.00015
 192       11D-2       -0.00003   0.00004   0.00022  -0.00013  -0.00009
 193       12D 0        0.00000   0.00000  -0.00002   0.00000   0.00000
 194       12D+1       -0.00294   0.00514  -0.00306   0.00177  -0.00016
 195       12D-1        0.00514   0.00294  -0.00177  -0.00307   0.00027
 196       12D+2        0.00004   0.00000  -0.00014  -0.00025  -0.00032
 197       12D-2       -0.00002   0.00001  -0.00024   0.00014   0.00018
 198       13F 0        0.00000   0.00000   0.00000   0.00000   0.00000
 199       13F+1       -0.00011   0.00019   0.00021  -0.00013  -0.00003
 200       13F-1        0.00019   0.00011   0.00012   0.00022   0.00005
 201       13F+2        0.00005   0.00003   0.00005   0.00010   0.00006
 202       13F-2       -0.00003   0.00005   0.00010  -0.00006  -0.00003
 203       13F+3        0.00000   0.00000   0.00000   0.00000   0.00000
 204       13F-3        0.00000   0.00000   0.00000   0.00000   0.00000
 205       14F 0        0.00000   0.00000   0.00000   0.00000   0.00000
 206       14F+1       -0.00072   0.00127  -0.00074   0.00044  -0.00001
 207       14F-1        0.00126   0.00073  -0.00043  -0.00076   0.00001
 208       14F+2       -0.00011  -0.00007  -0.00012  -0.00021  -0.00014
 209       14F-2        0.00006  -0.00012  -0.00020   0.00012   0.00008
 210       14F+3        0.00000   0.00000   0.00000   0.00000   0.00000
 211       14F-3        0.00000   0.00000   0.00000   0.00000   0.00000
                          16        17        18        19        20
     Eigenvalues --     1.94911   1.94878   1.93536   0.06017   0.02493
   1 1   C  1S         -0.00159   0.05308  -0.01612  -0.02348   0.00001
   2        2S          0.00453  -0.15108   0.05187   0.06487  -0.00002
   3        3S          0.00109  -0.03561   0.01696   0.02346  -0.00001
   4        4S          0.00789  -0.29385   0.08856  -0.21824   0.00005
   5        5S          0.00178  -0.05814   0.03929  -0.02777   0.00001
   6        6PX         0.05892   0.00255   0.00075  -0.00134  -0.07707
   7        6PY         0.03392   0.00147   0.00039  -0.00068   0.13401
   8        6PZ         0.00159  -0.04590  -0.12858   0.27952  -0.00004
   9        7PX         0.08186   0.00344   0.00103  -0.00178  -0.14310
  10        7PY         0.04712   0.00198   0.00053  -0.00088   0.24885
  11        7PZ         0.00227  -0.06504  -0.18040   0.44354  -0.00008
  12        8PX         0.06275   0.00219   0.00093  -0.00076  -0.06586
  13        8PY         0.03612   0.00125   0.00051  -0.00037   0.11452
  14        8PZ         0.00210  -0.06436  -0.07659   0.20141  -0.00004
  15        9PX         0.01058   0.00036   0.00013  -0.00019  -0.01467
  16        9PY         0.00609   0.00021   0.00008  -0.00011   0.02552
  17        9PZ         0.00007  -0.00126  -0.00167   0.00004  -0.00001
  18       10D 0       -0.00028   0.00935  -0.01107  -0.00876  -0.00001
  19       10D+1       -0.00319  -0.00014   0.00003   0.00000  -0.01273
  20       10D-1       -0.00183  -0.00007   0.00001   0.00000   0.02214
  21       10D+2        0.00251   0.00010   0.00001   0.00003   0.00331
  22       10D-2        0.00435   0.00017   0.00002   0.00006  -0.00192
  23       11D 0       -0.00142   0.04999  -0.04574   0.06616  -0.00004
  24       11D+1       -0.01324  -0.00041   0.00012  -0.00024  -0.02982
  25       11D-1       -0.00762  -0.00021   0.00004  -0.00010   0.05190
  26       11D+2        0.00851   0.00021   0.00005   0.00019   0.06068
  27       11D-2        0.01476   0.00036   0.00009   0.00032  -0.03495
  28       12D 0       -0.00068   0.02788  -0.00393  -0.01630  -0.00001
  29       12D+1        0.00109  -0.00008   0.00002   0.00001  -0.00937
  30       12D-1        0.00063  -0.00003   0.00001   0.00000   0.01630
  31       12D+2        0.00499   0.00001   0.00006   0.00009   0.01331
  32       12D-2        0.00867   0.00002   0.00010   0.00015  -0.00767
  33       13F 0        0.00005  -0.00208  -0.00328  -0.00590   0.00001
  34       13F+1       -0.00194  -0.00006  -0.00001   0.00006   0.00478
  35       13F-1       -0.00112  -0.00004  -0.00001   0.00003  -0.00831
  36       13F+2       -0.00016   0.00000   0.00000   0.00000   0.00268
  37       13F-2       -0.00027  -0.00001   0.00000   0.00001  -0.00154
  38       13F+3        0.00000   0.00000   0.00000   0.00000  -0.00002
  39       13F-3        0.00009  -0.00307   0.00116  -0.00052   0.00000
  40       14F 0        0.00012  -0.00539  -0.00087   0.01144   0.00000
  41       14F+1       -0.00630  -0.00024   0.00002   0.00006   0.00128
  42       14F-1       -0.00363  -0.00015   0.00001   0.00005  -0.00222
  43       14F+2       -0.00159  -0.00003   0.00002  -0.00007  -0.00180
  44       14F-2       -0.00277  -0.00006   0.00003  -0.00014   0.00104
  45       14F+3        0.00000  -0.00001   0.00000  -0.00001  -0.00004
  46       14F-3        0.00042  -0.01531   0.00920  -0.03708   0.00001
  47 2   H  1S         -0.02234  -0.03467   0.02872  -0.00657   0.03522
  48        2S         -0.02281  -0.00369   0.02259   0.07938   0.22415
  49        3S          0.00203   0.02199   0.02022   0.06848   0.14406
  50        4S          0.00051   0.00017   0.00196   0.00713   0.06237
  51        5PX         0.00092   0.00005   0.00002  -0.00007  -0.00139
  52        5PY        -0.00173  -0.00221   0.00248  -0.00200  -0.00758
  53        5PZ         0.00017  -0.00268  -0.00322   0.01432  -0.01058
  54        6PX         0.00324   0.00009   0.00006   0.00005  -0.00375
  55        6PY         0.00265   0.00567  -0.00152   0.00973   0.05127
  56        6PZ        -0.00053  -0.00094  -0.01028   0.02799  -0.00490
  57        7PX         0.00241  -0.00009   0.00004   0.00018   0.00058
  58        7PY         0.00453   0.01134  -0.00164   0.01259   0.04403
  59        7PZ         0.00127   0.00807   0.00314  -0.01398   0.00456
  60        8D 0        0.00020   0.00015  -0.00085   0.00059   0.00222
  61        8D+1       -0.00003   0.00000   0.00000   0.00000  -0.00090
  62        8D-1       -0.00014  -0.00021  -0.00171   0.00672  -0.00346
  63        8D+2        0.00025   0.00053  -0.00060   0.00185   0.00224
  64        8D-2        0.00052   0.00002   0.00001  -0.00003  -0.00106
  65        9D 0       -0.00011   0.00088  -0.00282   0.00579  -0.00286
  66        9D+1       -0.00102  -0.00003   0.00002  -0.00002  -0.00225
  67        9D-1       -0.00028   0.00203  -0.00054  -0.00592   0.01339
  68        9D+2       -0.00056   0.00106   0.00034  -0.00111  -0.00824
  69        9D-2        0.00097   0.00000   0.00001   0.00008  -0.00059
  70 3   H  1S         -0.02244  -0.03465   0.02872  -0.00657  -0.03514
  71        2S         -0.02290  -0.00368   0.02259   0.07938  -0.22375
  72        3S          0.00204   0.02200   0.02022   0.06847  -0.14382
  73        4S          0.00051   0.00017   0.00196   0.00713  -0.06226
  74        5PX        -0.00105  -0.00189   0.00216  -0.00177   0.00725
  75        5PY         0.00166   0.00114  -0.00123   0.00094  -0.00257
  76        5PZ         0.00017  -0.00268  -0.00322   0.01432   0.01056
  77        6PX         0.00392   0.00495  -0.00129   0.00844  -0.04243
  78        6PY         0.00147  -0.00276   0.00080  -0.00481   0.02887
  79        6PZ        -0.00053  -0.00094  -0.01028   0.02800   0.00487
  80        7PX         0.00514   0.00977  -0.00140   0.01099  -0.03835
  81        7PY        -0.00020  -0.00575   0.00085  -0.00614   0.02148
  82        7PZ         0.00128   0.00808   0.00314  -0.01398  -0.00457
  83        8D 0        0.00020   0.00015  -0.00085   0.00060  -0.00221
  84        8D+1       -0.00013  -0.00018  -0.00148   0.00582   0.00344
  85        8D-1        0.00005   0.00010   0.00085  -0.00336  -0.00094
  86        8D+2        0.00033  -0.00025   0.00031  -0.00095   0.00203
  87        8D-2        0.00047   0.00047  -0.00052   0.00159  -0.00140
  88        9D 0       -0.00011   0.00089  -0.00282   0.00579   0.00284
  89        9D+1       -0.00075   0.00174  -0.00046  -0.00514  -0.01045
  90        9D-1       -0.00074  -0.00104   0.00028   0.00295   0.00864
  91        9D+2        0.00112  -0.00053  -0.00017   0.00062  -0.00359
  92        9D-2        0.00000   0.00092   0.00030  -0.00092   0.00742
  93 4   H  1S          0.04765  -0.03202   0.02895  -0.00569  -0.00006
  94        2S          0.04616  -0.00041   0.02279   0.07979  -0.00041
  95        3S         -0.00557   0.02315   0.01994   0.06709  -0.00028
  96        4S         -0.00103   0.00016   0.00187   0.00702  -0.00012
  97        5PX        -0.00318   0.00174  -0.00213   0.00156  -0.00146
  98        5PY        -0.00184   0.00100  -0.00123   0.00091   0.00251
  99        5PZ        -0.00016  -0.00264  -0.00327   0.01433   0.00002
 100        6PX         0.00494  -0.00475   0.00144  -0.00834  -0.00373
 101        6PY         0.00285  -0.00274   0.00083  -0.00480   0.00666
 102        6PZ         0.00119  -0.00120  -0.01029   0.02751   0.00001
 103        7PX         0.00858  -0.00948   0.00155  -0.01060   0.00064
 104        7PY         0.00495  -0.00547   0.00089  -0.00612  -0.00093
 105        7PZ        -0.00307   0.00782   0.00322  -0.01435  -0.00001
 106        8D 0       -0.00043   0.00015  -0.00083   0.00041  -0.00001
 107        8D+1       -0.00025   0.00019   0.00149  -0.00581  -0.00089
 108        8D-1       -0.00015   0.00011   0.00086  -0.00336   0.00153
 109        8D+2        0.00027  -0.00025   0.00030  -0.00091   0.00187
 110        8D-2        0.00047  -0.00043   0.00051  -0.00158  -0.00108
 111        9D 0        0.00007   0.00090  -0.00282   0.00568   0.00000
 112        9D+1       -0.00038  -0.00169   0.00045   0.00517  -0.00218
 113        9D-1       -0.00022  -0.00098   0.00026   0.00298   0.00383
 114        9D+2       -0.00053  -0.00055  -0.00018   0.00049   0.00097
 115        9D-2       -0.00091  -0.00095  -0.00031   0.00085  -0.00058
 116 5   Cl 1S         -0.00031   0.01019   0.00048  -0.01677   0.00000
 117        2S          0.00120  -0.03892  -0.00158   0.05627   0.00000
 118        3S         -0.00247   0.08036   0.01105  -0.15648   0.00000
 119        4S         -0.00038   0.01241   0.00449  -0.03985   0.00000
 120        5S         -0.00220   0.06918   0.01204  -0.04630   0.00000
 121        6S         -0.00075   0.02066  -0.01259   0.01543   0.00000
 122        7PX         0.19372   0.00540  -0.00016  -0.00025  -0.01049
 123        7PY         0.11150   0.00315  -0.00016  -0.00020   0.01825
 124        7PZ        -0.00101   0.02667  -0.21016  -0.16321   0.00000
 125        8PX        -0.44315  -0.01232   0.00034   0.00052   0.01636
 126        8PY        -0.25507  -0.00719   0.00035   0.00042  -0.02846
 127        8PZ         0.00237  -0.06229   0.46472   0.36016   0.00001
 128        9PX        -0.21407  -0.00597   0.00015   0.00032   0.01744
 129        9PY        -0.12321  -0.00349   0.00016   0.00026  -0.03032
 130        9PZ         0.00118  -0.03105   0.21835   0.20626   0.00001
 131       10PX        -0.31863  -0.00891   0.00013   0.00007  -0.00838
 132       10PY        -0.18340  -0.00521   0.00018   0.00005   0.01458
 133       10PZ         0.00258  -0.07241   0.31799   0.02936   0.00000
 134       11PX        -0.05391  -0.00155  -0.00003   0.00012  -0.00295
 135       11PY        -0.03103  -0.00091   0.00000   0.00007   0.00514
 136       11PZ         0.00082  -0.02406   0.04629   0.00730   0.00000
 137       12D 0        0.00016  -0.00472  -0.01237   0.06740   0.00002
 138       12D+1        0.00019  -0.00001  -0.00005   0.00013   0.02889
 139       12D-1        0.00011  -0.00001  -0.00003   0.00011  -0.05024
 140       12D+2        0.00012   0.00000   0.00000   0.00000   0.00083
 141       12D-2        0.00021   0.00001   0.00000   0.00001  -0.00046
 142       13D 0        0.00026  -0.00753  -0.01940   0.09780   0.00004
 143       13D+1        0.00061  -0.00004  -0.00006   0.00028   0.04312
 144       13D-1        0.00035  -0.00003  -0.00004   0.00022  -0.07499
 145       13D+2        0.00027   0.00001   0.00000   0.00000   0.00131
 146       13D-2        0.00047   0.00001   0.00000   0.00000  -0.00073
 147       14D 0        0.00000   0.00156  -0.01325   0.03012   0.00000
 148       14D+1        0.00292   0.00007   0.00000   0.00004   0.00470
 149       14D-1        0.00168   0.00004  -0.00001   0.00004  -0.00818
 150       14D+2        0.00002   0.00000   0.00000   0.00001   0.00024
 151       14D-2        0.00004   0.00000  -0.00001   0.00001  -0.00014
 152       15F 0       -0.00003   0.00098   0.00458  -0.00358   0.00000
 153       15F+1       -0.00122  -0.00002   0.00002  -0.00001  -0.00247
 154       15F-1       -0.00070  -0.00001   0.00001  -0.00001   0.00430
 155       15F+2       -0.00005   0.00000   0.00000   0.00000  -0.00019
[...]
  79        6PZ        -0.31839   0.00858   0.08858  -0.16272  -0.14647
  80        7PX        -1.83313   4.73139  -8.61073  -1.65189  -6.46046
  81        7PY        -2.34753  -8.75523  -4.91536   1.04001   1.68068
  82        7PZ        -1.98548   2.77034  -1.10482   0.04116  -0.71512
  83        8D 0       -0.03313  -0.00986   0.01874   0.02260   0.01626
  84        8D+1        0.00030   0.00852  -0.03096   0.00846   0.01308
  85        8D-1       -0.01431  -0.03005  -0.02304  -0.00488  -0.00424
  86        8D+2        0.08959   0.05623   0.06184   0.02694  -0.00440
  87        8D-2       -0.08697   0.02310   0.09043  -0.04724   0.03725
  88        9D 0       -0.39437  -0.43778   0.40683  -0.16454   0.22977
  89        9D+1       -0.18131   0.23735   0.14439  -0.03315  -0.22797
  90        9D-1        0.23758   0.08531   0.28875   0.02009   0.07877
  91        9D+2       -0.66213  -0.19541  -1.57740  -0.35118  -0.37055
  92        9D-2        0.13513  -1.50042  -0.25449   0.63111   0.05863
  93 4   H  1S         -0.03438   0.00005   0.00296  -0.00841   0.00004
  94        2S          1.18580  -0.00446   3.20522  -0.63360  -0.00291
  95        3S         15.73700  -0.04536  24.22400  -3.68987  -0.03393
  96        4S          0.81946   0.00081  -2.30970  -2.00585  -0.01457
  97        5PX         0.00359  -0.05113   0.09905  -0.08327  -0.02677
  98        5PY         0.00228   0.08837   0.05727  -0.04806   0.04608
  99        5PZ         0.05971  -0.00011  -0.00831   0.03147   0.00000
 100        6PX        -1.16424   0.72397  -1.79552   0.63177   0.26723
 101        6PY        -0.67467  -1.24655  -1.03778   0.36465  -0.45952
 102        6PZ        -0.31637   0.00078   0.11977  -0.16949  -0.00005
 103        7PX        -3.63355   5.23013  -7.65670   1.85750   1.78081
 104        7PY        -2.11635  -9.03273  -4.42864   1.07257  -3.06588
 105        7PZ        -0.39521   0.00045   3.58554  -0.02251   0.00005
 106        8D 0       -0.03887   0.00008   0.00153   0.02457   0.00002
 107        8D+1       -0.01415   0.02214  -0.01739  -0.00905  -0.00240
 108        8D-1       -0.00823  -0.03821  -0.01009  -0.00519   0.00414
 109        8D+2        0.05949   0.10545  -0.01822   0.02553   0.02544
 110        8D-2        0.10259  -0.06108  -0.03176   0.04419  -0.01476
 111        9D 0       -0.62411   0.00105  -0.29808  -0.16052   0.00040
 112        9D+1        0.15970  -0.20784  -0.22594   0.03986   0.04176
 113        9D-1        0.09263   0.35897  -0.12972   0.02266  -0.07201
 114        9D+2        0.10159  -1.58548   0.69153  -0.36995  -0.50568
 115        9D-2        0.18163   0.91400   1.20009  -0.64049   0.29175
 116 5   Cl 1S          0.01921  -0.00002  -0.00669   0.01199   0.00000
 117        2S          0.26575  -0.00034  -0.09318   0.16742   0.00000
 118        3S          0.74114  -0.00095  -0.25862   0.46903   0.00000
 119        4S         -0.03959   0.00005   0.01551  -0.01696   0.00000
 120        5S         -4.13340   0.00526   1.44052  -3.07539   0.00005
 121        6S         -9.28378   0.01153   3.04371 -13.23774   0.00006
 122        7PX         0.00009  -0.00058   0.00092  -0.00012   0.00146
 123        7PY         0.00005   0.00099   0.00053  -0.00008  -0.00254
 124        7PZ        -0.00419   0.00000   0.00098  -0.02243   0.00000
 125        8PX         0.00371  -0.01193   0.01930  -0.00206   0.02927
 126        8PY         0.00216   0.02063   0.01117  -0.00130  -0.05087
 127        8PZ        -0.05868   0.00006   0.01292  -0.31262   0.00002
 128        9PX        -0.00057   0.00262  -0.00420   0.00044  -0.00490
 129        9PY        -0.00033  -0.00453  -0.00243   0.00028   0.00851
 130        9PZ         0.00123   0.00000   0.00131   0.07843   0.00000
 131       10PX        -0.01446   0.05639  -0.08675   0.01135  -0.20868
 132       10PY        -0.00665  -0.09745  -0.05081   0.00824   0.36264
 133       10PZ         5.59977  -0.00700  -1.88886   5.09607  -0.00016
 134       11PX        -0.32263   0.57515  -0.94771   0.00886   0.12336
 135       11PY        -0.18803  -0.99336  -0.54818   0.00626  -0.21437
 136       11PZ         0.74616  -0.00055  -0.22093   3.35170   0.00008
 137       12D 0        0.06470  -0.00010  -0.02228   0.00210   0.00000
 138       12D+1        0.00843  -0.01506   0.02514  -0.00030   0.00186
 139       12D-1        0.00496   0.02601   0.01453  -0.00017  -0.00323
 140       12D+2       -0.00118  -0.00592  -0.00333   0.00005   0.01036
 141       12D-2       -0.00200   0.00342  -0.00573   0.00009  -0.00597
 142       13D 0       -0.36901   0.00052   0.12728  -0.07276  -0.00001
 143       13D+1       -0.03058   0.05578  -0.09260   0.00145  -0.01281
 144       13D-1       -0.01806  -0.09634  -0.05348   0.00080   0.02224
 145       13D+2        0.00263   0.01306   0.00762  -0.00018  -0.03746
 146       13D-2        0.00448  -0.00753   0.01311  -0.00031   0.02157
 147       14D 0       -1.31942   0.00149   0.44045  -1.24104   0.00016
 148       14D+1        0.08412  -0.16276   0.26950  -0.00994   0.16159
 149       14D-1        0.04837   0.28108   0.15609  -0.00645  -0.28069
 150       14D+2       -0.01098  -0.06037  -0.03392   0.00018   0.17315
 151       14D-2       -0.01875   0.03489  -0.05844   0.00030  -0.09962
 152       15F 0       -0.04099   0.00005   0.01378   0.00124   0.00001
 153       15F+1        0.00138  -0.00300   0.00463  -0.00044   0.00916
 154       15F-1        0.00078   0.00518   0.00268  -0.00025  -0.01590
 155       15F+2       -0.00159  -0.00916  -0.00520   0.00000   0.00875
 156       15F-2       -0.00273   0.00531  -0.00899   0.00001  -0.00503
 157       15F+3        0.00000   0.00070   0.00000   0.00001   0.00038
 158       15F-3       -0.00921   0.00001   0.00256   0.02329   0.00000
 159       16F 0        0.22166  -0.00026  -0.07418   0.08900  -0.00004
 160       16F+1       -0.00521   0.00981  -0.01614   0.00190  -0.03128
 161       16F-1       -0.00286  -0.01689  -0.00937   0.00116   0.05432
 162       16F+2        0.00769   0.04241   0.02335  -0.00005  -0.03607
 163       16F-2        0.01318  -0.02457   0.04032  -0.00012   0.02074
 164       16F+3        0.00000  -0.00156  -0.00002  -0.00002  -0.00082
 165       16F-3        0.01915  -0.00001  -0.00524  -0.04362  -0.00002
 166 6   F  1S          0.03868  -0.00005  -0.01385  -0.02178   0.00000
 167        2S          0.13654  -0.00018  -0.04926  -0.08233   0.00000
 168        3S         -0.06889   0.00009   0.02434   0.03571   0.00000
 169        4S         -0.36663   0.00048   0.13828  -0.03478   0.00001
 170        5S         -0.04688   0.00002   0.00484  -5.96042   0.00007
 171        6PX        -0.00212   0.00354  -0.00593   0.00004  -0.00087
 172        6PY        -0.00124  -0.00611  -0.00343   0.00002   0.00151
 173        6PZ         0.00502   0.00000  -0.00168   0.00215   0.00000
 174        7PX         0.01106  -0.01836   0.03081   0.00006   0.00318
 175        7PY         0.00643   0.03171   0.01783   0.00003  -0.00553
 176        7PZ        -0.05987   0.00006   0.02063   0.00296   0.00000
 177        8PX        -0.07732   0.12979  -0.21690  -0.00175  -0.00122
 178        8PY        -0.04489  -0.22414  -0.12550  -0.00111   0.00212
 179        8PZ         0.58969  -0.00068  -0.20286  -0.25247   0.00001
 180        9PX        -0.23997   0.43312  -0.70531  -0.00321   0.11636
 181        9PY        -0.14031  -0.74809  -0.40785  -0.00274  -0.20222
 182        9PZ        -0.81360   0.00125   0.25989  -2.49785   0.00010
 183       10D 0        0.01084  -0.00001  -0.00392  -0.00779   0.00000
 184       10D+1       -0.00439   0.00774  -0.01258   0.00000  -0.00107
 185       10D-1       -0.00256  -0.01336  -0.00728   0.00000   0.00186
 186       10D+2        0.00088   0.00443   0.00222  -0.00002   0.00258
 187       10D-2        0.00150  -0.00256   0.00383  -0.00004  -0.00149
 188       11D 0       -0.04003   0.00003   0.01444   0.01504   0.00000
 189       11D+1        0.01414  -0.02482   0.04037   0.00009   0.00183
 190       11D-1        0.00822   0.04286   0.02335   0.00006  -0.00318
 191       11D+2       -0.00291  -0.01467  -0.00744   0.00008  -0.00910
 192       11D-2       -0.00496   0.00848  -0.01283   0.00013   0.00524
 193       12D 0        0.39356  -0.00043  -0.13837  -0.00948   0.00002
 194       12D+1       -0.04325   0.07033  -0.11757  -0.00196   0.01552
 195       12D-1       -0.02497  -0.12141  -0.06805  -0.00114  -0.02697
 196       12D+2        0.01024   0.05409   0.02793  -0.00047   0.01767
 197       12D-2        0.01748  -0.03128   0.04815  -0.00082  -0.01016
 198       13F 0       -0.02618   0.00005   0.00879  -0.00773  -0.00001
 199       13F+1       -0.00509   0.00993  -0.01552  -0.00002  -0.00388
 200       13F-1       -0.00300  -0.01716  -0.00898  -0.00002   0.00675
 201       13F+2       -0.00142  -0.00810  -0.00426   0.00006   0.00228
 202       13F-2       -0.00242   0.00470  -0.00738   0.00010  -0.00132
 203       13F+3        0.00001  -0.00069   0.00000   0.00000  -0.00013
 204       13F-3        0.01227  -0.00002  -0.00379  -0.00124   0.00000
 205       14F 0        0.06522  -0.00011  -0.02217   0.01214   0.00001
 206       14F+1        0.01067  -0.02131   0.03311  -0.00023   0.00861
 207       14F-1        0.00630   0.03684   0.01915  -0.00012  -0.01497
 208       14F+2        0.00397   0.02252   0.01184  -0.00016  -0.00545
 209       14F-2        0.00679  -0.01307   0.02049  -0.00028   0.00315
 210       14F+3       -0.00001   0.00113  -0.00001   0.00000   0.00020
 211       14F-3       -0.01660   0.00003   0.00497   0.00244   0.00000
                         211
     Eigenvalues --     0.00000
   1 1   C  1S          0.00095
   2        2S          0.00495
   3        3S          0.00033
   4        4S          0.00886
   5        5S          0.05525
   6        6PX         0.00661
   7        6PY         0.00380
   8        6PZ         0.00015
   9        7PX        -1.33740
  10        7PY        -0.76965
  11        7PZ        -0.00716
  12        8PX       -15.09075
  13        8PY        -8.68408
  14        8PZ        -0.06880
  15        9PX        -6.85165
  16        9PY        -3.94277
  17        9PZ        -0.02490
  18       10D 0        0.00043
  19       10D+1        0.00142
  20       10D-1        0.00081
  21       10D+2       -0.01124
  22       10D-2       -0.01951
  23       11D 0        0.00041
  24       11D+1        0.17361
  25       11D-1        0.09977
  26       11D+2       -0.20821
  27       11D-2       -0.36132
  28       12D 0        0.05868
  29       12D+1        1.08590
  30       12D-1        0.62511
  31       12D+2        0.28588
  32       12D-2        0.49709
  33       13F 0        0.00000
  34       13F+1       -0.03289
  35       13F-1       -0.01893
  36       13F+2       -0.00428
  37       13F-2       -0.00746
  38       13F+3        0.00000
  39       13F-3       -0.00102
  40       14F 0        0.00090
  41       14F+1        0.35288
  42       14F-1        0.20311
  43       14F+2        0.03657
  44       14F-2        0.06387
  45       14F+3       -0.00003
  46       14F-3        0.00695
  47 2   H  1S          0.01354
  48        2S         -1.12184
  49        3S        -12.93630
  50        4S         -5.58922
  51        5PX        -0.04555
  52        5PY         0.05845
  53        5PZ         0.00523
  54        6PX         0.45163
  55        6PY        -0.66156
  56        6PZ        -0.08418
  57        7PX         3.04781
  58        7PY        -3.72163
  59        7PZ        -0.41253
  60        8D 0        0.00986
  61        8D+1       -0.00477
  62        8D-1        0.00794
  63        8D+2        0.02014
  64        8D-2       -0.02564
  65        9D 0        0.12726
  66        9D+1        0.07934
  67        9D-1       -0.13683
  68        9D+2        0.14029
  69        9D-2        0.49943
  70 3   H  1S          0.01360
  71        2S         -1.12676
  72        3S        -12.99453
  73        4S         -5.61444
  74        5PX         0.02809
  75        5PY        -0.06875
  76        5PZ         0.00530
  77        6PX        -0.34978
  78        6PY         0.72283
  79        6PZ        -0.08502
  80        7PX        -1.71459
  81        7PY         4.50493
  82        7PZ        -0.41713
  83        8D 0        0.00992
  84        8D+1        0.00450
  85        8D-1       -0.00812
  86        8D+2       -0.03228
  87        8D-2        0.00474
  88        9D 0        0.12768
  89        9D+1       -0.07954
  90        9D-1        0.13774
  91        9D+2        0.36157
  92        9D-2        0.37109
  93 4   H  1S         -0.02754
  94        2S          2.23843
  95        3S         25.98361
  96        4S         11.19735
  97        5PX         0.10017
  98        5PY         0.05789
  99        5PZ        -0.00931
 100        6PX        -1.14421
 101        6PY        -0.66116
 102        6PZ         0.15243
 103        7PX        -6.43747
 104        7PY        -3.72058
 105        7PZ         0.75835
 106        8D 0       -0.01956
 107        8D+1        0.01316
 108        8D-1        0.00761
 109        8D+2        0.02132
 110        8D-2        0.03683
 111        9D 0       -0.26675
 112        9D+1       -0.22703
 113        9D-1       -0.13123
 114        9D+2        0.13109
 115        9D-2        0.22829
 116 5   Cl 1S          0.00008
 117        2S          0.00119
 118        3S          0.00312
 119        4S         -0.00043
 120        5S         -0.02946
 121        6S         -0.04763
 122        7PX         0.00246
 123        7PY         0.00141
 124        7PZ        -0.00009
 125        8PX         0.04992
 126        8PY         0.02873
 127        8PZ        -0.00083
 128        9PX        -0.00819
 129        9PY        -0.00471
 130        9PZ         0.00043
 131       10PX        -0.36035
 132       10PY        -0.20736
 133       10PZ         0.02299
 134       11PX         0.21196
 135       11PY         0.12197
 136       11PZ         0.00535
 137       12D 0       -0.00009
 138       12D+1        0.00310
 139       12D-1        0.00178
 140       12D+2       -0.00606
 141       12D-2       -0.01052
 142       13D 0        0.00017
 143       13D+1       -0.02201
 144       13D-1       -0.01265
 145       13D+2        0.02195
 146       13D-2        0.03809
 147       14D 0       -0.00018
 148       14D+1        0.27829
 149       14D-1        0.16007
 150       14D+2       -0.10078
 151       14D-2       -0.17478
 152       15F 0        0.00040
 153       15F+1        0.01606
 154       15F-1        0.00924
 155       15F+2       -0.00512
 156       15F-2       -0.00887
 157       15F+3        0.00000
 158       15F-3       -0.00030
 159       16F 0       -0.00141
 160       16F+1       -0.05421
 161       16F-1       -0.03117
 162       16F+2        0.02098
 163       16F-2        0.03637
 164       16F+3       -0.00002
 165       16F-3        0.00063
 166 6   F  1S          0.00019
 167        2S          0.00087
 168        3S         -0.00010
 169        4S         -0.00450
 170        5S         -0.04440
 171        6PX        -0.00150
 172        6PY        -0.00086
 173        6PZ        -0.00004
 174        7PX         0.00535
 175        7PY         0.00308
 176        7PZ         0.00033
 177        8PX        -0.00077
 178        8PY        -0.00044
 179        8PZ        -0.00617
 180        9PX         0.20311
 181        9PY         0.11687
 182        9PZ        -0.01816
 183       10D 0       -0.00003
 184       10D+1       -0.00191
 185       10D-1       -0.00110
 186       10D+2       -0.00142
 187       10D-2       -0.00246
 188       11D 0        0.00006
 189       11D+1        0.00330
 190       11D-1        0.00190
 191       11D+2        0.00502
 192       11D-2        0.00872
 193       12D 0       -0.00123
 194       12D+1        0.02717
 195       12D-1        0.01563
 196       12D+2       -0.00959
 197       12D-2       -0.01663
 198       13F 0       -0.00002
 199       13F+1       -0.00691
 200       13F-1       -0.00398
 201       13F+2       -0.00131
 202       13F-2       -0.00229
 203       13F+3        0.00000
 204       13F-3        0.00017
 205       14F 0        0.00004
 206       14F+1        0.01522
 207       14F-1        0.00876
 208       14F+2        0.00314
 209       14F-2        0.00547
 210       14F+3        0.00000
 211       14F-3       -0.00022
          Condensed to atoms (all electrons):
              1          2          3          4          5          6
     1  C    7.021218  -0.009944  -0.009949  -0.013957  -0.052627  -0.100575
     2  H   -0.009944   0.547634   0.019512   0.020367  -0.018732   0.004254
     3  H   -0.009949   0.019512   0.547637   0.020367  -0.018731   0.004259
     4  H   -0.013957   0.020367   0.020367   0.549020  -0.018418   0.005865
     5  Cl  -0.052627  -0.018732  -0.018731  -0.018418  17.711220   0.026462
     6  F   -0.100575   0.004254   0.004259   0.005865   0.026462   9.906963
 Mulliken atomic charges:
              1
     1  C   -0.834167
     2  H    0.436909
     3  H    0.436904
     4  H    0.436756
     5  Cl  -0.629174
     6  F   -0.847229
 Sum of Mulliken atomic charges =  -1.00000
 Mulliken charges with hydrogens summed into heavy atoms:
              1
     1  C    0.476403
     5  Cl  -0.629174
     6  F   -0.847229
 Sum of Mulliken charges with hydrogens summed into heavy atoms =  -1.00000
 Electronic spatial extent (au):  <R**2>=            490.2740
 Charge=             -1.0000 electrons
 Dipole moment (field-independent basis, Debye):
    X=             -0.0003    Y=              0.0009    Z=              4.0587  Tot=              4.0587
 Quadrupole moment (field-independent basis, Debye-Ang):
   XX=            -28.1792   YY=            -28.1800   ZZ=            -62.8304
   XY=              0.0007   XZ=              0.0068   YZ=             -0.0077
 Traceless Quadrupole moment (field-independent basis, Debye-Ang):
   XX=             11.5507   YY=             11.5499   ZZ=            -23.1006
   XY=              0.0007   XZ=              0.0068   YZ=             -0.0077
 Octapole moment (field-independent basis, Debye-Ang**2):
  XXX=             -0.0207  YYY=             -0.9734  ZZZ=             49.5608  XYY=             -0.0074
  XXY=              0.9422  XXZ=             -4.2430  XZZ=             -0.0143  YZZ=              0.0066
  YYZ=             -4.2495  XYZ=              0.0062
 Hexadecapole moment (field-independent basis, Debye-Ang**3):
 XXXX=            -41.2603 YYYY=            -41.2663 ZZZZ=           -761.5366 XXXY=              0.0029
 XXXZ=             -0.0537 YYYX=              0.0026 YYYZ=              0.5076 ZZZX=             -0.0498
 ZZZY=             -0.1797 XXYY=            -13.7546 XXZZ=           -103.3955 YYZZ=           -103.3855
 XXYZ=             -0.6729 YYXZ=             -0.0176 ZZXY=             -0.0093
 N-N= 8.499229449464D+01 E-N=-1.604198512257D+03  KE= 5.991975582232D+02
 1\1\GINC-TRAPISTA\SP\RQCISD-FC\Aug-CC-pVTZ\C1H3Cl1F1(1-)\BRUNS\10-Aug-
 2021\0\\# QCISD aug-cc-pvtz nosymm density=current output=wfn\\title l
 ine\\-1,1\C,0,0.000175,0.000029,-0.497709\H,0,0.000019,-1.05257,-0.620
 726\H,0,-0.911312,0.526365,-0.621245\H,0,0.91175,0.526132,-0.61157\Cl,
 0,0.000555,0.000962,1.644718\F,0,-0.000186,-0.000921,-2.59346\\Version
 =EM64L-G09RevB.01\HF=-598.6171154\MP2=-599.2912386\MP3=-599.3099319\MP
 4D=-599.32482\MP4DQ=-599.310383\MP4SDQ=-599.319751\QCISD=-599.3191341\
 RMSD=9.464e-09\Dipole=0.0003902,0.0007914,1.5848996\Quadrupole=8.58763
 78,8.5870642,-17.174702,0.0004918,0.005075,-0.0056908\PG=C01 [X(C1H3Cl
 1F1)]\\@

 Writing a WFN file to GAUSSIAN+ZH_4.wfn.


 IT IS BY LOGIC THAT WE PROVE, BUT BY INTUITION THAT WE DISCOVER.
     -- J.H.POINCARE (1854-1912)
 Job cpu time:  0 days  4 hours 26 minutes  8.5 seconds.
 File lengths (MBytes):  RWF=  29002 Int=      0 D2E=      0 Chk=      4 Scr=      1
 Normal termination of Gaussian 09 at Tue Aug 10 23:32:42 2021.
