 Entering Gaussian System, Link 0=g09
 Input=GAUSSIAN+ZCl_5.com
 Output=GAUSSIAN+ZCl_5.log
 Initial command:
 /home/bruns/programas/chemistry/gaussian/g09/l1.exe /home/bruns/programas/chemistry/gaussian/work/Gau-23466.inp -scrdir=/home/bruns/programas/chemistry/gaussian/work/
 Entering Link 1 = /home/bruns/programas/chemistry/gaussian/g09/l1.exe PID=     23468.
  
 Copyright (c) 1988,1990,1992,1993,1995,1998,2003,2009,2010,
            Gaussian, Inc.  All Rights Reserved.
  
 This is part of the Gaussian(R) 09 program.  It is based on
 the Gaussian(R) 03 system (copyright 2003, Gaussian, Inc.),
 the Gaussian(R) 98 system (copyright 1998, Gaussian, Inc.),
 the Gaussian(R) 94 system (copyright 1995, Gaussian, Inc.),
 the Gaussian 92(TM) system (copyright 1992, Gaussian, Inc.),
 the Gaussian 90(TM) system (copyright 1990, Gaussian, Inc.),
 the Gaussian 88(TM) system (copyright 1988, Gaussian, Inc.),
 the Gaussian 86(TM) system (copyright 1986, Carnegie Mellon
 University), and the Gaussian 82(TM) system (copyright 1983,
 Carnegie Mellon University). Gaussian is a federally registered
 trademark of Gaussian, Inc.
  
 This software contains proprietary and confidential information,
 including trade secrets, belonging to Gaussian, Inc.
  
 This software is provided under written license and may be
 used, copied, transmitted, or stored only in accord with that
 written license.
  
 The following legend is applicable only to US Government
 contracts under FAR:
  
                    RESTRICTED RIGHTS LEGEND
  
 Use, reproduction and disclosure by the US Government is
 subject to restrictions as set forth in subparagraphs (a)
 and (c) of the Commercial Computer Software - Restricted
 Rights clause in FAR 52.227-19.
  
 Gaussian, Inc.
 340 Quinnipiac St., Bldg. 40, Wallingford CT 06492
  
  
 ---------------------------------------------------------------
 Warning -- This program may not be used in any manner that
 competes with the business of Gaussian, Inc. or will provide
 assistance to any competitor of Gaussian, Inc.  The licensee
 of this program is prohibited from giving any competitor of
 Gaussian, Inc. access to this program.  By using this program,
 the user acknowledges that Gaussian, Inc. is engaged in the
 business of creating and licensing software in the field of
 computational chemistry and represents and warrants to the
 licensee that it is not a competitor of Gaussian, Inc. and that
 it will not use this program in any manner prohibited above.
 ---------------------------------------------------------------
  

 Cite this work as:
 Gaussian 09, Revision B.01,
 M. J. Frisch, G. W. Trucks, H. B. Schlegel, G. E. Scuseria, 
 M. A. Robb, J. R. Cheeseman, G. Scalmani, V. Barone, B. Mennucci, 
 G. A. Petersson, H. Nakatsuji, M. Caricato, X. Li, H. P. Hratchian, 
 A. F. Izmaylov, J. Bloino, G. Zheng, J. L. Sonnenberg, M. Hada, 
 M. Ehara, K. Toyota, R. Fukuda, J. Hasegawa, M. Ishida, T. Nakajima, 
 Y. Honda, O. Kitao, H. Nakai, T. Vreven, J. A. Montgomery, Jr., 
 J. E. Peralta, F. Ogliaro, M. Bearpark, J. J. Heyd, E. Brothers, 
 K. N. Kudin, V. N. Staroverov, T. Keith, R. Kobayashi, J. Normand, 
 K. Raghavachari, A. Rendell, J. C. Burant, S. S. Iyengar, J. Tomasi, 
 M. Cossi, N. Rega, J. M. Millam, M. Klene, J. E. Knox, J. B. Cross, 
 V. Bakken, C. Adamo, J. Jaramillo, R. Gomperts, R. E. Stratmann, 
 O. Yazyev, A. J. Austin, R. Cammi, C. Pomelli, J. W. Ochterski, 
 R. L. Martin, K. Morokuma, V. G. Zakrzewski, G. A. Voth, 
 P. Salvador, J. J. Dannenberg, S. Dapprich, A. D. Daniels, 
 O. Farkas, J. B. Foresman, J. V. Ortiz, J. Cioslowski, 
 and D. J. Fox, Gaussian, Inc., Wallingford CT, 2010.
 
 ******************************************
 Gaussian 09:  EM64L-G09RevB.01 12-Aug-2010
                11-Aug-2021 
 ******************************************
 %nproc=8
 Will use up to    8 processors via shared memory.
 %mem=8GB
 -----------------------------------------------------
 # QCISD aug-cc-pvtz nosymm density=current output=wfn
 -----------------------------------------------------
 1/30=1,38=1/1;
 2/12=2,15=1,17=6,18=5,40=1/2;
 3/5=16,6=1,7=10,11=9,16=1,25=1,30=1,71=1/1,2,3;
 4//1;
 5/5=2,38=5/2;
 8/6=4,9=120000,10=1/1,4;
 9/5=8,15=1/13;
 11/28=-7,31=1,32=3,42=3/11;
 10/5=6,13=10,31=1/2;
 6/7=2,8=2,9=2,10=2,22=-1,31=1/1;
 99/5=1,6=1100,9=1/99;
 ----------
 title line
 ----------
 Symbolic Z-matrix:
 Charge = -1 Multiplicity = 1
 C                     0.00018   0.00003  -0.49771 
 H                     0.00002  -1.05257  -0.62073 
 H                    -0.91131   0.52637  -0.62125 
 H                     0.91175   0.52613  -0.62157 
 Cl                    0.00056   0.00096   1.65472 
 F                    -0.00019  -0.00092  -2.59346 
 
                          Input orientation:                          
 ---------------------------------------------------------------------
 Center     Atomic      Atomic             Coordinates (Angstroms)
 Number     Number       Type             X           Y           Z
 ---------------------------------------------------------------------
      1          6           0        0.000175    0.000029   -0.497709
      2          1           0        0.000019   -1.052570   -0.620726
      3          1           0       -0.911312    0.526365   -0.621245
      4          1           0        0.911750    0.526132   -0.621570
      5         17           0        0.000555    0.000962    1.654718
      6          9           0       -0.000186   -0.000921   -2.593460
 ---------------------------------------------------------------------
                    Distance matrix (angstroms):
                    1          2          3          4          5
     1  C    0.000000
     2  H    1.059763   0.000000
     3  H    1.059764   1.823063   0.000000
     4  H    1.059762   1.823062   1.823062   0.000000
     5  Cl   2.152427   2.507504   2.507500   2.507502   0.000000
     6  F    2.095751   2.235541   2.235579   2.235568   4.248178
                    6
     6  F    0.000000
 Symmetry turned off by external request.
 This structure is nearly, but not quite of a higher symmetry.
 Consider Symm=Loose if the higher symmetry is desired.
 Stoichiometry    CH3ClF(1-)
 Framework group  C1[X(CH3ClF)]
 Deg. of freedom    12
 Full point group                 C1      NOp   1
 Rotational constants (GHZ):    150.8790650      2.2036433      2.2036433
 Standard basis: Aug-CC-pVTZ (5D, 7F)
 Integral buffers will be    131072 words long.
 Raffenetti 1 integral format.
 Two-electron integral symmetry is turned off.
   211 basis functions,   339 primitive gaussians,   244 cartesian basis functions
    18 alpha electrons       18 beta electrons
       nuclear repulsion energy        84.7832863001 Hartrees.
 NAtoms=    6 NActive=    6 NUniq=    6 SFac= 1.00D+00 NAtFMM=   50 NAOKFM=F Big=F
 One-electron integrals computed using PRISM.
 NBasis=   211 RedAO= T  NBF=   211
 NBsUse=   211 1.00D-06 NBFU=   211
 Harris functional with IExCor=  205 diagonalized for initial guess.
 ExpMin= 2.53D-02 ExpMax= 4.56D+05 ExpMxC= 1.44D+03 IAcc=3 IRadAn=         0 AccDes= 0.00D+00
 HarFok:  IExCor=  205 AccDes= 0.00D+00 IRadAn=         0 IDoV= 1
 ScaDFX=  1.000000  1.000000  1.000000  1.000000
 FoFCou: FMM=F IPFlag=           0 FMFlag=      100000 FMFlg1=           0
         NFxFlg=           0 DoJE=T BraDBF=F KetDBF=T FulRan=T
         Omega=  0.000000  0.000000  1.000000  0.000000  0.000000 ICntrl=     500 IOpCl=  0
         NMat0=    1 NMatS0=    1 NMatT0=    0 NMatD0=    1 NMtDS0=    0 NMtDT0=    0
         I1Cent=           4 NGrid=           0.
 Symmetry not used in FoFCou.
 Requested convergence on RMS density matrix=1.00D-08 within 128 cycles.
 Requested convergence on MAX density matrix=1.00D-06.
 Requested convergence on             energy=1.00D-06.
 No special actions if energy rises.
 Keep R1 ints in memory in canonical form, NReq=454274131.
 SCF Done:  E(RHF) =  -598.617115409     A.U. after   12 cycles
             Convg  =    0.9562D-08             -V/T =  2.0001
 ExpMin= 2.53D-02 ExpMax= 4.56D+05 ExpMxC= 1.44D+03 IAcc=3 IRadAn=         5 AccDes= 0.00D+00
 HarFok:  IExCor=  205 AccDes= 0.00D+00 IRadAn=         5 IDoV=-2
 ScaDFX=  1.000000  1.000000  1.000000  1.000000
 DSYEVD returned Info=         101 IAlg= 4 N=    50 NDim=    50 NE2=    21472034 trying DSYEV.
 Range of M.O.s used for correlation:     8   211
 NBasis=   211 NAE=    18 NBE=    18 NFC=     7 NFV=     0
 NROrb=    204 NOA=    11 NOB=    11 NVA=   193 NVB=   193

 **** Warning!!: The largest alpha MO coefficient is  0.35422712D+02

 Semi-Direct transformation.
 ModeAB=           2 MOrb=            11 LenV=    1072528236
 LASXX=     44979418 LTotXX=    44979418 LenRXX=    44979418
 LTotAB=    45631872 MaxLAS=    67073160 LenRXY=    67073160
 NonZer=    89958836 LenScr=   135708672 LnRSAI=           0
 LnScr1=           0 LExtra=           0 Total=    247761250
 MaxDsk=          -1 SrtSym=           F ITran=            4
 JobTyp=0 Pass  1:  I=   1 to  11.
 (rs|ai) integrals will be sorted in core.
 Spin components of T(2) and E(2):
     alpha-alpha T2 =       0.2567062264D-01 E2=     -0.8202924413D-01
     alpha-beta  T2 =       0.1453047265D+00 E2=     -0.5098586612D+00
     beta-beta   T2 =       0.2567062264D-01 E2=     -0.8202924413D-01
 ANorm=    0.1093913146D+01
 E2 =    -0.6739171494D+00 EUMP2 =    -0.59929103255810D+03
 R2 and R3 integrals will be kept in memory, NReq=   900794930.
 Iterations=  50 Convergence= 0.100D-07
 Iteration Nr.   1
 **********************
 DD1Dir will call FoFMem   1 times, MxPair=       132
 NAB=    66 NAA=     0 NBB=     0.
 MP4(R+Q)=  0.14441397D-01
 E3=       -0.18718457D-01        EUMP3=      -0.59930975102D+03
 E4(DQ)=   -0.46195792D-03        UMP4(DQ)=   -0.59931021297D+03
 E4(SDQ)=  -0.98780978D-02        UMP4(SDQ)=  -0.59931962911D+03
 DE(Corr)= -0.67819421     E(Corr)=     -599.29530962    
 NORM(A)=   0.10997483D+01
 Iteration Nr.   2
 **********************
 DD1Dir will call FoFMem   1 times, MxPair=       132
 NAB=    66 NAA=     0 NBB=     0.
 DE(Corr)= -0.70046342     E(CORR)=     -599.31757883     Delta=-2.23D-02
 NORM(A)=   0.11071269D+01
 Iteration Nr.   3
 **********************
 DD1Dir will call FoFMem   1 times, MxPair=       132
 NAB=    66 NAA=     0 NBB=     0.
 DE(Corr)= -0.69803946     E(CORR)=     -599.31515487     Delta= 2.42D-03
 NORM(A)=   0.11111647D+01
 Iteration Nr.   4
 **********************
 DD1Dir will call FoFMem   1 times, MxPair=       132
 NAB=    66 NAA=     0 NBB=     0.
 DE(Corr)= -0.70112504     E(CORR)=     -599.31824045     Delta=-3.09D-03
 NORM(A)=   0.11133127D+01
 Iteration Nr.   5
 **********************
 DD1Dir will call FoFMem   1 times, MxPair=       132
 NAB=    66 NAA=     0 NBB=     0.
 DE(Corr)= -0.70172939     E(CORR)=     -599.31884480     Delta=-6.04D-04
 NORM(A)=   0.11143672D+01
 Iteration Nr.   6
 **********************
 DD1Dir will call FoFMem   1 times, MxPair=       132
 NAB=    66 NAA=     0 NBB=     0.
 DE(Corr)= -0.70187921     E(CORR)=     -599.31899462     Delta=-1.50D-04
 NORM(A)=   0.11147000D+01
 Iteration Nr.   7
 **********************
 DD1Dir will call FoFMem   1 times, MxPair=       132
 NAB=    66 NAA=     0 NBB=     0.
 DE(Corr)= -0.70190958     E(CORR)=     -599.31902499     Delta=-3.04D-05
 NORM(A)=   0.11147312D+01
 Iteration Nr.   8
 **********************
 DD1Dir will call FoFMem   1 times, MxPair=       132
 NAB=    66 NAA=     0 NBB=     0.
 DE(Corr)= -0.70192301     E(CORR)=     -599.31903842     Delta=-1.34D-05
 NORM(A)=   0.11147492D+01
 Iteration Nr.   9
 **********************
 DD1Dir will call FoFMem   1 times, MxPair=       132
 NAB=    66 NAA=     0 NBB=     0.
 DE(Corr)= -0.70190005     E(CORR)=     -599.31901546     Delta= 2.30D-05
 NORM(A)=   0.11147521D+01
 Iteration Nr.  10
 **********************
 DD1Dir will call FoFMem   1 times, MxPair=       132
 NAB=    66 NAA=     0 NBB=     0.
 DE(Corr)= -0.70191938     E(CORR)=     -599.31903479     Delta=-1.93D-05
 NORM(A)=   0.11147524D+01
 Iteration Nr.  11
 **********************
 DD1Dir will call FoFMem   1 times, MxPair=       132
 NAB=    66 NAA=     0 NBB=     0.
 DE(Corr)= -0.70191016     E(CORR)=     -599.31902557     Delta= 9.22D-06
 NORM(A)=   0.11147555D+01
 Iteration Nr.  12
 **********************
 DD1Dir will call FoFMem   1 times, MxPair=       132
 NAB=    66 NAA=     0 NBB=     0.
 DE(Corr)= -0.70191409     E(CORR)=     -599.31902949     Delta=-3.93D-06
 NORM(A)=   0.11147562D+01
 Iteration Nr.  13
 **********************
 DD1Dir will call FoFMem   1 times, MxPair=       132
 NAB=    66 NAA=     0 NBB=     0.
 DE(Corr)= -0.70191468     E(CORR)=     -599.31903009     Delta=-5.94D-07
 NORM(A)=   0.11147570D+01
 Iteration Nr.  14
 **********************
 DD1Dir will call FoFMem   1 times, MxPair=       132
 NAB=    66 NAA=     0 NBB=     0.
 DE(Corr)= -0.70191493     E(CORR)=     -599.31903034     Delta=-2.47D-07
 NORM(A)=   0.11147572D+01
 Iteration Nr.  15
 **********************
 DD1Dir will call FoFMem   1 times, MxPair=       132
 NAB=    66 NAA=     0 NBB=     0.
 DE(Corr)= -0.70191486     E(CORR)=     -599.31903027     Delta= 6.97D-08
 NORM(A)=   0.11147572D+01
 Iteration Nr.  16
 **********************
 DD1Dir will call FoFMem   1 times, MxPair=       132
 NAB=    66 NAA=     0 NBB=     0.
 DE(Corr)= -0.70191507     E(CORR)=     -599.31903048     Delta=-2.12D-07
 NORM(A)=   0.11147571D+01
 Iteration Nr.  17
 **********************
 DD1Dir will call FoFMem   1 times, MxPair=       132
 NAB=    66 NAA=     0 NBB=     0.
 DE(Corr)= -0.70191495     E(CORR)=     -599.31903036     Delta= 1.19D-07
 NORM(A)=   0.11147570D+01
 Iteration Nr.  18
 **********************
 DD1Dir will call FoFMem   1 times, MxPair=       132
 NAB=    66 NAA=     0 NBB=     0.
 DE(Corr)= -0.70191499     E(CORR)=     -599.31903040     Delta=-4.06D-08
 NORM(A)=   0.11147569D+01
 Iteration Nr.  19
 **********************
 DD1Dir will call FoFMem   1 times, MxPair=       132
 NAB=    66 NAA=     0 NBB=     0.
 DE(Corr)= -0.70191494     E(CORR)=     -599.31903035     Delta= 4.91D-08
 NORM(A)=   0.11147568D+01
 Iteration Nr.  20
 **********************
 DD1Dir will call FoFMem   1 times, MxPair=       132
 NAB=    66 NAA=     0 NBB=     0.
 DE(Corr)= -0.70191495     E(CORR)=     -599.31903035     Delta=-3.47D-09
 NORM(A)=   0.11147568D+01
 Iteration Nr.  21
 **********************
 DD1Dir will call FoFMem   1 times, MxPair=       132
 NAB=    66 NAA=     0 NBB=     0.
 DE(Corr)= -0.70191493     E(CORR)=     -599.31903034     Delta= 1.94D-08
 NORM(A)=   0.11147567D+01
 Iteration Nr.  22
 **********************
 DD1Dir will call FoFMem   1 times, MxPair=       132
 NAB=    66 NAA=     0 NBB=     0.
 DE(Corr)= -0.70191492     E(CORR)=     -599.31903033     Delta= 2.97D-09
 NORM(A)=   0.11147567D+01
 Iteration Nr.  23
 **********************
 DD1Dir will call FoFMem   1 times, MxPair=       132
 NAB=    66 NAA=     0 NBB=     0.
 DE(Corr)= -0.70191492     E(CORR)=     -599.31903033     Delta= 6.00D-09
 NORM(A)=   0.11147567D+01
 Iteration Nr.  24
 **********************
 DD1Dir will call FoFMem   1 times, MxPair=       132
 NAB=    66 NAA=     0 NBB=     0.
 DE(Corr)= -0.70191492     E(CORR)=     -599.31903033     Delta=-1.50D-09
 NORM(A)=   0.11147567D+01
 Iteration Nr.  25
 **********************
 DD1Dir will call FoFMem   1 times, MxPair=       132
 NAB=    66 NAA=     0 NBB=     0.
 DE(Corr)= -0.70191491     E(CORR)=     -599.31903032     Delta= 4.56D-09
 NORM(A)=   0.11147567D+01
 Iteration Nr.  26
 **********************
 DD1Dir will call FoFMem   1 times, MxPair=       132
 NAB=    66 NAA=     0 NBB=     0.
 DE(Corr)= -0.70191492     E(CORR)=     -599.31903033     Delta=-4.23D-09
 NORM(A)=   0.11147567D+01
 Iteration Nr.  27
 **********************
 DD1Dir will call FoFMem   1 times, MxPair=       132
 NAB=    66 NAA=     0 NBB=     0.
 DE(Corr)= -0.70191492     E(CORR)=     -599.31903032     Delta= 3.16D-09
 NORM(A)=   0.11147567D+01
 Largest amplitude= 6.75D-02

 Z-AMPLITUDE ITERATIONS

 Iteration Nr.   1
 **********************
 DD1Dir will call FoFMem   1 times, MxPair=       132
 NAB=    66 NAA=     0 NBB=     0.
 DE(Z)  -0.68247835D+00          E(Z)=    -0.59929959376D+03
 NORM(A)=   0.11147717D+01
 Iteration Nr.   2
 **********************
 DD1Dir will call FoFMem   1 times, MxPair=       132
 NAB=    66 NAA=     0 NBB=     0.
 DE(Z)  -0.68247999D+00          E(Z)=    -0.59929959540D+03
 NORM(A)=   0.11148205D+01
 Iteration Nr.   3
 **********************
 DD1Dir will call FoFMem   1 times, MxPair=       132
 NAB=    66 NAA=     0 NBB=     0.
 DE(Z)  -0.68248439D+00          E(Z)=    -0.59929959980D+03
 NORM(A)=   0.11147868D+01
 Iteration Nr.   4
 **********************
 DD1Dir will call FoFMem   1 times, MxPair=       132
 NAB=    66 NAA=     0 NBB=     0.
 DE(Z)  -0.68248133D+00          E(Z)=    -0.59929959674D+03
 NORM(A)=   0.11146890D+01
 Iteration Nr.   5
 **********************
 DD1Dir will call FoFMem   1 times, MxPair=       132
 NAB=    66 NAA=     0 NBB=     0.
 DE(Z)  -0.68247179D+00          E(Z)=    -0.59929958720D+03
 NORM(A)=   0.11080502D+01
 Iteration Nr.   6
 **********************
 DD1Dir will call FoFMem   1 times, MxPair=       132
 NAB=    66 NAA=     0 NBB=     0.
 DE(Z)  -0.68180476D+00          E(Z)=    -0.59929892017D+03
 NORM(A)=   0.11080549D+01
 Iteration Nr.   7
 **********************
 DD1Dir will call FoFMem   1 times, MxPair=       132
 NAB=    66 NAA=     0 NBB=     0.
 DE(Z)  -0.68181334D+00          E(Z)=    -0.59929892874D+03
 NORM(A)=   0.11080470D+01
 Iteration Nr.   8
 **********************
 DD1Dir will call FoFMem   1 times, MxPair=       132
 NAB=    66 NAA=     0 NBB=     0.
 DE(Z)  -0.68180924D+00          E(Z)=    -0.59929892465D+03
 NORM(A)=   0.11080439D+01
 Iteration Nr.   9
 **********************
 DD1Dir will call FoFMem   1 times, MxPair=       132
 NAB=    66 NAA=     0 NBB=     0.
 DE(Z)  -0.68180905D+00          E(Z)=    -0.59929892446D+03
 NORM(A)=   0.11080427D+01
 Iteration Nr.  10
 **********************
 DD1Dir will call FoFMem   1 times, MxPair=       132
 NAB=    66 NAA=     0 NBB=     0.
 DE(Z)  -0.68180913D+00          E(Z)=    -0.59929892454D+03
 NORM(A)=   0.11080426D+01
 Iteration Nr.  11
 **********************
 DD1Dir will call FoFMem   1 times, MxPair=       132
 NAB=    66 NAA=     0 NBB=     0.
 DE(Z)  -0.68180916D+00          E(Z)=    -0.59929892456D+03
 NORM(A)=   0.11080425D+01
 Iteration Nr.  12
 **********************
 DD1Dir will call FoFMem   1 times, MxPair=       132
 NAB=    66 NAA=     0 NBB=     0.
 DE(Z)  -0.68180915D+00          E(Z)=    -0.59929892456D+03
 NORM(A)=   0.11080426D+01
 Iteration Nr.  13
 **********************
 DD1Dir will call FoFMem   1 times, MxPair=       132
 NAB=    66 NAA=     0 NBB=     0.
 DE(Z)  -0.68180923D+00          E(Z)=    -0.59929892464D+03
 NORM(A)=   0.11080426D+01
 Iteration Nr.  14
 **********************
 DD1Dir will call FoFMem   1 times, MxPair=       132
 NAB=    66 NAA=     0 NBB=     0.
 DE(Z)  -0.68180921D+00          E(Z)=    -0.59929892461D+03
 NORM(A)=   0.11080426D+01
 Iteration Nr.  15
 **********************
 DD1Dir will call FoFMem   1 times, MxPair=       132
 NAB=    66 NAA=     0 NBB=     0.
 DE(Z)  -0.68180922D+00          E(Z)=    -0.59929892463D+03
 NORM(A)=   0.11080425D+01
 Iteration Nr.  16
 **********************
 DD1Dir will call FoFMem   1 times, MxPair=       132
 NAB=    66 NAA=     0 NBB=     0.
 DE(Z)  -0.68180922D+00          E(Z)=    -0.59929892463D+03
 NORM(A)=   0.11080425D+01
 Iteration Nr.  17
 **********************
 DD1Dir will call FoFMem   1 times, MxPair=       132
 NAB=    66 NAA=     0 NBB=     0.
 DE(Z)  -0.68180922D+00          E(Z)=    -0.59929892463D+03
 NORM(A)=   0.11080425D+01
 Iteration Nr.  18
 **********************
 DD1Dir will call FoFMem   1 times, MxPair=       132
 NAB=    66 NAA=     0 NBB=     0.
 DE(Z)  -0.68180922D+00          E(Z)=    -0.59929892463D+03
 NORM(A)=   0.11080425D+01
 Iteration Nr.  19
 **********************
 DD1Dir will call FoFMem   1 times, MxPair=       132
 NAB=    66 NAA=     0 NBB=     0.
 DE(Z)  -0.68180922D+00          E(Z)=    -0.59929892463D+03
 NORM(A)=   0.11080425D+01
 Iteration Nr.  20
 **********************
 DD1Dir will call FoFMem   1 times, MxPair=       132
 NAB=    66 NAA=     0 NBB=     0.
 DE(Z)  -0.68180922D+00          E(Z)=    -0.59929892463D+03
 NORM(A)=   0.11080425D+01
 Discarding MO integrals.
          Differentiating once with respect to electric field.
                with respect to dipole field.
          Electric field/nuclear overlap derivatives assumed to be zero.
          Keep R1 ints in memory in canonical form, NReq=448662239.
          There are     1 degrees of freedom in the 1st order CPHF.  IDoFFX=0.
 LinEq1:  Iter=  0 NonCon=     1 RMS=3.13D-03 Max=1.22D-01
 AX will form     1 AO Fock derivatives at one time.
 LinEq1:  Iter=  1 NonCon=     1 RMS=6.96D-04 Max=7.44D-03
 LinEq1:  Iter=  2 NonCon=     1 RMS=2.31D-04 Max=5.74D-03
 LinEq1:  Iter=  3 NonCon=     1 RMS=9.53D-05 Max=1.44D-03
 LinEq1:  Iter=  4 NonCon=     1 RMS=3.85D-05 Max=4.16D-04
 LinEq1:  Iter=  5 NonCon=     1 RMS=1.06D-05 Max=2.27D-04
 LinEq1:  Iter=  6 NonCon=     1 RMS=2.42D-06 Max=4.31D-05
 LinEq1:  Iter=  7 NonCon=     1 RMS=6.04D-07 Max=9.02D-06
 LinEq1:  Iter=  8 NonCon=     1 RMS=1.49D-07 Max=1.82D-06
 LinEq1:  Iter=  9 NonCon=     1 RMS=3.01D-08 Max=7.47D-07
 LinEq1:  Iter= 10 NonCon=     1 RMS=6.53D-09 Max=8.86D-08
 LinEq1:  Iter= 11 NonCon=     1 RMS=1.06D-09 Max=1.16D-08
 LinEq1:  Iter= 12 NonCon=     1 RMS=1.70D-10 Max=2.85D-09
 LinEq1:  Iter= 13 NonCon=     0 RMS=2.42D-11 Max=3.23D-10
 Linear equations converged to 1.000D-10 1.000D-09 after    13 iterations.
 End of Minotr Frequency-dependent properties file   721 does not exist.
 End of Minotr Frequency-dependent properties file   722 does not exist.

 **********************************************************************

            Population analysis using the QCI/CC density.

 **********************************************************************

     Natural Orbital Coefficients:
                           1         2         3         4         5
     Eigenvalues --     2.00003   2.00003   2.00002   2.00001   2.00001
   1 1   C  1S          0.00000   0.00000  -0.04217   0.08177   0.97612
   2        2S          0.00000   0.00000   0.00128   0.00043  -0.01334
   3        3S          0.00000   0.00000  -0.00129   0.00402   0.03984
   4        4S          0.00000   0.00000  -0.01236  -0.02296   0.00310
   5        5S          0.00000   0.00000  -0.00114  -0.00047  -0.00058
   6        6PX         0.00002   0.00005   0.00000   0.00000   0.00000
   7        6PY        -0.00005   0.00002   0.00000   0.00000   0.00000
   8        6PZ         0.00000   0.00000   0.00053   0.00165   0.00085
   9        7PX         0.00034   0.00079   0.00000   0.00000   0.00000
  10        7PY        -0.00079   0.00034   0.00000   0.00000   0.00000
  11        7PZ         0.00000   0.00000   0.00142   0.00306  -0.00092
  12        8PX         0.00176   0.00414   0.00000   0.00000   0.00000
  13        8PY        -0.00414   0.00176   0.00000   0.00000   0.00000
  14        8PZ         0.00000   0.00000  -0.00366  -0.00401  -0.00298
  15        9PX         0.00016   0.00038   0.00000   0.00000   0.00000
  16        9PY        -0.00038   0.00016   0.00000   0.00000   0.00000
  17        9PZ         0.00000   0.00000   0.00022   0.00018  -0.00048
  18       10D 0        0.00000   0.00000   0.00011   0.00033  -0.00058
  19       10D+1       -0.00006  -0.00014   0.00000   0.00000   0.00000
  20       10D-1        0.00014  -0.00006   0.00000   0.00000   0.00000
  21       10D+2       -0.00004   0.00002   0.00000   0.00000   0.00000
  22       10D-2        0.00002   0.00004   0.00000   0.00000   0.00000
  23       11D 0        0.00000   0.00000   0.00022  -0.00008  -0.00025
  24       11D+1        0.00009   0.00022   0.00000   0.00000   0.00000
  25       11D-1       -0.00022   0.00009   0.00000   0.00000   0.00000
  26       11D+2       -0.00093   0.00040   0.00000   0.00000   0.00000
  27       11D-2        0.00040   0.00093   0.00000   0.00000   0.00000
  28       12D 0        0.00000   0.00000  -0.00076   0.00127  -0.00234
  29       12D+1       -0.00051  -0.00120   0.00000   0.00000   0.00000
  30       12D-1        0.00120  -0.00051   0.00000   0.00000   0.00000
  31       12D+2       -0.00148   0.00063   0.00000   0.00000   0.00000
  32       12D-2        0.00063   0.00148   0.00000   0.00000   0.00000
  33       13F 0        0.00000   0.00000   0.00001   0.00004   0.00019
  34       13F+1       -0.00007  -0.00017   0.00000   0.00000   0.00000
  35       13F-1        0.00017  -0.00007   0.00000   0.00000   0.00000
  36       13F+2       -0.00001   0.00001   0.00000   0.00000   0.00000
  37       13F-2        0.00001   0.00001   0.00000   0.00000   0.00000
  38       13F+3        0.00000   0.00000   0.00000   0.00000   0.00000
  39       13F-3        0.00000   0.00000  -0.00006   0.00007   0.00090
  40       14F 0        0.00000   0.00000  -0.00112  -0.00215  -0.00016
  41       14F+1        0.00022   0.00051   0.00000   0.00000   0.00000
  42       14F-1       -0.00051   0.00022   0.00000   0.00000   0.00000
  43       14F+2       -0.00031   0.00013   0.00000   0.00000   0.00000
  44       14F-2        0.00013   0.00031   0.00000   0.00000   0.00000
  45       14F+3        0.00000   0.00000   0.00000   0.00000   0.00000
  46       14F-3        0.00000   0.00000  -0.00085  -0.00132  -0.00192
  47 2   H  1S          0.00014  -0.00006  -0.00002  -0.00036  -0.00135
  48        2S         -0.00112   0.00048   0.00240   0.00322  -0.00064
  49        3S         -0.00793   0.00338   0.00179   0.00521  -0.00431
  50        4S          0.00026  -0.00011   0.00011   0.00009  -0.00013
  51        5PX         0.00000   0.00000   0.00000   0.00000   0.00000
  52        5PY        -0.00003   0.00001   0.00004  -0.00003  -0.00048
  53        5PZ        -0.00001   0.00000   0.00001   0.00001  -0.00009
  54        6PX         0.00007   0.00018   0.00000   0.00000   0.00000
  55        6PY        -0.00062   0.00026   0.00045   0.00069  -0.00080
  56        6PZ        -0.00056   0.00024  -0.00001  -0.00010   0.00025
  57        7PX         0.00036   0.00084   0.00000   0.00000   0.00000
  58        7PY        -0.00192   0.00082   0.00053   0.00133  -0.00101
  59        7PZ        -0.00024   0.00010   0.00047   0.00092  -0.00006
  60        8D 0       -0.00003   0.00001   0.00001   0.00006   0.00014
  61        8D+1       -0.00001  -0.00001   0.00000   0.00000   0.00000
  62        8D-1       -0.00009   0.00004   0.00002   0.00004  -0.00004
  63        8D+2        0.00005  -0.00002  -0.00004  -0.00005   0.00028
  64        8D-2        0.00000   0.00001   0.00000   0.00000   0.00000
  65        9D 0       -0.00036   0.00015   0.00015   0.00025   0.00063
  66        9D+1        0.00010   0.00023   0.00000   0.00000   0.00000
  67        9D-1       -0.00012   0.00005  -0.00014  -0.00025   0.00001
  68        9D+2        0.00012  -0.00005   0.00001   0.00002  -0.00010
  69        9D-2        0.00005   0.00011   0.00000   0.00000   0.00000
  70 3   H  1S         -0.00012  -0.00009  -0.00002  -0.00036  -0.00135
  71        2S          0.00097   0.00073   0.00240   0.00322  -0.00064
  72        3S          0.00689   0.00518   0.00179   0.00521  -0.00431
  73        4S         -0.00022  -0.00017   0.00011   0.00009  -0.00013
  74        5PX         0.00002   0.00002   0.00004  -0.00003  -0.00042
  75        5PY        -0.00001  -0.00001  -0.00002   0.00002   0.00024
  76        5PZ         0.00001   0.00001   0.00001   0.00001  -0.00009
  77        6PX         0.00041   0.00042   0.00039   0.00060  -0.00069
  78        6PY        -0.00037  -0.00007  -0.00023  -0.00034   0.00040
  79        6PZ         0.00049   0.00037  -0.00001  -0.00010   0.00025
  80        7PX         0.00117   0.00145   0.00046   0.00115  -0.00087
  81        7PY        -0.00131   0.00001  -0.00026  -0.00067   0.00051
  82        7PZ         0.00021   0.00016   0.00047   0.00092  -0.00006
  83        8D 0        0.00003   0.00002   0.00001   0.00006   0.00014
  84        8D+1        0.00007   0.00004   0.00002   0.00004  -0.00003
  85        8D-1       -0.00003  -0.00004  -0.00001  -0.00002   0.00002
  86        8D+2        0.00001   0.00002   0.00002   0.00003  -0.00014
  87        8D-2       -0.00004  -0.00002  -0.00003  -0.00005   0.00024
  88        9D 0        0.00031   0.00023   0.00015   0.00025   0.00063
  89        9D+1        0.00001   0.00017  -0.00012  -0.00021   0.00001
  90        9D-1       -0.00018   0.00013   0.00007   0.00012  -0.00001
  91        9D+2       -0.00001   0.00012   0.00000  -0.00001   0.00005
  92        9D-2       -0.00012  -0.00002   0.00001   0.00002  -0.00009
  93 4   H  1S         -0.00002   0.00015  -0.00002  -0.00036  -0.00135
  94        2S          0.00015  -0.00120   0.00240   0.00322  -0.00064
  95        3S          0.00104  -0.00856   0.00179   0.00521  -0.00431
  96        4S         -0.00003   0.00028   0.00011   0.00009  -0.00013
  97        5PX         0.00000   0.00003  -0.00004   0.00003   0.00042
  98        5PY         0.00000   0.00002  -0.00002   0.00002   0.00024
  99        5PZ         0.00000  -0.00001   0.00001   0.00001  -0.00009
 100        6PX         0.00002   0.00059  -0.00039  -0.00060   0.00069
 101        6PY        -0.00020   0.00031  -0.00023  -0.00034   0.00040
 102        6PZ         0.00007  -0.00061  -0.00001  -0.00010   0.00025
 103        7PX         0.00024   0.00185  -0.00046  -0.00115   0.00088
 104        7PY        -0.00091   0.00094  -0.00026  -0.00067   0.00051
 105        7PZ         0.00003  -0.00027   0.00047   0.00092  -0.00006
 106        8D 0        0.00000  -0.00003   0.00001   0.00006   0.00014
 107        8D+1       -0.00002   0.00008  -0.00002  -0.00004   0.00003
 108        8D-1        0.00001   0.00005  -0.00001  -0.00002   0.00002
 109        8D+2       -0.00001  -0.00003   0.00002   0.00003  -0.00014
 110        8D-2        0.00001  -0.00004   0.00003   0.00005  -0.00024
 111        9D 0        0.00005  -0.00038   0.00015   0.00025   0.00063
 112        9D+1        0.00011   0.00012   0.00012   0.00021  -0.00001
 113        9D-1       -0.00022   0.00004   0.00007   0.00012  -0.00001
 114        9D+2       -0.00009  -0.00008   0.00000  -0.00001   0.00005
 115        9D-2        0.00007  -0.00010  -0.00001  -0.00002   0.00009
 116 5   Cl 1S          0.00000   0.00000  -0.25090   0.14752  -0.02274
 117        2S          0.00000   0.00000   0.84692  -0.49862   0.07793
 118        3S          0.00000   0.00000  -0.02308   0.00933  -0.00238
 119        4S          0.00000   0.00000   0.06663  -0.04061   0.00641
 120        5S          0.00000   0.00000  -0.00221   0.00759   0.00337
 121        6S          0.00000   0.00000  -0.00159  -0.00222   0.00295
 122        7PX         0.38328   0.90069   0.00009   0.00015  -0.00001
 123        7PY        -0.90069   0.38328   0.00022   0.00036  -0.00002
 124        7PZ         0.00032  -0.00032   0.49928   0.83674  -0.04909
 125        8PX        -0.00748  -0.01758   0.00000   0.00000   0.00000
 126        8PY         0.01758  -0.00748   0.00000  -0.00001   0.00000
 127        8PZ        -0.00001   0.00001  -0.00873  -0.01400   0.00017
 128        9PX         0.02049   0.04816   0.00000   0.00001   0.00000
 129        9PY        -0.04816   0.02049   0.00001   0.00002   0.00000
 130        9PZ         0.00002  -0.00002   0.02834   0.04956  -0.00280
 131       10PX        -0.00226  -0.00531   0.00000   0.00000   0.00000
 132       10PY         0.00531  -0.00226   0.00000   0.00000   0.00000
 133       10PZ         0.00000   0.00000  -0.00428  -0.00264  -0.00339
 134       11PX        -0.00084  -0.00198   0.00000   0.00000   0.00000
 135       11PY         0.00198  -0.00084   0.00000   0.00000   0.00000
 136       11PZ         0.00000   0.00000  -0.00036  -0.00014  -0.00052
 137       12D 0        0.00000   0.00000   0.00001  -0.00051  -0.00017
 138       12D+1       -0.00012  -0.00029   0.00000   0.00000   0.00000
 139       12D-1        0.00029  -0.00012   0.00000   0.00000   0.00000
 140       12D+2       -0.00001   0.00000   0.00000   0.00000   0.00000
 141       12D-2        0.00000   0.00001   0.00000   0.00000   0.00000
 142       13D 0        0.00000   0.00000   0.00086   0.00240   0.00039
 143       13D+1        0.00031   0.00073   0.00000   0.00000   0.00000
 144       13D-1       -0.00073   0.00031   0.00000   0.00000   0.00000
 145       13D+2        0.00002  -0.00001   0.00000   0.00000   0.00000
 146       13D-2       -0.00001  -0.00002   0.00000   0.00000   0.00000
 147       14D 0        0.00000   0.00000   0.00056  -0.00021   0.00079
 148       14D+1       -0.00028  -0.00065   0.00000   0.00000   0.00000
 149       14D-1        0.00065  -0.00028   0.00000   0.00000   0.00000
 150       14D+2       -0.00003   0.00001   0.00000   0.00000   0.00000
 151       14D-2        0.00001   0.00003   0.00000   0.00000   0.00000
 152       15F 0        0.00000   0.00000   0.00001  -0.00007  -0.00002
 153       15F+1        0.00000  -0.00001   0.00000   0.00000   0.00000
 154       15F-1        0.00001   0.00000   0.00000   0.00000   0.00000
 155       15F+2       -0.00002   0.00001   0.00000   0.00000   0.00000
 156       15F-2        0.00001   0.00002   0.00000   0.00000   0.00000
 157       15F+3        0.00000   0.00000   0.00000   0.00000   0.00000
 158       15F-3        0.00000   0.00000   0.00001   0.00003   0.00000
 159       16F 0        0.00000   0.00000  -0.00031  -0.00057  -0.00031
 160       16F+1       -0.00008  -0.00020   0.00000   0.00000   0.00000
 161       16F-1        0.00020  -0.00008   0.00000   0.00000   0.00000
 162       16F+2        0.00003  -0.00001   0.00000   0.00000   0.00000
 163       16F-2       -0.00001  -0.00003   0.00000   0.00000   0.00000
 164       16F+3        0.00000   0.00000   0.00000   0.00000   0.00000
 165       16F-3        0.00000   0.00000  -0.00002  -0.00005   0.00002
 166 6   F  1S          0.00000   0.00000  -0.00138  -0.01017  -0.04980
 167        2S          0.00000   0.00000   0.00019   0.00043   0.00080
 168        3S          0.00000   0.00000  -0.00007  -0.00044  -0.00203
 169        4S          0.00000   0.00000  -0.00055  -0.00107   0.00058
 170        5S          0.00000   0.00000   0.00009  -0.00172   0.00178
 171        6PX        -0.00002  -0.00004   0.00000   0.00000   0.00000
 172        6PY         0.00004  -0.00002   0.00000   0.00000   0.00000
 173        6PZ         0.00000   0.00000   0.00058   0.00112   0.00010
 174        7PX         0.00000  -0.00001   0.00000   0.00000   0.00000
 175        7PY         0.00001   0.00000   0.00000   0.00000   0.00000
 176        7PZ         0.00000   0.00000   0.00070   0.00134   0.00001
 177        8PX        -0.00009  -0.00022   0.00000   0.00000   0.00000
 178        8PY         0.00022  -0.00009   0.00000   0.00000   0.00000
 179        8PZ         0.00000   0.00000   0.00008   0.00015   0.00049
 180        9PX        -0.00014  -0.00033   0.00000   0.00000   0.00000
 181        9PY         0.00033  -0.00014   0.00000   0.00000   0.00000
 182        9PZ         0.00000   0.00000   0.00017  -0.00010   0.00071
 183       10D 0        0.00000   0.00000   0.00001   0.00001  -0.00002
 184       10D+1        0.00000  -0.00001   0.00000   0.00000   0.00000
 185       10D-1        0.00001   0.00000   0.00000   0.00000   0.00000
 186       10D+2       -0.00001   0.00000   0.00000   0.00000   0.00000
 187       10D-2        0.00000   0.00001   0.00000   0.00000   0.00000
 188       11D 0        0.00000   0.00000  -0.00003  -0.00010   0.00001
 189       11D+1        0.00002   0.00004   0.00000   0.00000   0.00000
 190       11D-1       -0.00004   0.00002   0.00000   0.00000   0.00000
 191       11D+2        0.00003  -0.00001   0.00000   0.00000   0.00000
 192       11D-2       -0.00001  -0.00003   0.00000   0.00000   0.00000
 193       12D 0        0.00000   0.00000  -0.00019  -0.00013   0.00012
 194       12D+1       -0.00009  -0.00020   0.00000   0.00000   0.00000
 195       12D-1        0.00020  -0.00009   0.00000   0.00000   0.00000
 196       12D+2       -0.00010   0.00004   0.00000   0.00000   0.00000
 197       12D-2        0.00004   0.00010   0.00000   0.00000   0.00000
 198       13F 0        0.00000   0.00000   0.00001  -0.00001  -0.00004
 199       13F+1        0.00001   0.00002   0.00000   0.00000   0.00000
 200       13F-1       -0.00002   0.00001   0.00000   0.00000   0.00000
 201       13F+2        0.00001  -0.00001   0.00000   0.00000   0.00000
 202       13F-2       -0.00001  -0.00001   0.00000   0.00000   0.00000
 203       13F+3        0.00000   0.00000   0.00000   0.00000   0.00000
 204       13F-3        0.00000   0.00000   0.00000   0.00000   0.00000
 205       14F 0        0.00000   0.00000  -0.00004   0.00002   0.00013
 206       14F+1       -0.00002  -0.00005   0.00000   0.00000   0.00000
 207       14F-1        0.00005  -0.00002   0.00000   0.00000   0.00000
 208       14F+2       -0.00004   0.00002   0.00000   0.00000   0.00000
 209       14F-2        0.00002   0.00004   0.00000   0.00000   0.00000
 210       14F+3        0.00000   0.00000   0.00000   0.00000   0.00000
 211       14F-3        0.00000   0.00000   0.00000  -0.00001  -0.00001
                           6         7         8         9        10
     Eigenvalues --     2.00000   2.00000   1.98360   1.97539   1.96949
   1 1   C  1S          0.05042  -0.00045   0.01543  -0.07287  -0.14406
   2        2S         -0.00012  -0.00001  -0.04202   0.19778   0.39822
   3        3S          0.00230  -0.00003  -0.01041   0.04592   0.09636
   4        4S         -0.00699   0.00016   0.00525   0.07956   0.19224
   5        5S         -0.00016   0.00010   0.00773  -0.00670  -0.02859
   6        6PX         0.00000   0.00000   0.00000   0.00000   0.00000
   7        6PY         0.00000   0.00000   0.00000   0.00000  -0.00001
   8        6PZ         0.00004   0.00000   0.00640   0.01014  -0.02693
   9        7PX         0.00000   0.00000   0.00000   0.00000   0.00000
  10        7PY         0.00000   0.00000   0.00000   0.00001  -0.00001
  11        7PZ        -0.00075   0.00000   0.00701   0.01744  -0.03211
  12        8PX         0.00000   0.00000   0.00000   0.00000   0.00000
  13        8PY         0.00000   0.00000   0.00001   0.00000  -0.00001
  14        8PZ         0.00518   0.00009   0.01635   0.00644  -0.02247
  15        9PX         0.00000   0.00000   0.00000   0.00000   0.00000
  16        9PY         0.00000   0.00000   0.00000   0.00000   0.00000
  17        9PZ         0.00011   0.00001  -0.00072   0.00039  -0.00406
  18       10D 0        0.00004   0.00000   0.00051  -0.00219  -0.00956
  19       10D+1        0.00000   0.00000   0.00000   0.00000   0.00000
  20       10D-1        0.00000   0.00000   0.00000   0.00000  -0.00001
  21       10D+2        0.00000   0.00000   0.00000   0.00000   0.00000
  22       10D-2        0.00000   0.00000   0.00000   0.00000   0.00000
  23       11D 0       -0.00023  -0.00002  -0.00527   0.00448  -0.01882
  24       11D+1        0.00000   0.00000   0.00000   0.00000  -0.00001
  25       11D-1        0.00000   0.00000   0.00000   0.00000  -0.00001
  26       11D+2        0.00000   0.00000   0.00000   0.00000   0.00000
  27       11D-2        0.00000   0.00000   0.00000   0.00000   0.00000
  28       12D 0        0.00027   0.00008   0.00202  -0.00822  -0.01667
  29       12D+1        0.00000   0.00000   0.00000   0.00000  -0.00001
  30       12D-1        0.00000   0.00000   0.00000  -0.00001  -0.00001
  31       12D+2        0.00000   0.00000   0.00000   0.00000   0.00000
  32       12D-2        0.00000   0.00000   0.00000   0.00000   0.00000
  33       13F 0       -0.00007   0.00000   0.00001   0.00237   0.00064
  34       13F+1        0.00000   0.00000   0.00000   0.00000   0.00000
  35       13F-1        0.00000   0.00000   0.00000   0.00000   0.00000
  36       13F+2        0.00000   0.00000   0.00000   0.00000   0.00000
  37       13F-2        0.00000   0.00000   0.00000   0.00000   0.00000
  38       13F+3        0.00000   0.00000   0.00000   0.00000   0.00000
  39       13F-3        0.00001   0.00000  -0.00014   0.00193   0.00399
  40       14F 0        0.00126  -0.00001   0.00468   0.00273  -0.00196
  41       14F+1        0.00000   0.00000   0.00000   0.00000   0.00000
  42       14F-1        0.00000   0.00000   0.00001   0.00000   0.00000
  43       14F+2        0.00000   0.00000   0.00000   0.00000   0.00000
  44       14F-2        0.00000   0.00000   0.00000   0.00000   0.00000
  45       14F+3        0.00000   0.00000   0.00000   0.00000   0.00000
  46       14F-3       -0.00044   0.00003   0.00185  -0.00093   0.00413
  47 2   H  1S         -0.00008   0.00000  -0.00858   0.03697   0.08066
  48        2S          0.00098  -0.00006  -0.01525   0.04331   0.08362
  49        3S          0.00181   0.00004  -0.00089  -0.00497  -0.01225
  50        4S          0.00003   0.00000  -0.00046   0.00049   0.00038
  51        5PX         0.00000   0.00000   0.00000   0.00000   0.00000
  52        5PY         0.00001   0.00000  -0.00109   0.00397   0.00865
  53        5PZ        -0.00004   0.00000   0.00027   0.00095   0.00035
  54        6PX         0.00000   0.00000   0.00000   0.00000   0.00000
  55        6PY         0.00008   0.00000  -0.00072   0.00076   0.00119
  56        6PZ         0.00032  -0.00001   0.00008   0.00242  -0.00052
  57        7PX         0.00000   0.00000   0.00000   0.00000   0.00000
  58        7PY         0.00043   0.00001   0.00135  -0.00495  -0.01038
  59        7PZ        -0.00055   0.00001  -0.00278  -0.00173  -0.00132
  60        8D 0        0.00006   0.00000   0.00014  -0.00035  -0.00091
  61        8D+1        0.00000   0.00000   0.00000   0.00000   0.00000
  62        8D-1       -0.00001   0.00000  -0.00015   0.00049   0.00023
  63        8D+2       -0.00002   0.00000   0.00003  -0.00054  -0.00137
  64        8D-2        0.00000   0.00000   0.00000   0.00000   0.00000
  65        9D 0        0.00009  -0.00001  -0.00006   0.00121   0.00100
  66        9D+1        0.00000   0.00000   0.00000   0.00000   0.00000
  67        9D-1        0.00014   0.00000  -0.00006   0.00006  -0.00038
  68        9D+2        0.00004   0.00000  -0.00098   0.00224   0.00416
  69        9D-2        0.00000   0.00000   0.00000   0.00000   0.00000
  70 3   H  1S         -0.00008   0.00000  -0.00858   0.03697   0.08066
  71        2S          0.00098  -0.00006  -0.01525   0.04331   0.08362
  72        3S          0.00181   0.00004  -0.00090  -0.00497  -0.01225
  73        4S          0.00003   0.00000  -0.00046   0.00049   0.00038
  74        5PX         0.00001   0.00000  -0.00094   0.00344   0.00749
  75        5PY        -0.00001   0.00000   0.00054  -0.00198  -0.00432
  76        5PZ        -0.00004   0.00000   0.00027   0.00095   0.00036
  77        6PX         0.00007   0.00000  -0.00063   0.00066   0.00103
  78        6PY        -0.00004   0.00000   0.00036  -0.00038  -0.00059
  79        6PZ         0.00032  -0.00001   0.00008   0.00242  -0.00052
  80        7PX         0.00037   0.00001   0.00117  -0.00429  -0.00899
  81        7PY        -0.00022   0.00000  -0.00068   0.00247   0.00519
  82        7PZ        -0.00055   0.00001  -0.00278  -0.00174  -0.00132
  83        8D 0        0.00006   0.00000   0.00014  -0.00035  -0.00091
  84        8D+1       -0.00001   0.00000  -0.00013   0.00042   0.00020
  85        8D-1        0.00000   0.00000   0.00007  -0.00024  -0.00012
  86        8D+2        0.00001   0.00000  -0.00002   0.00027   0.00069
  87        8D-2       -0.00001   0.00000   0.00003  -0.00046  -0.00119
  88        9D 0        0.00009  -0.00001  -0.00006   0.00121   0.00100
  89        9D+1        0.00012   0.00000  -0.00005   0.00005  -0.00033
  90        9D-1       -0.00007   0.00000   0.00003  -0.00003   0.00019
  91        9D+2       -0.00002   0.00000   0.00049  -0.00112  -0.00208
  92        9D-2        0.00003   0.00000  -0.00085   0.00194   0.00360
  93 4   H  1S         -0.00008   0.00000  -0.00858   0.03697   0.08066
  94        2S          0.00098  -0.00006  -0.01525   0.04331   0.08362
  95        3S          0.00181   0.00004  -0.00089  -0.00497  -0.01225
  96        4S          0.00003   0.00000  -0.00046   0.00049   0.00038
  97        5PX        -0.00001   0.00000   0.00094  -0.00344  -0.00749
  98        5PY        -0.00001   0.00000   0.00054  -0.00198  -0.00432
  99        5PZ        -0.00004   0.00000   0.00027   0.00095   0.00036
 100        6PX        -0.00007   0.00000   0.00063  -0.00066  -0.00103
 101        6PY        -0.00004   0.00000   0.00036  -0.00038  -0.00059
 102        6PZ         0.00032  -0.00001   0.00008   0.00242  -0.00052
 103        7PX        -0.00037  -0.00001  -0.00117   0.00429   0.00899
 104        7PY        -0.00022   0.00000  -0.00068   0.00247   0.00519
 105        7PZ        -0.00055   0.00001  -0.00278  -0.00174  -0.00132
 106        8D 0        0.00006   0.00000   0.00014  -0.00035  -0.00091
 107        8D+1        0.00001   0.00000   0.00013  -0.00042  -0.00021
 108        8D-1        0.00000   0.00000   0.00007  -0.00024  -0.00012
 109        8D+2        0.00001   0.00000  -0.00002   0.00027   0.00069
 110        8D-2        0.00001   0.00000  -0.00003   0.00046   0.00119
 111        9D 0        0.00009  -0.00001  -0.00006   0.00121   0.00100
 112        9D+1       -0.00012   0.00000   0.00005  -0.00005   0.00033
 113        9D-1       -0.00007   0.00000   0.00003  -0.00003   0.00019
 114        9D+2       -0.00002   0.00000   0.00049  -0.00112  -0.00208
 115        9D-2       -0.00003   0.00000   0.00085  -0.00194  -0.00360
 116 5   Cl 1S          0.00005   0.99707  -0.00063   0.06661  -0.03459
 117        2S          0.00001   0.01041   0.00292  -0.25244   0.12997
 118        3S          0.00007   0.00016  -0.00385   0.52571  -0.27659
 119        4S          0.00008   0.00026  -0.00025   0.06447  -0.03725
 120        5S         -0.00180  -0.00020  -0.01211   0.35146  -0.16949
 121        6S         -0.00051  -0.00011  -0.00456   0.02449   0.01121
 122        7PX         0.00000   0.00000   0.00000   0.00000   0.00001
 123        7PY         0.00000   0.00000   0.00000   0.00000   0.00001
 124        7PZ         0.00700   0.00016   0.00156   0.00446   0.02865
 125        8PX         0.00000   0.00000   0.00000   0.00000  -0.00001
 126        8PY         0.00000   0.00000   0.00000   0.00000  -0.00003
 127        8PZ         0.00051  -0.00003  -0.00243  -0.00576  -0.07171
 128        9PX         0.00000   0.00000   0.00000   0.00000  -0.00001
 129        9PY         0.00000   0.00000   0.00000   0.00000  -0.00001
 130        9PZ         0.00029   0.00003  -0.00269   0.00075  -0.03124
 131       10PX         0.00000   0.00000   0.00000   0.00000  -0.00001
 132       10PY         0.00000   0.00000   0.00000   0.00000  -0.00002
 133       10PZ         0.00097   0.00015   0.00261   0.00304  -0.05241
 134       11PX         0.00000   0.00000   0.00000   0.00000   0.00000
 135       11PY         0.00000   0.00000   0.00000   0.00000   0.00000
 136       11PZ         0.00002   0.00002  -0.00043   0.00260  -0.00877
 137       12D 0       -0.00002   0.00001  -0.00034   0.00437   0.00443
 138       12D+1        0.00000   0.00000   0.00000   0.00000   0.00000
 139       12D-1        0.00000   0.00000   0.00000   0.00000   0.00000
 140       12D+2        0.00000   0.00000   0.00000   0.00000   0.00000
 141       12D-2        0.00000   0.00000   0.00000   0.00000   0.00000
 142       13D 0       -0.00022   0.00000  -0.00163   0.00806   0.00962
 143       13D+1        0.00000   0.00000   0.00000   0.00000   0.00000
 144       13D-1        0.00000   0.00000   0.00000   0.00001   0.00001
 145       13D+2        0.00000   0.00000   0.00000   0.00000   0.00000
 146       13D-2        0.00000   0.00000   0.00000   0.00000   0.00000
 147       14D 0       -0.00015  -0.00004  -0.00186  -0.00018   0.00541
 148       14D+1        0.00000   0.00000   0.00000   0.00000   0.00000
 149       14D-1        0.00000   0.00000   0.00000   0.00000   0.00000
 150       14D+2        0.00000   0.00000   0.00000   0.00000   0.00000
 151       14D-2        0.00000   0.00000   0.00000   0.00000   0.00000
 152       15F 0        0.00005   0.00000   0.00022  -0.00176  -0.00190
 153       15F+1        0.00000   0.00000   0.00000   0.00000   0.00000
 154       15F-1        0.00000   0.00000   0.00000   0.00000   0.00000
 155       15F+2        0.00000   0.00000   0.00000   0.00000   0.00000
 156       15F-2        0.00000   0.00000   0.00000   0.00000   0.00000
 157       15F+3        0.00000   0.00000   0.00000   0.00000   0.00000
 158       15F-3       -0.00001   0.00000  -0.00001   0.00002   0.00009
 159       16F 0       -0.00004   0.00001   0.00007  -0.00095  -0.00174
 160       16F+1        0.00000   0.00000   0.00000   0.00000   0.00000
 161       16F-1        0.00000   0.00000   0.00000   0.00000   0.00000
 162       16F+2        0.00000   0.00000   0.00000   0.00000   0.00000
 163       16F-2        0.00000   0.00000   0.00000   0.00000   0.00000
 164       16F+3        0.00000   0.00000   0.00000   0.00000   0.00000
 165       16F-3        0.00003   0.00000   0.00002  -0.00001  -0.00021
 166 6   F  1S          0.97743  -0.00002   0.21188   0.01307   0.02162
 167        2S         -0.01504   0.00000  -0.53165  -0.03386  -0.05735
 168        3S          0.04206   0.00000  -0.16473  -0.01075  -0.01854
 169        4S          0.00192  -0.00001  -0.36877  -0.02340  -0.04392
 170        5S         -0.00083  -0.00006  -0.04517   0.00427   0.00782
 171        6PX         0.00000   0.00000   0.00000   0.00000   0.00002
 172        6PY         0.00000   0.00000   0.00001   0.00001   0.00004
 173        6PZ         0.00049   0.00000   0.01377   0.01272   0.08700
 174        7PX         0.00000   0.00000   0.00000   0.00000   0.00002
 175        7PY         0.00000   0.00000   0.00001   0.00001   0.00004
 176        7PZ        -0.00012   0.00000   0.01505   0.01553   0.10469
 177        8PX         0.00000   0.00000   0.00000   0.00000   0.00002
 178        8PY         0.00000   0.00000   0.00001   0.00001   0.00004
 179        8PZ         0.00241  -0.00001   0.01268   0.01238   0.08323
 180        9PX         0.00000   0.00000   0.00000   0.00000   0.00000
 181        9PY         0.00000   0.00000   0.00000   0.00000   0.00001
 182        9PZ        -0.00008  -0.00002   0.00227   0.00318   0.02402
 183       10D 0       -0.00002   0.00000  -0.00013   0.00017   0.00060
 184       10D+1        0.00000   0.00000   0.00000   0.00000   0.00000
 185       10D-1        0.00000   0.00000   0.00000   0.00000   0.00000
 186       10D+2        0.00000   0.00000   0.00000   0.00000   0.00000
 187       10D-2        0.00000   0.00000   0.00000   0.00000   0.00000
 188       11D 0       -0.00003   0.00000  -0.00104   0.00091   0.00276
 189       11D+1        0.00000   0.00000   0.00000   0.00000   0.00000
 190       11D-1        0.00000   0.00000   0.00000   0.00000   0.00000
 191       11D+2        0.00000   0.00000   0.00000   0.00000   0.00000
 192       11D-2        0.00000   0.00000   0.00000   0.00000   0.00000
 193       12D 0        0.00080   0.00000  -0.00055   0.00039   0.00386
 194       12D+1        0.00000   0.00000   0.00000   0.00000   0.00000
 195       12D-1        0.00000   0.00000   0.00000   0.00000   0.00000
 196       12D+2        0.00000   0.00000   0.00000   0.00000   0.00000
 197       12D-2        0.00000   0.00000   0.00000   0.00000   0.00000
 198       13F 0       -0.00006   0.00000  -0.00002   0.00013   0.00027
 199       13F+1        0.00000   0.00000   0.00000   0.00000   0.00000
 200       13F-1        0.00000   0.00000   0.00000   0.00000   0.00000
 201       13F+2        0.00000   0.00000   0.00000   0.00000   0.00000
 202       13F-2        0.00000   0.00000   0.00000   0.00000   0.00000
 203       13F+3        0.00000   0.00000   0.00000   0.00000   0.00000
 204       13F-3        0.00001   0.00000   0.00001   0.00002   0.00003
 205       14F 0        0.00020   0.00000  -0.00040  -0.00006   0.00063
 206       14F+1        0.00000   0.00000   0.00000   0.00000   0.00000
 207       14F-1        0.00000   0.00000   0.00000   0.00000   0.00000
 208       14F+2        0.00000   0.00000   0.00000   0.00000   0.00000
 209       14F-2        0.00000   0.00000   0.00000   0.00000   0.00000
 210       14F+3        0.00000   0.00000   0.00000   0.00000   0.00000
 211       14F-3       -0.00001   0.00000  -0.00007  -0.00006  -0.00009
                          11        12        13        14        15
     Eigenvalues --     1.96438   1.96438   1.95923   1.95923   1.94910
   1 1   C  1S          0.00000   0.00000   0.00000   0.00000   0.00000
   2        2S          0.00000   0.00000   0.00000   0.00000   0.00000
   3        3S          0.00000   0.00000   0.00000   0.00000   0.00000
   4        4S          0.00000   0.00000   0.00000   0.00000   0.00001
   5        5S          0.00000   0.00000   0.00000   0.00000   0.00000
   6        6PX         0.02076   0.09536   0.21605  -0.08296   0.06008
   7        6PY         0.09536  -0.02076   0.08296   0.21605   0.03063
   8        6PZ        -0.00005  -0.00001  -0.00007  -0.00008  -0.00002
   9        7PX         0.02782   0.12778   0.28639  -0.10997   0.08353
  10        7PY         0.12778  -0.02782   0.10997   0.28639   0.04258
  11        7PZ        -0.00006  -0.00001  -0.00010  -0.00010  -0.00003
  12        8PX         0.02036   0.09352   0.22096  -0.08485   0.06411
  13        8PY         0.09352  -0.02036   0.08485   0.22097   0.03268
  14        8PZ        -0.00004  -0.00001  -0.00008  -0.00008  -0.00002
  15        9PX        -0.00047  -0.00214   0.01767  -0.00678   0.01077
  16        9PY        -0.00214   0.00047   0.00678   0.01767   0.00549
  17        9PZ         0.00000   0.00000  -0.00001  -0.00001   0.00000
  18       10D 0        0.00000   0.00000   0.00000   0.00000   0.00000
  19       10D+1       -0.00058  -0.00265  -0.00123   0.00047  -0.00326
  20       10D-1       -0.00264   0.00057  -0.00047  -0.00121  -0.00166
  21       10D+2        0.00608  -0.00132   0.00533   0.01386   0.00226
  22       10D-2        0.00132   0.00608   0.01386  -0.00533   0.00443
  23       11D 0        0.00001   0.00000   0.00000  -0.00001   0.00001
  24       11D+1       -0.00274  -0.01257   0.00682  -0.00263  -0.01372
  25       11D-1       -0.01255   0.00273   0.00263   0.00687  -0.00699
  26       11D+2        0.02014  -0.00438   0.01631   0.04242   0.00769
  27       11D-2        0.00437   0.02013   0.04243  -0.01631   0.01507
  28       12D 0        0.00000   0.00000   0.00000   0.00000   0.00000
  29       12D+1       -0.00131  -0.00601   0.00520  -0.00201   0.00090
  30       12D-1       -0.00600   0.00130   0.00200   0.00524   0.00046
  31       12D+2        0.01953  -0.00425   0.01294   0.03365   0.00457
  32       12D-2        0.00424   0.01953   0.03365  -0.01294   0.00895
  33       13F 0        0.00000   0.00000   0.00000   0.00000   0.00000
  34       13F+1        0.00005   0.00024  -0.00190   0.00073  -0.00196
  35       13F-1        0.00024  -0.00005  -0.00073  -0.00190  -0.00100
  36       13F+2       -0.00063   0.00014  -0.00005  -0.00012  -0.00015
  37       13F-2       -0.00014  -0.00063  -0.00012   0.00005  -0.00030
  38       13F+3        0.00000   0.00000   0.00000   0.00000   0.00000
  39       13F-3        0.00000   0.00000   0.00000   0.00000   0.00000
  40       14F 0        0.00000   0.00000   0.00000   0.00001   0.00001
  41       14F+1        0.00008   0.00038  -0.00549   0.00211  -0.00644
  42       14F-1        0.00038  -0.00008  -0.00211  -0.00549  -0.00328
  43       14F+2       -0.00381   0.00083  -0.00008  -0.00021  -0.00149
  44       14F-2       -0.00083  -0.00381  -0.00022   0.00008  -0.00292
  45       14F+3        0.00000   0.00000   0.00000   0.00000   0.00000
  46       14F-3        0.00000   0.00000   0.00000   0.00000   0.00000
  47 2   H  1S         -0.06559   0.01427  -0.05443  -0.14170  -0.02105
  48        2S         -0.05908   0.01285  -0.05540  -0.14422  -0.02066
  49        3S          0.05646  -0.01228   0.04290   0.11166   0.00262
  50        4S         -0.00551   0.00120   0.00621   0.01617   0.00047
  51        5PX         0.00044   0.00204   0.00409  -0.00157   0.00094
  52        5PY        -0.00515   0.00112  -0.00445  -0.01158  -0.00162
  53        5PZ         0.00004  -0.00001  -0.00100  -0.00260   0.00008
  54        6PX         0.00171   0.00784   0.01275  -0.00490   0.00330
  55        6PY         0.00704  -0.00153   0.00405   0.01054   0.00253
  56        6PZ        -0.00275   0.00060   0.00012   0.00032  -0.00056
  57        7PX         0.00196   0.00900   0.01248  -0.00479   0.00249
  58        7PY         0.01372  -0.00299   0.01636   0.04260   0.00440
  59        7PZ         0.00061  -0.00013   0.00272   0.00709   0.00134
  60        8D 0        0.00040  -0.00009   0.00049   0.00127   0.00018
  61        8D+1        0.00000   0.00002   0.00029  -0.00011  -0.00003
  62        8D-1       -0.00073   0.00016  -0.00009  -0.00023  -0.00014
  63        8D+2        0.00059  -0.00013   0.00069   0.00180   0.00024
  64        8D-2        0.00022   0.00102   0.00210  -0.00081   0.00053
  65        9D 0       -0.00054   0.00012   0.00053   0.00137  -0.00008
  66        9D+1       -0.00033  -0.00151   0.00091  -0.00035  -0.00106
  67        9D-1       -0.00328   0.00071   0.00121   0.00316  -0.00022
  68        9D+2       -0.00158   0.00034  -0.00096  -0.00250  -0.00049
  69        9D-2        0.00035   0.00161   0.00269  -0.00103   0.00100
  70 3   H  1S          0.02044  -0.06394  -0.09550   0.11799  -0.02523
  71        2S          0.01841  -0.05760  -0.09720   0.12009  -0.02477
  72        3S         -0.01759   0.05504   0.07526  -0.09298   0.00314
  73        4S          0.00172  -0.00537   0.01089  -0.01346   0.00057
  74        5PX         0.00238  -0.00403  -0.00506   0.00973  -0.00124
  75        5PY         0.00092   0.00306   0.00685  -0.00244   0.00174
  76        5PZ        -0.00001   0.00003  -0.00176   0.00217   0.00009
  77        6PX         0.00192   0.00717   0.01146  -0.00331   0.00418
  78        6PY         0.00771  -0.00132   0.00564   0.01183   0.00117
  79        6PZ         0.00085  -0.00267   0.00021  -0.00027  -0.00067
  80        7PX         0.00068   0.01298   0.03006  -0.02651   0.00574
  81        7PY         0.00973  -0.00426  -0.00536   0.02502  -0.00061
  82        7PZ        -0.00020   0.00060   0.00479  -0.00592   0.00161
  83        8D 0       -0.00012   0.00039   0.00086  -0.00106   0.00021
  84        8D+1        0.00021  -0.00062  -0.00001   0.00027  -0.00015
  85        8D-1       -0.00010   0.00036   0.00029   0.00007   0.00006
  86        8D+2        0.00096  -0.00001   0.00091   0.00197   0.00029
  87        8D-2        0.00034   0.00065   0.00192  -0.00059   0.00049
  88        9D 0        0.00017  -0.00053   0.00093  -0.00115  -0.00009
  89        9D+1        0.00015  -0.00300   0.00222  -0.00197  -0.00073
  90        9D-1       -0.00179   0.00119  -0.00041   0.00184  -0.00073
  91        9D+2        0.00111   0.00120   0.00278   0.00053   0.00110
  92        9D-2        0.00121  -0.00108  -0.00034   0.00270  -0.00004
  93 4   H  1S          0.04515   0.04966   0.14993   0.02371   0.04628
  94        2S          0.04068   0.04474   0.15260   0.02413   0.04543
  95        3S         -0.03887  -0.04275  -0.11815  -0.01868  -0.00577
  96        4S          0.00379   0.00417  -0.01711  -0.00270  -0.00104
  97        5PX        -0.00384  -0.00268  -0.01027  -0.00384  -0.00306
  98        5PY        -0.00044  -0.00316  -0.00672   0.00278  -0.00183
  99        5PZ        -0.00002  -0.00002   0.00276   0.00044  -0.00017
 100        6PX         0.00123   0.00732   0.01073  -0.00521   0.00492
 101        6PY         0.00756  -0.00200   0.00373   0.01256   0.00262
 102        6PZ         0.00188   0.00208  -0.00034  -0.00006   0.00122
 103        7PX         0.00478   0.01209   0.04008  -0.00043   0.00845
 104        7PY         0.01062  -0.00017   0.02072   0.01500   0.00471
 105        7PZ        -0.00043  -0.00047  -0.00754  -0.00120  -0.00296
 106        8D 0       -0.00027  -0.00030  -0.00134  -0.00021  -0.00039
 107        8D+1       -0.00044  -0.00047  -0.00019  -0.00019  -0.00026
 108        8D-1       -0.00024  -0.00029  -0.00017   0.00025  -0.00015
 109        8D+2        0.00087  -0.00039   0.00065   0.00207   0.00023
 110        8D-2       -0.00004   0.00074   0.00182  -0.00085   0.00046
 111        9D 0        0.00037   0.00041  -0.00146  -0.00023   0.00017
 112        9D+1       -0.00138  -0.00267   0.00297  -0.00002  -0.00045
 113        9D-1       -0.00212  -0.00034   0.00154   0.00110  -0.00019
 114        9D+2        0.00051  -0.00156  -0.00171   0.00226  -0.00058
 115        9D-2       -0.00155  -0.00048  -0.00206  -0.00179  -0.00090
 116 5   Cl 1S          0.00000   0.00000   0.00000   0.00000   0.00000
 117        2S          0.00000   0.00000   0.00000   0.00000   0.00000
 118        3S          0.00000   0.00000   0.00000   0.00000   0.00000
 119        4S          0.00000   0.00000   0.00000   0.00000   0.00000
 120        5S          0.00000   0.00000   0.00000   0.00000   0.00000
 121        6S          0.00000   0.00000   0.00000   0.00000   0.00000
 122        7PX        -0.00184  -0.00846  -0.04033   0.01549   0.19923
 123        7PY        -0.00846   0.00184  -0.01549  -0.04033   0.10156
 124        7PZ         0.00000   0.00000   0.00001   0.00001  -0.00008
 125        8PX         0.00437   0.02005   0.09531  -0.03660  -0.45565
 126        8PY         0.02005  -0.00437   0.03660   0.09531  -0.23227
 127        8PZ        -0.00001   0.00000  -0.00003  -0.00003   0.00018
 128        9PX         0.00203   0.00930   0.04409  -0.01693  -0.22014
 129        9PY         0.00930  -0.00203   0.01693   0.04409  -0.11221
 130        9PZ         0.00000   0.00000  -0.00001  -0.00002   0.00009
 131       10PX         0.00219   0.01008   0.05187  -0.01992  -0.32752
 132       10PY         0.01008  -0.00219   0.01992   0.05187  -0.16695
 133       10PZ         0.00000   0.00000  -0.00002  -0.00002   0.00013
 134       11PX         0.00046   0.00210   0.00326  -0.00125  -0.05553
 135       11PY         0.00210  -0.00046   0.00125   0.00326  -0.02831
 136       11PZ         0.00000   0.00000   0.00000   0.00000   0.00002
 137       12D 0        0.00000   0.00000   0.00000   0.00000   0.00000
 138       12D+1       -0.00039  -0.00178  -0.00562   0.00216   0.00023
 139       12D-1       -0.00178   0.00039  -0.00216  -0.00562   0.00012
 140       12D+2        0.00011  -0.00002   0.00019   0.00050   0.00011
 141       12D-2        0.00002   0.00010   0.00049  -0.00019   0.00021
 142       13D 0        0.00000   0.00000   0.00001   0.00001   0.00000
 143       13D+1       -0.00060  -0.00276  -0.01006   0.00386   0.00065
 144       13D-1       -0.00276   0.00060  -0.00386  -0.01006   0.00033
 145       13D+2        0.00031  -0.00007   0.00023   0.00060   0.00025
 146       13D-2        0.00007   0.00031   0.00059  -0.00023   0.00048
 147       14D 0        0.00000   0.00000   0.00000   0.00000   0.00000
 148       14D+1        0.00001   0.00005   0.00004  -0.00002   0.00301
 149       14D-1        0.00005  -0.00001   0.00002   0.00004   0.00153
 150       14D+2       -0.00064   0.00014  -0.00003  -0.00007   0.00003
 151       14D-2       -0.00014  -0.00064  -0.00007   0.00003   0.00005
 152       15F 0        0.00000   0.00000   0.00000   0.00000   0.00000
 153       15F+1        0.00018   0.00084   0.00240  -0.00092  -0.00124
 154       15F-1        0.00084  -0.00018   0.00092   0.00240  -0.00063
 155       15F+2       -0.00011   0.00002  -0.00012  -0.00032  -0.00005
 156       15F-2       -0.00002  -0.00011  -0.00031   0.00012  -0.00009
 157       15F+3        0.00000   0.00000   0.00000   0.00000   0.00000
 158       15F-3        0.00000   0.00000   0.00000   0.00000   0.00000
 159       16F 0        0.00000   0.00000   0.00000   0.00000   0.00000
 160       16F+1        0.00012   0.00057   0.00188  -0.00072  -0.00161
 161       16F-1        0.00057  -0.00012   0.00072   0.00188  -0.00082
 162       16F+2        0.00001   0.00000   0.00006   0.00016  -0.00009
 163       16F-2        0.00000   0.00001   0.00017  -0.00006  -0.00018
 164       16F+3        0.00000   0.00000   0.00000   0.00000   0.00000
 165       16F-3        0.00000   0.00000   0.00000   0.00000   0.00000
 166 6   F  1S          0.00000   0.00000   0.00000   0.00000   0.00000
 167        2S          0.00000   0.00000   0.00000   0.00000   0.00000
 168        3S          0.00000   0.00000   0.00000   0.00000   0.00000
 169        4S          0.00000   0.00000   0.00000   0.00000   0.00000
 170        5S          0.00000   0.00000   0.00000   0.00000   0.00000
 171        6PX         0.07073   0.32490  -0.15084   0.05792  -0.01998
 172        6PY         0.32489  -0.07073  -0.05793  -0.15085  -0.01018
 173        6PZ        -0.00016  -0.00002   0.00005   0.00006   0.00000
 174        7PX         0.08437   0.38756  -0.17886   0.06868  -0.02365
 175        7PY         0.38756  -0.08438  -0.06868  -0.17886  -0.01205
 176        7PZ        -0.00019  -0.00003   0.00006   0.00007   0.00000
 177        8PX         0.06820   0.31325  -0.15042   0.05776  -0.02025
 178        8PY         0.31325  -0.06820  -0.05776  -0.15043  -0.01032
 179        8PZ        -0.00016  -0.00002   0.00005   0.00006   0.00000
 180        9PX         0.02137   0.09818  -0.05292   0.02032  -0.00985
 181        9PY         0.09818  -0.02137  -0.02032  -0.05292  -0.00502
 182        9PZ        -0.00005  -0.00001   0.00002   0.00002   0.00000
 183       10D 0        0.00000   0.00000   0.00000   0.00000   0.00000
 184       10D+1        0.00013   0.00059   0.00009  -0.00003   0.00010
 185       10D-1        0.00059  -0.00013   0.00003   0.00009   0.00005
 186       10D+2        0.00002   0.00000   0.00001   0.00003   0.00000
 187       10D-2        0.00001   0.00002   0.00003  -0.00001   0.00001
 188       11D 0        0.00000   0.00000   0.00000   0.00000   0.00000
 189       11D+1        0.00052   0.00237   0.00114  -0.00044   0.00052
 190       11D-1        0.00237  -0.00052   0.00044   0.00114   0.00027
 191       11D+2        0.00005  -0.00001   0.00009   0.00024   0.00008
 192       11D-2        0.00001   0.00005   0.00024  -0.00009   0.00016
 193       12D 0        0.00000   0.00000   0.00000   0.00000   0.00000
 194       12D+1        0.00127   0.00581  -0.00331   0.00127   0.00028
 195       12D-1        0.00581  -0.00127  -0.00127  -0.00331   0.00014
 196       12D+2        0.00003  -0.00001  -0.00010  -0.00026  -0.00017
 197       12D-2        0.00001   0.00004  -0.00026   0.00010  -0.00033
 198       13F 0        0.00000   0.00000   0.00000   0.00000   0.00000
 199       13F+1        0.00005   0.00022   0.00023  -0.00009   0.00005
 200       13F-1        0.00022  -0.00005   0.00009   0.00023   0.00003
 201       13F+2        0.00005  -0.00001   0.00004   0.00010   0.00003
 202       13F-2        0.00001   0.00005   0.00010  -0.00004   0.00006
 203       13F+3        0.00000   0.00000   0.00000   0.00000   0.00000
 204       13F-3        0.00000   0.00000   0.00000   0.00000   0.00000
 205       14F 0        0.00000   0.00000   0.00000   0.00000   0.00000
 206       14F+1        0.00031   0.00143  -0.00082   0.00031   0.00001
 207       14F-1        0.00143  -0.00031  -0.00031  -0.00082   0.00001
 208       14F+2       -0.00013   0.00003  -0.00009  -0.00022  -0.00007
 209       14F-2       -0.00003  -0.00013  -0.00023   0.00009  -0.00014
 210       14F+3        0.00000   0.00000   0.00000   0.00000   0.00000
 211       14F-3        0.00000   0.00000   0.00000   0.00000   0.00000
                          16        17        18        19        20
     Eigenvalues --     1.94910   1.94846   1.93526   0.06056   0.02492
   1 1   C  1S          0.00000   0.05337  -0.01546  -0.02391   0.00000
   2        2S          0.00001  -0.15204   0.05004   0.06659  -0.00001
   3        3S          0.00000  -0.03597   0.01662   0.02449  -0.00001
   4        4S          0.00002  -0.29209   0.07917  -0.21496   0.00003
   5        5S          0.00000  -0.05774   0.03779  -0.02958   0.00001
   6        6PX        -0.03063  -0.00001  -0.00002   0.00005   0.01784
   7        6PY         0.06008  -0.00001  -0.00006   0.00012   0.15434
   8        6PZ        -0.00002  -0.04530  -0.12815   0.27946  -0.00007
   9        7PX        -0.04258  -0.00001  -0.00003   0.00008   0.03308
  10        7PY         0.08353  -0.00002  -0.00008   0.00019   0.28621
  11        7PZ        -0.00002  -0.06414  -0.17970   0.44260  -0.00013
  12        8PX        -0.03268  -0.00001  -0.00001   0.00004   0.01519
  13        8PY         0.06411  -0.00002  -0.00003   0.00009   0.13138
  14        8PZ        -0.00002  -0.06417  -0.07794   0.20100  -0.00006
  15        9PX        -0.00549   0.00000   0.00000   0.00000   0.00338
  16        9PY         0.01077   0.00000   0.00000   0.00000   0.02928
  17        9PZ         0.00000  -0.00135  -0.00179  -0.00003  -0.00001
  18       10D 0        0.00000   0.00942  -0.01082  -0.00870  -0.00002
  19       10D+1        0.00166   0.00000   0.00000   0.00000   0.00293
  20       10D-1       -0.00326   0.00001  -0.00001  -0.00001   0.02533
  21       10D+2        0.00444   0.00000   0.00000   0.00000   0.00391
  22       10D-2       -0.00226   0.00000   0.00000   0.00000   0.00046
  23       11D 0        0.00001   0.05014  -0.04460   0.06472  -0.00005
  24       11D+1        0.00699   0.00002  -0.00001   0.00002   0.00679
  25       11D-1       -0.01371   0.00004  -0.00003   0.00005   0.05889
  26       11D+2        0.01509   0.00000   0.00000   0.00000   0.07010
  27       11D-2       -0.00769   0.00000   0.00000   0.00000   0.00809
  28       12D 0        0.00000   0.02823  -0.00354  -0.01799  -0.00001
  29       12D+1       -0.00046   0.00001   0.00000  -0.00001   0.00216
  30       12D-1        0.00091   0.00002   0.00000  -0.00001   0.01876
  31       12D+2        0.00895   0.00000   0.00000   0.00000   0.01498
  32       12D-2       -0.00457   0.00000   0.00000   0.00000   0.00173
  33       13F 0        0.00000  -0.00205  -0.00324  -0.00610   0.00001
  34       13F+1        0.00100   0.00000   0.00000   0.00000  -0.00112
  35       13F-1       -0.00196   0.00000   0.00000  -0.00001  -0.00965
  36       13F+2       -0.00030   0.00000   0.00000   0.00000   0.00310
  37       13F-2        0.00015   0.00000   0.00000   0.00000   0.00035
  38       13F+3        0.00000   0.00000   0.00000   0.00000   0.00000
  39       13F-3        0.00000  -0.00308   0.00109  -0.00052   0.00000
  40       14F 0        0.00001  -0.00551  -0.00113   0.01136   0.00000
  41       14F+1        0.00328   0.00000   0.00000   0.00000  -0.00033
  42       14F-1       -0.00645  -0.00001   0.00000   0.00001  -0.00286
  43       14F+2       -0.00291   0.00001   0.00000   0.00002  -0.00237
  44       14F-2        0.00149   0.00000   0.00000   0.00001  -0.00027
  45       14F+3        0.00000  -0.00001   0.00000  -0.00001   0.00000
  46       14F-3        0.00000  -0.01509   0.00867  -0.03699   0.00000
  47 2   H  1S         -0.04128  -0.03390   0.02836  -0.00726   0.04030
  48        2S         -0.04053  -0.00326   0.02351   0.07752   0.25786
  49        3S          0.00514   0.02194   0.02110   0.06625   0.16534
  50        4S          0.00093   0.00016   0.00196   0.00707   0.07091
  51        5PX        -0.00048   0.00000   0.00000   0.00000   0.00032
  52        5PY        -0.00318  -0.00216   0.00247  -0.00204  -0.00875
  53        5PZ         0.00016  -0.00266  -0.00321   0.01426  -0.01210
  54        6PX        -0.00168   0.00000   0.00000   0.00001   0.00087
  55        6PY         0.00497   0.00551  -0.00130   0.00949   0.05898
  56        6PZ        -0.00109  -0.00098  -0.01023   0.02800  -0.00594
  57        7PX        -0.00127   0.00000   0.00000   0.00000  -0.00017
  58        7PY         0.00863   0.01107  -0.00133   0.01225   0.05045
  59        7PZ         0.00263   0.00802   0.00317  -0.01400   0.00525
  60        8D 0        0.00035   0.00015  -0.00083   0.00064   0.00254
  61        8D+1        0.00001   0.00000   0.00000   0.00000   0.00021
  62        8D-1       -0.00027  -0.00020  -0.00169   0.00669  -0.00400
  63        8D+2        0.00046   0.00053  -0.00061   0.00184   0.00259
  64        8D-2       -0.00027   0.00000   0.00000   0.00000   0.00024
  65        9D 0       -0.00015   0.00083  -0.00276   0.00589  -0.00331
  66        9D+1        0.00054   0.00000   0.00000   0.00000   0.00051
  67        9D-1       -0.00043   0.00201  -0.00056  -0.00592   0.01526
  68        9D+2       -0.00095   0.00109   0.00037  -0.00116  -0.00940
  69        9D-2       -0.00051   0.00000   0.00000   0.00000   0.00014
  70 3   H  1S          0.03887  -0.03389   0.02836  -0.00726  -0.01611
  71        2S          0.03816  -0.00325   0.02351   0.07751  -0.10315
  72        3S         -0.00484   0.02194   0.02110   0.06625  -0.06615
  73        4S         -0.00087   0.00016   0.00196   0.00707  -0.02836
  74        5PX         0.00288  -0.00187   0.00214  -0.00177   0.00431
  75        5PY        -0.00100   0.00108  -0.00124   0.00103   0.00047
  76        5PZ        -0.00014  -0.00266  -0.00321   0.01426   0.00484
  77        6PX        -0.00304   0.00477  -0.00113   0.00821  -0.01699
  78        6PY         0.00409  -0.00275   0.00064  -0.00473   0.01777
  79        6PZ         0.00103  -0.00097  -0.01023   0.02800   0.00236
  80        7PX        -0.00628   0.00958  -0.00116   0.01061  -0.01818
  81        7PY         0.00538  -0.00553   0.00067  -0.00613   0.00888
  82        7PZ        -0.00248   0.00802   0.00317  -0.01400  -0.00211
  83        8D 0       -0.00033   0.00015  -0.00083   0.00064  -0.00101
  84        8D+1        0.00021  -0.00017  -0.00146   0.00579   0.00221
  85        8D-1       -0.00014   0.00010   0.00084  -0.00335   0.00063
  86        8D+2        0.00050  -0.00026   0.00030  -0.00092   0.00220
  87        8D-2       -0.00021   0.00046  -0.00053   0.00160   0.00007
  88        9D 0        0.00015   0.00083  -0.00276   0.00588   0.00131
  89        9D+1        0.00003   0.00174  -0.00048  -0.00512  -0.00327
  90        9D-1       -0.00076  -0.00101   0.00028   0.00297   0.00656
  91        9D+2        0.00008  -0.00054  -0.00019   0.00058  -0.00095
  92        9D-2        0.00108   0.00094   0.00032  -0.00101   0.00379
  93 4   H  1S          0.00241  -0.03389   0.02836  -0.00726  -0.02417
  94        2S          0.00237  -0.00325   0.02351   0.07751  -0.15472
  95        3S         -0.00030   0.02194   0.02110   0.06625  -0.09921
  96        4S         -0.00005   0.00016   0.00196   0.00707  -0.04255
  97        5PX        -0.00069   0.00187  -0.00214   0.00177  -0.00567
  98        5PY         0.00082   0.00108  -0.00124   0.00103  -0.00068
  99        5PZ        -0.00001  -0.00266  -0.00321   0.01426   0.00727
 100        6PX        -0.00160  -0.00477   0.00112  -0.00820   0.02764
 101        6PY         0.00335  -0.00275   0.00064  -0.00473   0.02292
 102        6PZ         0.00006  -0.00097  -0.01024   0.02801   0.00353
 103        7PX        -0.00096  -0.00958   0.00116  -0.01061   0.02683
 104        7PY         0.00267  -0.00553   0.00067  -0.00613   0.01407
 105        7PZ        -0.00016   0.00803   0.00317  -0.01399  -0.00318
 106        8D 0       -0.00002   0.00015  -0.00083   0.00064  -0.00152
 107        8D+1        0.00000   0.00017   0.00146  -0.00579  -0.00280
 108        8D-1       -0.00003   0.00010   0.00084  -0.00334   0.00005
 109        8D+2        0.00053  -0.00026   0.00030  -0.00092   0.00225
 110        8D-2       -0.00027  -0.00046   0.00053  -0.00160   0.00049
 111        9D 0        0.00001   0.00083  -0.00276   0.00588   0.00197
 112        9D+1        0.00057  -0.00174   0.00048   0.00513   0.00617
 113        9D-1       -0.00104  -0.00101   0.00028   0.00296   0.00765
 114        9D+2        0.00094  -0.00055  -0.00019   0.00058  -0.00201
 115        9D-2       -0.00061  -0.00095  -0.00032   0.00101  -0.00535
 116 5   Cl 1S          0.00000   0.01008   0.00058  -0.01664   0.00000
 117        2S          0.00000  -0.03848  -0.00196   0.05568   0.00000
 118        3S          0.00000   0.07938   0.01180  -0.15562   0.00000
 119        4S          0.00000   0.01224   0.00459  -0.03967   0.00000
 120        5S          0.00000   0.06791   0.01294  -0.04310   0.00000
 121        6S          0.00000   0.02054  -0.01198   0.01741   0.00000
 122        7PX        -0.10156   0.00000  -0.00004  -0.00003   0.00240
 123        7PY         0.19923   0.00003  -0.00009  -0.00007   0.02073
 124        7PZ        -0.00007   0.02881  -0.20998  -0.16283  -0.00001
 125        8PX         0.23227  -0.00001   0.00008   0.00006  -0.00373
 126        8PY        -0.45565  -0.00006   0.00020   0.00016  -0.03223
 127        8PZ         0.00016  -0.06697   0.46419   0.35838   0.00001
 128        9PX         0.11221   0.00000   0.00004   0.00004  -0.00399
 129        9PY        -0.22014  -0.00003   0.00009   0.00009  -0.03448
 130        9PZ         0.00008  -0.03331   0.21815   0.20583   0.00001
 131       10PX         0.16695  -0.00001   0.00006   0.00000   0.00196
 132       10PY        -0.32752  -0.00005   0.00014   0.00001   0.01695
 133       10PZ         0.00012  -0.07531   0.31741   0.02684  -0.00001
 134       11PX         0.02831   0.00000   0.00001   0.00000   0.00068
 135       11PY        -0.05553  -0.00001   0.00002   0.00000   0.00588
 136       11PZ         0.00002  -0.02442   0.04631   0.00672   0.00000
 137       12D 0        0.00000  -0.00454  -0.01222   0.06630   0.00004
 138       12D+1       -0.00012   0.00000   0.00000   0.00002  -0.00655
 139       12D-1        0.00023   0.00000  -0.00001   0.00005  -0.05668
 140       12D+2        0.00021   0.00000   0.00000   0.00000   0.00094
 141       12D-2       -0.00011   0.00000   0.00000   0.00000   0.00009
 142       13D 0        0.00000  -0.00727  -0.01923   0.09709   0.00006
 143       13D+1       -0.00033   0.00000  -0.00001   0.00003  -0.00981
 144       13D-1        0.00065  -0.00001  -0.00001   0.00007  -0.08483
 145       13D+2        0.00048   0.00000   0.00000   0.00000   0.00150
 146       13D-2       -0.00025   0.00000   0.00000   0.00000   0.00015
 147       14D 0        0.00000   0.00173  -0.01307   0.03047   0.00001
 148       14D+1       -0.00154   0.00000   0.00000   0.00001  -0.00108
 149       14D-1        0.00301   0.00000  -0.00001   0.00002  -0.00934
 150       14D+2        0.00005   0.00000   0.00000   0.00000   0.00028
 151       14D-2       -0.00003   0.00000   0.00000   0.00000   0.00003
 152       15F 0        0.00000   0.00094   0.00451  -0.00349  -0.00001
 153       15F+1        0.00063   0.00000   0.00000   0.00000   0.00056
 154       15F-1       -0.00124   0.00000   0.00000   0.00000   0.00482
 155       15F+2       -0.00009   0.00000   0.00000   0.00000  -0.00022
 156       15F-2        0.00005   0.00000   0.00000   0.00000  -0.00002
 157       15F+3        0.00000   0.00000   0.00000   0.00000   0.00000
 158       15F-3        0.00000  -0.00007   0.00004   0.00004   0.00000
 159       16F 0        0.00000   0.00130   0.00406   0.00132   0.00000
 160       16F+1        0.00082   0.00000   0.00000   0.00000   0.00004
 161       16F-1       -0.00161   0.00000   0.00000   0.00000   0.00031
 162       16F+2       -0.00018   0.00000   0.00000   0.00000   0.00093
[...]
  79        6PZ        -0.33614  -0.02588   0.00850  -0.16564  -0.07139
  80        7PX         1.00466  -9.48496  -2.69547  -1.74671  -4.44834
  81        7PY        -0.58960   2.06980 -10.07909   1.00909  -1.05267
  82        7PZ        -1.52384  -3.16219   0.93184  -0.00810  -0.35820
  83        8D 0       -0.03625   0.00951  -0.00272   0.02530   0.00824
  84        8D+1        0.01051  -0.02665  -0.01457   0.00865   0.00878
  85        8D-1       -0.00607   0.00150  -0.03905  -0.00495   0.00111
  86        8D+2        0.06476   0.02659   0.10079   0.02459   0.01357
  87        8D-2       -0.11206   0.02156   0.05642  -0.04262   0.02867
  88        9D 0       -0.50482   0.47388  -0.13867  -0.14909   0.12042
  89        9D+1       -0.22494  -0.10575   0.23515  -0.04265  -0.14591
  90        9D-1        0.12961   0.18738   0.29661   0.02410  -0.01343
  91        9D+2       -0.13049  -1.10194  -1.33064  -0.35899  -0.50457
  92        9D-2        0.22339   0.87982  -1.21145   0.62219  -0.14984
  93 4   H  1S         -0.03659  -0.00646  -0.00613  -0.00985   0.01464
  94        2S          0.23190   2.46504   2.35414  -0.49960  -1.22817
  95        3S          7.30531  20.13890  19.22430  -3.26929 -14.36191
  96        4S          1.55231  -1.37873  -1.31872  -1.96381  -6.17542
  97        5PX        -0.02802   0.10463   0.02755  -0.08051  -0.07795
  98        5PY        -0.01603  -0.02314   0.10337  -0.04647   0.00527
  99        5PZ         0.06011   0.00765   0.00719   0.03079   0.00545
 100        6PX        -0.56254  -2.00739  -0.90763   0.60408   0.84888
 101        6PY        -0.32642   0.00518  -1.74247   0.34867  -0.00891
 102        6PZ        -0.33595   0.01960   0.01972  -0.16584  -0.08904
 103        7PX        -1.00008  -9.66145  -1.96808   1.74674   5.03633
 104        7PY        -0.58969   2.79705  -9.90204   1.00864  -0.46264
 105        7PZ        -1.52508   2.38254   2.28162  -0.00863  -0.44716
 106        8D 0       -0.03624  -0.00720  -0.00680   0.02531   0.01025
 107        8D+1       -0.01054  -0.03035   0.00064  -0.00864  -0.01007
 108        8D-1       -0.00611   0.01660  -0.03535  -0.00496  -0.00005
 109        8D+2        0.06484  -0.06989   0.07728   0.02461   0.00980
 110        8D-2        0.11201   0.04518  -0.04022   0.04260  -0.03155
 111        9D 0       -0.50474  -0.35738  -0.34089  -0.14912   0.14945
 112        9D+1        0.22474   0.01345  -0.25733   0.04268   0.16838
 113        9D-1        0.12977  -0.30277   0.17684   0.02430   0.00612
 114        9D+2       -0.13127   1.59031  -0.67451  -0.35927  -0.48848
 115        9D-2       -0.22357   0.22346   1.48068  -0.62198   0.10665
 116 5   Cl 1S          0.02008   0.00001  -0.00002   0.01129   0.00000
 117        2S          0.27750   0.00014  -0.00025   0.15637   0.00000
 118        3S          0.77427   0.00039  -0.00068   0.44080   0.00000
 119        4S         -0.04156  -0.00002   0.00004  -0.01209   0.00000
 120        5S         -4.27964  -0.00215   0.00374  -2.91259   0.00001
 121        6S         -9.74125  -0.00467   0.00818 -12.99873  -0.00001
 122        7PX         0.00000   0.00060   0.00015   0.00000  -0.00018
 123        7PY         0.00000  -0.00014   0.00060  -0.00001  -0.00287
 124        7PZ        -0.00502   0.00000   0.00000  -0.02252   0.00000
 125        8PX        -0.00001   0.01571   0.00383  -0.00005  -0.00361
 126        8PY        -0.00002  -0.00383   0.01571  -0.00014  -0.05781
 127        8PZ        -0.07275  -0.00003   0.00004  -0.31562   0.00003
 128        9PX         0.00000  -0.00306  -0.00074   0.00001   0.00060
 129        9PY         0.00000   0.00074  -0.00306   0.00004   0.00958
 130        9PZ         0.00346   0.00000   0.00000   0.07901   0.00000
 131       10PX         0.00104  -0.06584  -0.01604   0.00088   0.02586
 132       10PY         0.00251   0.01604  -0.06582   0.00214   0.41391
 133       10PZ         5.85779   0.00288  -0.00499   4.96379  -0.00019
 134       11PX         0.00046  -1.11300  -0.27112   0.00058  -0.01546
 135       11PY        -0.00076   0.27112  -1.11295   0.00146  -0.24756
 136       11PZ         0.79223   0.00043  -0.00008   3.32006   0.00013
 137       12D 0        0.06841   0.00003  -0.00008   0.00083   0.00000
 138       12D+1        0.00001   0.02978   0.00726   0.00000  -0.00021
 139       12D-1        0.00008  -0.00725   0.02977   0.00000  -0.00325
 140       12D+2       -0.00001   0.00171  -0.00701   0.00000   0.01215
 141       12D-2        0.00000  -0.00699  -0.00169   0.00000   0.00075
 142       13D 0       -0.38448  -0.00018   0.00042  -0.06373  -0.00002
 143       13D+1       -0.00009  -0.10838  -0.02640  -0.00002   0.00152
 144       13D-1       -0.00040   0.02639  -0.10836  -0.00004   0.02422
 145       13D+2        0.00002  -0.00390   0.01594   0.00000  -0.04380
 146       13D-2       -0.00001   0.01585   0.00383   0.00000  -0.00271
 147       14D 0       -1.37985  -0.00071   0.00093  -1.21755   0.00024
 148       14D+1       -0.00050   0.29667   0.07228  -0.00037  -0.02003
 149       14D-1       -0.00074  -0.07224   0.29660  -0.00091  -0.31998
 150       14D+2       -0.00006   0.01512  -0.06193   0.00000   0.20018
 151       14D-2        0.00002  -0.06172  -0.01495   0.00000   0.01235
 152       15F 0       -0.04358  -0.00002   0.00003   0.00202   0.00002
 153       15F+1       -0.00002   0.00392   0.00096   0.00000  -0.00120
 154       15F-1       -0.00004  -0.00095   0.00391   0.00000  -0.01919
 155       15F+2        0.00000   0.00235  -0.00964  -0.00001   0.01035
 156       15F-2        0.00000  -0.00964  -0.00234  -0.00001   0.00064
 157       15F+3        0.00000   0.00000   0.00000   0.00001   0.00000
 158       15F-3       -0.00844  -0.00001   0.00000   0.02264   0.00001
 159       16F 0        0.23243   0.00012  -0.00018   0.08438  -0.00007
 160       16F+1        0.00011  -0.01421  -0.00347   0.00004   0.00403
 161       16F-1        0.00023   0.00343  -0.01415   0.00008   0.06420
 162       16F+2        0.00003  -0.01084   0.04454   0.00002  -0.04235
 163       16F-2       -0.00002   0.04454   0.01082   0.00001  -0.00261
 164       16F+3        0.00001  -0.00002   0.00001  -0.00002  -0.00001
 165       16F-3        0.01787   0.00001   0.00001  -0.04210  -0.00002
 166 6   F  1S          0.03997   0.00002  -0.00004  -0.02285   0.00000
 167        2S          0.14079   0.00007  -0.00013  -0.08672   0.00000
 168        3S         -0.07140  -0.00004   0.00006   0.03709   0.00000
 169        4S         -0.38824  -0.00021   0.00036  -0.01816   0.00001
 170        5S         -0.10414  -0.00002   0.00003  -5.93007   0.00001
 171        6PX         0.00000  -0.00706  -0.00172   0.00000   0.00011
 172        6PY        -0.00001   0.00172  -0.00706   0.00000   0.00168
 173        6PZ         0.00536   0.00000   0.00000   0.00221   0.00000
 174        7PX        -0.00002   0.03664   0.00893   0.00000  -0.00038
 175        7PY         0.00001  -0.00893   0.03664   0.00000  -0.00607
 176        7PZ        -0.06366  -0.00003   0.00004   0.00297   0.00000
 177        8PX         0.00018  -0.25750  -0.06272  -0.00004   0.00010
 178        8PY         0.00002   0.06272  -0.25748  -0.00012   0.00154
 179        8PZ         0.62144   0.00033  -0.00042  -0.25259   0.00001
 180        9PX         0.00008  -0.82457  -0.20086  -0.00043  -0.01414
 181        9PY        -0.00117   0.20086  -0.82453  -0.00113  -0.22644
 182        9PZ        -0.87725  -0.00035   0.00111  -2.49361   0.00010
 183       10D 0        0.01158   0.00001   0.00000  -0.00808   0.00000
 184       10D+1        0.00001  -0.01451  -0.00353   0.00000   0.00014
 185       10D-1       -0.00001   0.00353  -0.01450  -0.00001   0.00222
 186       10D+2        0.00001  -0.00114   0.00467   0.00000   0.00283
 187       10D-2        0.00000   0.00466   0.00113   0.00000   0.00018
 188       11D 0       -0.04287  -0.00003   0.00000   0.01607   0.00000
 189       11D+1       -0.00003   0.04666   0.01137   0.00000  -0.00024
 190       11D-1        0.00001  -0.01136   0.04665   0.00001  -0.00389
 191       11D+2       -0.00002   0.00384  -0.01578   0.00000  -0.01008
 192       11D-2        0.00001  -0.01573  -0.00382   0.00000  -0.00063
 193       12D 0        0.41791   0.00023  -0.00026  -0.01511   0.00003
 194       12D+1        0.00017  -0.13645  -0.03325   0.00000  -0.00195
 195       12D-1        0.00019   0.03321  -0.13638  -0.00002  -0.03121
 196       12D+2        0.00007  -0.01438   0.05905   0.00000   0.01915
 197       12D-2       -0.00002   0.05892   0.01431   0.00000   0.00118
 198       13F 0       -0.02742  -0.00001   0.00005  -0.00746  -0.00001
 199       13F+1       -0.00001  -0.01829  -0.00445   0.00000   0.00051
 200       13F-1       -0.00005   0.00446  -0.01830  -0.00001   0.00817
 201       13F+2       -0.00002   0.00216  -0.00891   0.00000   0.00276
 202       13F-2        0.00000  -0.00893  -0.00218   0.00000   0.00017
 203       13F+3        0.00000   0.00001   0.00000   0.00000   0.00000
 204       13F-3        0.01263   0.00000  -0.00001  -0.00129   0.00000
 205       14F 0        0.06835   0.00003  -0.00011   0.01126   0.00002
 206       14F+1        0.00002   0.03925   0.00956   0.00000  -0.00112
 207       14F-1        0.00011  -0.00958   0.03929   0.00001  -0.01801
 208       14F+2        0.00003  -0.00597   0.02460   0.00000  -0.00664
 209       14F-2        0.00000   0.02465   0.00601   0.00000  -0.00042
 210       14F+3       -0.00001  -0.00002   0.00000   0.00000   0.00000
 211       14F-3       -0.01693  -0.00001   0.00003   0.00248   0.00000
                         211
     Eigenvalues --     0.00000
   1 1   C  1S          0.00000
   2        2S          0.00000
   3        3S          0.00000
   4        4S         -0.00001
   5        5S          0.00003
   6        6PX         0.00747
   7        6PY        -0.00047
   8        6PZ         0.00000
   9        7PX        -1.53069
  10        7PY         0.09561
  11        7PZ         0.00023
  12        8PX       -17.33641
  13        8PY         1.08293
  14        8PZ         0.00261
  15        9PX        -7.86283
  16        9PY         0.49117
  17        9PZ         0.00118
  18       10D 0        0.00000
  19       10D+1        0.00129
  20       10D-1       -0.00008
  21       10D+2        0.00134
  22       10D-2       -0.02153
  23       11D 0       -0.00006
  24       11D+1        0.21444
  25       11D-1       -0.01330
  26       11D+2        0.02558
  27       11D-2       -0.41134
  28       12D 0       -0.00036
  29       12D+1        1.28175
  30       12D-1       -0.08020
  31       12D+2       -0.03564
  32       12D-2        0.57895
  33       13F 0        0.00001
  34       13F+1       -0.03930
  35       13F-1        0.00246
  36       13F+2        0.00055
  37       13F-2       -0.00905
  38       13F+3        0.00001
  39       13F-3        0.00000
  40       14F 0       -0.00015
  41       14F+1        0.40674
  42       14F-1       -0.02544
  43       14F+2       -0.00490
  44       14F-2        0.08132
  45       14F+3       -0.00005
  46       14F-3        0.00001
  47 2   H  1S         -0.00165
  48        2S          0.13820
  49        3S          1.61602
  50        4S          0.69490
  51        5PX        -0.05214
  52        5PY        -0.00729
  53        5PZ        -0.00060
  54        6PX         0.51751
  55        6PY         0.08216
  56        6PZ         0.00988
  57        7PX         3.49535
  58        7PY         0.46438
  59        7PZ         0.04943
  60        8D 0       -0.00115
  61        8D+1       -0.00596
  62        8D-1       -0.00098
  63        8D+2       -0.00253
  64        8D-2       -0.02907
  65        9D 0       -0.01686
  66        9D+1        0.09406
  67        9D-1        0.01662
  68        9D+2       -0.01696
  69        9D-2        0.57057
  70 3   H  1S          0.02370
  71        2S         -1.98899
  72        3S        -23.25922
  73        4S        -10.00123
  74        5PX         0.07937
  75        5PY        -0.07268
  76        5PZ         0.00882
  77        6PX        -0.90943
  78        6PY         0.79168
  79        6PZ        -0.14414
  80        7PX        -5.01361
  81        7PY         4.69532
  82        7PZ        -0.72424
  83        8D 0        0.01660
  84        8D+1        0.01098
  85        8D-1       -0.00942
  86        8D+2       -0.02936
  87        8D-2        0.02496
  88        9D 0        0.24204
  89        9D+1       -0.18784
  90        9D-1        0.15716
  91        9D+2        0.09722
  92        9D-2        0.34043
  93 4   H  1S         -0.02206
  94        2S          1.85082
  95        3S         21.64314
  96        4S          9.30631
  97        5PX         0.07024
  98        5PY         0.07389
  99        5PZ        -0.00824
 100        6PX        -0.81044
 101        6PY        -0.79874
 102        6PZ         0.13445
 103        7PX        -4.42332
 104        7PY        -4.78857
 105        7PZ         0.67572
 106        8D 0       -0.01545
 107        8D+1        0.00978
 108        8D-1        0.00947
 109        8D+2        0.03083
 110        8D-2        0.02120
 111        9D 0       -0.22511
 112        9D+1       -0.16838
 113        9D-1       -0.15770
 114        9D+2       -0.15901
 115        9D-2        0.35643
 116 5   Cl 1S          0.00000
 117        2S          0.00000
 118        3S          0.00000
 119        4S          0.00000
 120        5S          0.00001
 121        6S          0.00002
 122        7PX         0.00287
 123        7PY        -0.00018
 124        7PZ         0.00000
 125        8PX         0.05781
 126        8PY        -0.00361
 127        8PZ        -0.00001
 128        9PX        -0.00957
 129        9PY         0.00060
 130        9PZ         0.00000
 131       10PX        -0.41391
 132       10PY         0.02585
 133       10PZ         0.00005
 134       11PX         0.24755
 135       11PY        -0.01546
 136       11PZ        -0.00004
 137       12D 0        0.00000
 138       12D+1        0.00326
 139       12D-1       -0.00020
 140       12D+2        0.00076
 141       12D-2       -0.01215
 142       13D 0        0.00001
 143       13D+1       -0.02426
 144       13D-1        0.00151
 145       13D+2       -0.00272
 146       13D-2        0.04379
 147       14D 0       -0.00008
 148       14D+1        0.32015
 149       14D-1       -0.01995
 150       14D+2        0.01249
 151       14D-2       -0.19991
 152       15F 0       -0.00001
 153       15F+1        0.01920
 154       15F-1       -0.00120
 155       15F+2        0.00065
 156       15F-2       -0.01032
 157       15F+3        0.00001
 158       15F-3        0.00000
 159       16F 0        0.00002
 160       16F+1       -0.06426
 161       16F-1        0.00400
 162       16F+2       -0.00265
 163       16F-2        0.04227
 164       16F+3       -0.00002
 165       16F-3        0.00001
 166 6   F  1S          0.00000
 167        2S          0.00000
 168        3S          0.00000
 169        4S          0.00000
 170        5S          0.00001
 171        6PX        -0.00168
 172        6PY         0.00010
 173        6PZ         0.00000
 174        7PX         0.00607
 175        7PY        -0.00038
 176        7PZ         0.00000
 177        8PX        -0.00154
 178        8PY         0.00010
 179        8PZ         0.00000
 180        9PX         0.22644
 181        9PY        -0.01415
 182        9PZ        -0.00003
 183       10D 0        0.00000
 184       10D+1       -0.00222
 185       10D-1        0.00014
 186       10D+2        0.00018
 187       10D-2       -0.00284
 188       11D 0        0.00000
 189       11D+1        0.00389
 190       11D-1       -0.00025
 191       11D+2       -0.00062
 192       11D-2        0.01008
 193       12D 0       -0.00001
 194       12D+1        0.03122
 195       12D-1       -0.00195
 196       12D+2        0.00119
 197       12D-2       -0.01912
 198       13F 0        0.00000
 199       13F+1       -0.00817
 200       13F-1        0.00051
 201       13F+2        0.00017
 202       13F-2       -0.00277
 203       13F+3        0.00000
 204       13F-3        0.00000
 205       14F 0       -0.00001
 206       14F+1        0.01800
 207       14F-1       -0.00113
 208       14F+2       -0.00041
 209       14F-2        0.00666
 210       14F+3        0.00000
 211       14F-3        0.00000
          Condensed to atoms (all electrons):
              1          2          3          4          5          6
     1  C    6.995940  -0.005308  -0.005312  -0.005312  -0.045334  -0.098536
     2  H   -0.005308   0.543355   0.019369   0.019369  -0.018881   0.004503
     3  H   -0.005312   0.019369   0.543358   0.019370  -0.018879   0.004508
     4  H   -0.005312   0.019369   0.019370   0.543357  -0.018879   0.004507
     5  Cl  -0.045334  -0.018881  -0.018879  -0.018879  17.707510   0.026070
     6  F   -0.098536   0.004503   0.004508   0.004507   0.026070   9.903969
 Mulliken atomic charges:
              1
     1  C   -0.836138
     2  H    0.437592
     3  H    0.437586
     4  H    0.437589
     5  Cl  -0.631607
     6  F   -0.845022
 Sum of Mulliken atomic charges =  -1.00000
 Mulliken charges with hydrogens summed into heavy atoms:
              1
     1  C    0.476629
     5  Cl  -0.631607
     6  F   -0.845022
 Sum of Mulliken charges with hydrogens summed into heavy atoms =  -1.00000
 Electronic spatial extent (au):  <R**2>=            492.3650
 Charge=             -1.0000 electrons
 Dipole moment (field-independent basis, Debye):
    X=             -0.0006    Y=              0.0007    Z=              3.9756  Tot=              3.9756
 Quadrupole moment (field-independent basis, Debye-Ang):
   XX=            -28.1900   YY=            -28.1900   ZZ=            -62.8687
   XY=              0.0000   XZ=             -0.0050   YZ=             -0.0145
 Traceless Quadrupole moment (field-independent basis, Debye-Ang):
   XX=             11.5596   YY=             11.5596   ZZ=            -23.1191
   XY=              0.0000   XZ=             -0.0050   YZ=             -0.0145
 Octapole moment (field-independent basis, Debye-Ang**2):
  XXX=             -0.0244  YYY=             -0.9772  ZZZ=             48.5284  XYY=             -0.0086
  XXY=              0.9430  XXZ=             -4.4427  XZZ=             -0.0067  YZZ=              0.0108
  YYZ=             -4.4419  XYZ=             -0.0002
 Hexadecapole moment (field-independent basis, Debye-Ang**3):
 XXXX=            -41.2986 YYYY=            -41.2985 ZZZZ=           -764.3353 XXXY=              0.0004
 XXXZ=             -0.0510 YYYX=             -0.0002 YYYZ=              0.5169 ZZZX=             -0.0661
 ZZZY=             -0.1894 XXYY=            -13.7663 XXZZ=           -103.8670 YYZZ=           -103.8681
 XXYZ=             -0.6805 YYXZ=             -0.0167 ZZXY=              0.0002
 N-N= 8.478328630010D+01 E-N=-1.603770287088D+03  KE= 5.991894597679D+02
 1\1\GINC-TRAPISTA\SP\RQCISD-FC\Aug-CC-pVTZ\C1H3Cl1F1(1-)\BRUNS\11-Aug-
 2021\0\\# QCISD aug-cc-pvtz nosymm density=current output=wfn\\title l
 ine\\-1,1\C,0,0.000175,0.000029,-0.497709\H,0,0.000019,-1.05257,-0.620
 726\H,0,-0.911312,0.526365,-0.621245\H,0,0.91175,0.526132,-0.62157\Cl,
 0,0.000555,0.000962,1.654718\F,0,-0.000186,-0.000921,-2.59346\\Version
 =EM64L-G09RevB.01\HF=-598.6171154\MP2=-599.2910326\MP3=-599.309751\MP4
 D=-599.3246544\MP4DQ=-599.310213\MP4SDQ=-599.3196291\QCISD=-599.319030
 3\RMSD=9.562e-09\Dipole=0.0002673,0.0007133,1.5608435\Quadrupole=8.594
 26,8.5942591,-17.1885191,-0.0000022,-0.0037098,-0.0107631\PG=C01 [X(C1
 H3Cl1F1)]\\@

 Writing a WFN file to GAUSSIAN+ZCl_5.wfn.


 AND ALL THIS SCIENCE I DON'T UNDERSTAND
 IT'S JUST MY JOB FIVE DAYS A WEEK

                           -- ELTON JOHN, "ROCKET MAN"
 Job cpu time:  0 days  3 hours 23 minutes 51.3 seconds.
 File lengths (MBytes):  RWF=  29002 Int=      0 D2E=      0 Chk=      4 Scr=      1
 Normal termination of Gaussian 09 at Wed Aug 11 00:29:09 2021.
