 title line
GAUSSIAN            211 MOL ORBITALS    339 PRIMITIVES        6 NUCLEI
  C    1    (CENTRE  1)   0.00033070  0.00005480 -0.94053370  CHARGE =  6.0
  H    2    (CENTRE  2)   0.00003590 -1.98906904 -1.17300214  CHARGE =  1.0
  H    3    (CENTRE  3)  -1.72213010  0.99468570 -1.15508565  CHARGE =  1.0
  H    4    (CENTRE  4)   1.72295780  0.99424539 -1.17459707  CHARGE =  1.0
  Cl   5    (CENTRE  5)   0.00104880  0.00181792  3.10806659  CHARGE = 17.0
  F    6    (CENTRE  6)  -0.00035149 -0.00174044 -4.90092914  CHARGE =  9.0
CENTRE ASSIGNMENTS    1  1  1  1  1  1  1  1  1  1  1  1  1  1  1  1  1  1  1  1
CENTRE ASSIGNMENTS    1  1  1  1  1  1  1  1  1  1  1  1  1  1  1  1  1  1  1  1
CENTRE ASSIGNMENTS    1  1  1  1  1  1  1  1  1  1  1  1  1  1  1  1  1  1  1  1
CENTRE ASSIGNMENTS    1  1  1  1  1  1  1  1  1  1  1  1  2  2  2  2  2  2  2  2
CENTRE ASSIGNMENTS    2  2  2  2  2  2  2  2  2  2  2  2  2  2  2  2  2  2  2  3
CENTRE ASSIGNMENTS    3  3  3  3  3  3  3  3  3  3  3  3  3  3  3  3  3  3  3  3
CENTRE ASSIGNMENTS    3  3  3  3  3  3  4  4  4  4  4  4  4  4  4  4  4  4  4  4
CENTRE ASSIGNMENTS    4  4  4  4  4  4  4  4  4  4  4  4  4  5  5  5  5  5  5  5
CENTRE ASSIGNMENTS    5  5  5  5  5  5  5  5  5  5  5  5  5  5  5  5  5  5  5  5
CENTRE ASSIGNMENTS    5  5  5  5  5  5  5  5  5  5  5  5  5  5  5  5  5  5  5  5
CENTRE ASSIGNMENTS    5  5  5  5  5  5  5  5  5  5  5  5  5  5  5  5  5  5  5  5
CENTRE ASSIGNMENTS    5  5  5  5  5  5  5  5  5  5  5  5  5  5  5  5  5  5  5  5
CENTRE ASSIGNMENTS    5  5  5  5  5  5  5  5  5  5  5  5  5  5  5  5  5  5  5  5
CENTRE ASSIGNMENTS    5  5  5  5  5  5  5  6  6  6  6  6  6  6  6  6  6  6  6  6
CENTRE ASSIGNMENTS    6  6  6  6  6  6  6  6  6  6  6  6  6  6  6  6  6  6  6  6
CENTRE ASSIGNMENTS    6  6  6  6  6  6  6  6  6  6  6  6  6  6  6  6  6  6  6  6
CENTRE ASSIGNMENTS    6  6  6  6  6  6  6  6  6  6  6  6  6  6  6  6  6  6  6
TYPE ASSIGNMENTS      1  1  1  1  1  1  1  1  1  1  1  1  1  1  1  1  2  2  2  3
TYPE ASSIGNMENTS      3  3  4  4  4  2  3  4  2  3  4  2  3  4  5  6  7  8  9 10
TYPE ASSIGNMENTS      5  6  7  8  9 10  5  6  7  8  9 10 11 12 13 17 14 15 18 19
TYPE ASSIGNMENTS     16 20 11 12 13 17 14 15 18 19 16 20  1  1  1  1  1  1  2  3
TYPE ASSIGNMENTS      4  2  3  4  2  3  4  5  6  7  8  9 10  5  6  7  8  9 10  1
TYPE ASSIGNMENTS      1  1  1  1  1  2  3  4  2  3  4  2  3  4  5  6  7  8  9 10
TYPE ASSIGNMENTS      5  6  7  8  9 10  1  1  1  1  1  1  2  3  4  2  3  4  2  3
TYPE ASSIGNMENTS      4  5  6  7  8  9 10  5  6  7  8  9 10  1  1  1  1  1  1  1
TYPE ASSIGNMENTS      1  1  1  1  1  1  1  1  1  1  1  1  1  1  1  1  1  1  1  1
TYPE ASSIGNMENTS      1  1  1  1  2  2  2  2  2  2  3  3  3  3  3  3  4  4  4  4
TYPE ASSIGNMENTS      4  4  2  2  2  2  2  2  3  3  3  3  3  3  4  4  4  4  4  4
TYPE ASSIGNMENTS      2  3  4  2  3  4  2  3  4  5  6  7  8  9 10  5  6  7  8  9
TYPE ASSIGNMENTS     10  5  6  7  8  9 10 11 12 13 17 14 15 18 19 16 20 11 12 13
TYPE ASSIGNMENTS     17 14 15 18 19 16 20  1  1  1  1  1  1  1  1  1  1  1  1  1
TYPE ASSIGNMENTS      1  1  1  2  2  2  3  3  3  4  4  4  2  3  4  2  3  4  2  3
TYPE ASSIGNMENTS      4  5  6  7  8  9 10  5  6  7  8  9 10  5  6  7  8  9 10 11
TYPE ASSIGNMENTS     12 13 17 14 15 18 19 16 20 11 12 13 17 14 15 18 19 16 20
EXPONENTS  0.8236000D+04 0.1235000D+04 0.2808000D+03 0.7927000D+02 0.2559000D+02
EXPONENTS  0.8997000D+01 0.3319000D+01 0.2808000D+03 0.7927000D+02 0.2559000D+02
EXPONENTS  0.8997000D+01 0.3319000D+01 0.3643000D+00 0.9059000D+00 0.1285000D+00
EXPONENTS  0.4402000D-01 0.1871000D+02 0.4133000D+01 0.1200000D+01 0.1871000D+02
EXPONENTS  0.4133000D+01 0.1200000D+01 0.1871000D+02 0.4133000D+01 0.1200000D+01
EXPONENTS  0.3827000D+00 0.3827000D+00 0.3827000D+00 0.1209000D+00 0.1209000D+00
EXPONENTS  0.1209000D+00 0.3569000D-01 0.3569000D-01 0.3569000D-01 0.1097000D+01
EXPONENTS  0.1097000D+01 0.1097000D+01 0.1097000D+01 0.1097000D+01 0.1097000D+01
EXPONENTS  0.3180000D+00 0.3180000D+00 0.3180000D+00 0.3180000D+00 0.3180000D+00
EXPONENTS  0.3180000D+00 0.1000000D+00 0.1000000D+00 0.1000000D+00 0.1000000D+00
EXPONENTS  0.1000000D+00 0.1000000D+00 0.7610000D+00 0.7610000D+00 0.7610000D+00
EXPONENTS  0.7610000D+00 0.7610000D+00 0.7610000D+00 0.7610000D+00 0.7610000D+00
EXPONENTS  0.7610000D+00 0.7610000D+00 0.2680000D+00 0.2680000D+00 0.2680000D+00
EXPONENTS  0.2680000D+00 0.2680000D+00 0.2680000D+00 0.2680000D+00 0.2680000D+00
EXPONENTS  0.2680000D+00 0.2680000D+00 0.3387000D+02 0.5095000D+01 0.1159000D+01
EXPONENTS  0.3258000D+00 0.1027000D+00 0.2526000D-01 0.1407000D+01 0.1407000D+01
EXPONENTS  0.1407000D+01 0.3880000D+00 0.3880000D+00 0.3880000D+00 0.1020000D+00
EXPONENTS  0.1020000D+00 0.1020000D+00 0.1057000D+01 0.1057000D+01 0.1057000D+01
EXPONENTS  0.1057000D+01 0.1057000D+01 0.1057000D+01 0.2470000D+00 0.2470000D+00
EXPONENTS  0.2470000D+00 0.2470000D+00 0.2470000D+00 0.2470000D+00 0.3387000D+02
EXPONENTS  0.5095000D+01 0.1159000D+01 0.3258000D+00 0.1027000D+00 0.2526000D-01
EXPONENTS  0.1407000D+01 0.1407000D+01 0.1407000D+01 0.3880000D+00 0.3880000D+00
EXPONENTS  0.3880000D+00 0.1020000D+00 0.1020000D+00 0.1020000D+00 0.1057000D+01
EXPONENTS  0.1057000D+01 0.1057000D+01 0.1057000D+01 0.1057000D+01 0.1057000D+01
EXPONENTS  0.2470000D+00 0.2470000D+00 0.2470000D+00 0.2470000D+00 0.2470000D+00
EXPONENTS  0.2470000D+00 0.3387000D+02 0.5095000D+01 0.1159000D+01 0.3258000D+00
EXPONENTS  0.1027000D+00 0.2526000D-01 0.1407000D+01 0.1407000D+01 0.1407000D+01
EXPONENTS  0.3880000D+00 0.3880000D+00 0.3880000D+00 0.1020000D+00 0.1020000D+00
EXPONENTS  0.1020000D+00 0.1057000D+01 0.1057000D+01 0.1057000D+01 0.1057000D+01
EXPONENTS  0.1057000D+01 0.1057000D+01 0.2470000D+00 0.2470000D+00 0.2470000D+00
EXPONENTS  0.2470000D+00 0.2470000D+00 0.2470000D+00 0.4561000D+06 0.6833000D+05
EXPONENTS  0.1555000D+05 0.4405000D+04 0.1439000D+04 0.5204000D+03 0.2031000D+03
EXPONENTS  0.8396000D+02 0.3620000D+02 0.1583000D+02 0.6334000D+01 0.4405000D+04
EXPONENTS  0.1439000D+04 0.5204000D+03 0.2031000D+03 0.8396000D+02 0.3620000D+02
EXPONENTS  0.1583000D+02 0.6334000D+01 0.2694000D+01 0.1439000D+04 0.2031000D+03
EXPONENTS  0.8396000D+02 0.3620000D+02 0.1583000D+02 0.6334000D+01 0.2694000D+01
EXPONENTS  0.4313000D+00 0.9768000D+00 0.1625000D+00 0.5910000D-01 0.6633000D+03
EXPONENTS  0.1568000D+03 0.4998000D+02 0.1842000D+02 0.7240000D+01 0.2922000D+01
EXPONENTS  0.6633000D+03 0.1568000D+03 0.4998000D+02 0.1842000D+02 0.7240000D+01
EXPONENTS  0.2922000D+01 0.6633000D+03 0.1568000D+03 0.4998000D+02 0.1842000D+02
EXPONENTS  0.7240000D+01 0.2922000D+01 0.1568000D+03 0.4998000D+02 0.1842000D+02
EXPONENTS  0.7240000D+01 0.2922000D+01 0.3818000D+00 0.1568000D+03 0.4998000D+02
EXPONENTS  0.1842000D+02 0.7240000D+01 0.2922000D+01 0.3818000D+00 0.1568000D+03
EXPONENTS  0.4998000D+02 0.1842000D+02 0.7240000D+01 0.2922000D+01 0.3818000D+00
EXPONENTS  0.1022000D+01 0.1022000D+01 0.1022000D+01 0.1301000D+00 0.1301000D+00
EXPONENTS  0.1301000D+00 0.4190000D-01 0.4190000D-01 0.4190000D-01 0.1046000D+01
EXPONENTS  0.1046000D+01 0.1046000D+01 0.1046000D+01 0.1046000D+01 0.1046000D+01
EXPONENTS  0.3440000D+00 0.3440000D+00 0.3440000D+00 0.3440000D+00 0.3440000D+00
EXPONENTS  0.3440000D+00 0.1350000D+00 0.1350000D+00 0.1350000D+00 0.1350000D+00
EXPONENTS  0.1350000D+00 0.1350000D+00 0.7060000D+00 0.7060000D+00 0.7060000D+00
EXPONENTS  0.7060000D+00 0.7060000D+00 0.7060000D+00 0.7060000D+00 0.7060000D+00
EXPONENTS  0.7060000D+00 0.7060000D+00 0.3120000D+00 0.3120000D+00 0.3120000D+00
EXPONENTS  0.3120000D+00 0.3120000D+00 0.3120000D+00 0.3120000D+00 0.3120000D+00
EXPONENTS  0.3120000D+00 0.3120000D+00 0.1950000D+05 0.2923000D+04 0.6645000D+03
EXPONENTS  0.1875000D+03 0.6062000D+02 0.2142000D+02 0.7950000D+01 0.6645000D+03
EXPONENTS  0.1875000D+03 0.6062000D+02 0.2142000D+02 0.7950000D+01 0.8815000D+00
EXPONENTS  0.2257000D+01 0.3041000D+00 0.9158000D-01 0.4388000D+02 0.9926000D+01
EXPONENTS  0.2930000D+01 0.4388000D+02 0.9926000D+01 0.2930000D+01 0.4388000D+02
EXPONENTS  0.9926000D+01 0.2930000D+01 0.9132000D+00 0.9132000D+00 0.9132000D+00
EXPONENTS  0.2672000D+00 0.2672000D+00 0.2672000D+00 0.7361000D-01 0.7361000D-01
EXPONENTS  0.7361000D-01 0.3107000D+01 0.3107000D+01 0.3107000D+01 0.3107000D+01
EXPONENTS  0.3107000D+01 0.3107000D+01 0.8550000D+00 0.8550000D+00 0.8550000D+00
EXPONENTS  0.8550000D+00 0.8550000D+00 0.8550000D+00 0.2920000D+00 0.2920000D+00
EXPONENTS  0.2920000D+00 0.2920000D+00 0.2920000D+00 0.2920000D+00 0.1917000D+01
EXPONENTS  0.1917000D+01 0.1917000D+01 0.1917000D+01 0.1917000D+01 0.1917000D+01
EXPONENTS  0.1917000D+01 0.1917000D+01 0.1917000D+01 0.1917000D+01 0.7240000D+00
EXPONENTS  0.7240000D+00 0.7240000D+00 0.7240000D+00 0.7240000D+00 0.7240000D+00
EXPONENTS  0.7240000D+00 0.7240000D+00 0.7240000D+00 0.7240000D+00
MO    1     MO 0.0        OCC NO =    2.0000300  ORB. ENERGY =    0.000000
  0.56464018D-04  0.10526030D-03  0.17790425D-03  0.26742328D-03  0.32848160D-03
  0.27722688D-03  0.10424455D-03 -0.16449461D-07 -0.12294953D-06 -0.45949048D-06
 -0.12819069D-05 -0.17174018D-05  0.20279313D-05  0.84508961D-05 -0.31172359D-04
 -0.98110746D-06  0.99082816D-04  0.92896438D-04  0.66147798D-04 -0.57244496D-04
 -0.53670354D-04 -0.38216489D-04  0.61250079D-05  0.57425842D-05  0.40890620D-05
  0.31748992D-03 -0.18343960D-03  0.11930699D-05  0.40459342D-03 -0.23377348D-03
 -0.69874271D-05  0.79921117D-05 -0.46177887D-05 -0.33082377D-07 -0.31935849D-04
  0.31250534D-04  0.68531497D-06  0.10898168D-03 -0.44040074D-03  0.25439884D-03
 -0.99194525D-04  0.97617634D-04  0.15768917D-05  0.34102204D-03  0.90658362D-04
 -0.52590772D-04 -0.20919420D-04  0.20872044D-04  0.47376690D-07  0.72331408D-04
 -0.56118094D-04  0.32379526D-04  0.80352370D-04 -0.46252773D-04  0.14546170D-05
  0.80375882D-04 -0.46936519D-04 -0.15895278D-04 -0.32143299D-03  0.18569484D-03
  0.11531427D-04  0.46640179D-04 -0.23405353D-04  0.14478991D-04 -0.67291658D-06
 -0.23355730D-04  0.10683727D-04 -0.24789913D-04  0.93571789D-04 -0.54120699D-04
  0.26808662D-04  0.89639821D-04  0.20035623D-04  0.36135072D-04  0.53281143D-04
 -0.17494363D-03 -0.56300441D-03  0.62896170D-05  0.35082204D-05 -0.35518093D-04
 -0.11763337D-04  0.74428590D-04 -0.14332914D-03 -0.13706392D-03  0.66919484D-04
 -0.86144070D-04 -0.11366983D-04  0.54742445D-04 -0.21408960D-04 -0.33333485D-04
  0.27466571D-04 -0.39092725D-04 -0.14968202D-03  0.21779178D-04  0.58257403D-05
 -0.27604918D-04  0.25919972D-04  0.53221705D-04 -0.16059007D-04 -0.38971371D-04
 -0.70286473D-04 -0.10363736D-03  0.38659528D-03  0.11390963D-02 -0.12425377D-04
  0.65190130D-04 -0.37634820D-04  0.26766972D-04  0.25379773D-03 -0.14644279D-03
  0.27729367D-03  0.15089192D-03 -0.87148606D-04  0.23245828D-04  0.36915162D-05
 -0.72901899D-04  0.69210383D-04 -0.13247441D-03  0.25865765D-03 -0.14917055D-03
 -0.20022383D-04 -0.35906409D-04  0.55928792D-04 -0.27510691D-04  0.27396439D-04
 -0.15727951D-04  0.20021152D-04  0.36108971D-04  0.53242657D-04 -0.17481598D-03
 -0.56259721D-03  0.62847475D-05  0.32491963D-04  0.14691586D-04 -0.11783819D-04
  0.16120142D-03  0.69896818D-05 -0.13704324D-03  0.10800727D-03 -0.14963973D-04
 -0.11395329D-04 -0.14228569D-04  0.47676692D-04 -0.33448123D-04 -0.51998280D-04
  0.11002921D-03  0.10851721D-03 -0.14004775D-05  0.28973856D-04 -0.27573379D-04
 -0.81282279D-06  0.40481450D-04 -0.38179504D-04 -0.48592250D-05 -0.90910914D-05
 -0.15707389D-04 -0.25463524D-04 -0.38668804D-04 -0.53746000D-04 -0.63899876D-04
 -0.56924230D-04 -0.28269776D-04 -0.45511948D-05 -0.48017793D-07 -0.19598324D-07
 -0.65376727D-06 -0.22782480D-05 -0.82043401D-05 -0.18085447D-04 -0.25458472D-04
  0.12144521D-05  0.33316832D-04  0.19700034D-04 -0.40612895D-08 -0.49192134D-07
 -0.10258501D-06 -0.29419594D-06 -0.15277186D-07  0.12687156D-05  0.32781174D-05
 -0.26708558D-05  0.27487600D-06  0.60177002D-05 -0.24010921D-06  0.10053189D+02
  0.13242402D+02  0.14608442D+02  0.12133455D+02  0.64432012D+01  0.16623796D+01
 -0.58087317D+01 -0.76514585D+01 -0.84407565D+01 -0.70107092D+01 -0.37228811D+01
 -0.96052279D+00  0.26686644D-01  0.35152553D-01  0.38778769D-01  0.32208804D-01
  0.17103769D-01  0.44128617D-02 -0.39788699D-03  0.38465154D-02  0.54239883D-02
  0.77577381D-02 -0.39284094D-04 -0.71145775D-02  0.22989880D-03 -0.22225137D-02
 -0.31339763D-02 -0.44824152D-02  0.22698320D-04  0.41107975D-02 -0.12938634D-05
  0.12508239D-04  0.17637922D-04  0.25226894D-04 -0.12774544D-06 -0.23135441D-04
  0.66375640D-01 -0.38351833D-01  0.18239149D-03 -0.55729093D-03  0.32200245D-03
 -0.34088554D-05 -0.50224958D-04  0.29020064D-04 -0.39462781D-07 -0.41742311D-05
  0.78743054D-05 -0.37000743D-05  0.19955834D-04 -0.84913771D-03  0.49061105D-03
  0.12674696D-05 -0.33538909D-05  0.20864213D-05 -0.76725640D-05  0.30935187D-03
 -0.17873327D-03 -0.76100906D-06  0.58634418D-06  0.17466488D-06  0.22766404D-05
 -0.52850440D-04  0.30535441D-04  0.22784774D-05 -0.14885834D-05  0.80650766D-07
  0.23117104D-05 -0.77981526D-06 -0.18160893D-04 -0.91471427D-05  0.52455656D-05
  0.17918941D-04  0.62471775D-04  0.12736654D-04 -0.73051873D-05 -0.30712881D-06
  0.12729888D-04 -0.75241165D-05  0.41384892D-05 -0.50939850D-04  0.29439678D-04
 -0.32171027D-05 -0.12877599D-04 -0.30475443D-05 -0.56806278D-05 -0.96299298D-05
 -0.14581016D-04 -0.18229481D-04 -0.15680623D-04 -0.60138564D-05 -0.41990132D-08
 -0.55587072D-07 -0.20190236D-06 -0.59893954D-06 -0.69015685D-06  0.83829829D-06
 -0.21251000D-06 -0.14924422D-05  0.86409651D-06 -0.25120561D-03 -0.24567360D-03
 -0.16232694D-03  0.14515693D-03  0.14196031D-03  0.93799178D-04  0.16250018D-04
  0.15892162D-04  0.10500624D-04 -0.61714858D-05  0.35716025D-05  0.28197054D-05
 -0.58481036D-04  0.33787166D-04  0.89992888D-07 -0.16958098D-04  0.97984648D-05
  0.23387504D-06 -0.35109862D-04  0.34314407D-04  0.79545563D-06  0.12012635D-03
 -0.11607424D-03  0.66993070D-04  0.17675197D-04 -0.17202261D-04 -0.47293566D-06
 -0.60315106D-04  0.88930895D-04 -0.51346248D-04 -0.87484260D-05  0.89718447D-05
 -0.22341873D-06  0.30622149D-04 -0.64778217D-04  0.37406341D-04 -0.61837605D-04
  0.36094193D-04  0.79313069D-06 -0.62022606D-04  0.34521283D-04  0.93279624D-04
  0.24753542D-03 -0.14280386D-03 -0.95659016D-04 -0.32658039D-03  0.21980930D-04
 -0.12817352D-04 -0.39423407D-06  0.22039530D-04 -0.12312459D-04 -0.29388715D-04
 -0.87982319D-04  0.50764516D-04  0.30571417D-04  0.10361452D-03
MO    2     MO 0.0        OCC NO =    2.0000300  ORB. ENERGY =    0.000000
  0.21723443D-08  0.40496874D-08  0.68445234D-08  0.10288595D-07  0.12637696D-07
  0.10665770D-07  0.40106080D-08 -0.17872010D-10 -0.13358220D-09 -0.49922718D-09
 -0.13927661D-08 -0.18659226D-08  0.22033066D-08  0.30808958D-08 -0.16105943D-07
 -0.57224773D-08  0.55232152D-04  0.51783653D-04  0.36873046D-04  0.95585966D-04
  0.89617919D-04  0.63813297D-04 -0.45403333D-07 -0.42568511D-07 -0.30311316D-07
  0.18289186D-03  0.31652069D-03 -0.17429282D-06  0.23301314D-03  0.40326706D-03
 -0.20980446D-06  0.46324983D-05  0.80173141D-05 -0.42416225D-08  0.55195334D-04
 -0.55434607D-04  0.23927310D-06  0.63594334D-04 -0.25509140D-03 -0.44136977D-03
  0.17013554D-03 -0.17009348D-03 -0.42060958D-07  0.19646846D-03  0.48295330D-04
  0.83948314D-04  0.36110022D-04 -0.36139201D-04  0.29179442D-07  0.41674001D-04
 -0.33061321D-04 -0.57140280D-04  0.46435647D-04  0.80076267D-04  0.17036596D-06
  0.45811704D-04  0.80098518D-04  0.22278124D-04 -0.18511864D-03 -0.32032732D-03
 -0.22789222D-04  0.25517660D-04 -0.13206635D-04 -0.23055799D-04 -0.48367159D-07
 -0.13592859D-04 -0.23014438D-04  0.42742022D-04  0.53212763D-04  0.92181836D-04
 -0.42596921D-04  0.49411471D-04 -0.34674240D-04 -0.62536419D-04 -0.92209914D-04
  0.32313749D-03  0.98087026D-03 -0.10646207D-04  0.17549286D-05  0.62337980D-04
  0.21285929D-04  0.43589252D-04  0.25154950D-03  0.23340804D-03  0.38596430D-04
  0.15021005D-03  0.19511826D-04 -0.95480424D-04  0.36897502D-04  0.58582921D-04
  0.16516431D-04 -0.23354025D-04  0.25761962D-03 -0.37654997D-04 -0.10224137D-04
  0.47879133D-04  0.14984211D-04  0.30280519D-04  0.26886370D-04 -0.88033940D-08
 -0.15877284D-07 -0.23411045D-07  0.96377201D-07  0.24644173D-06 -0.22115016D-08
  0.14582664D-05  0.24879120D-05  0.49429444D-08  0.43143225D-04  0.74568448D-04
  0.19445807D-07  0.38641502D-04  0.66834700D-04 -0.31756339D-07  0.13095849D-04
 -0.13134881D-04  0.39032591D-07  0.15064883D-04 -0.25408977D-04 -0.44091483D-04
  0.13086832D-04 -0.13072625D-04 -0.14206929D-07  0.15118320D-04  0.29556703D-04
  0.51191670D-04  0.34682145D-04  0.62550677D-04  0.92230937D-04 -0.32319967D-03
 -0.98111715D-03  0.10649140D-04  0.53121749D-04  0.32664542D-04 -0.21345257D-04
  0.19605456D-03  0.16328775D-03 -0.23368441D-03  0.11085235D-03  0.10848023D-03
 -0.19654494D-04  0.34209317D-05  0.55373052D-04 -0.58793983D-04 -0.12265622D-03
  0.23489817D-03  0.10844037D-03  0.23564518D-04  0.24360471D-04 -0.47924989D-04
 -0.31222616D-04  0.81289149D-05  0.39544541D-04  0.11320087D-06  0.21178674D-06
  0.36592051D-06  0.59320015D-06  0.90083135D-06  0.12520708D-05  0.14886163D-05
  0.13261111D-05  0.65857481D-06  0.10602497D-06  0.11186261D-08  0.53148632D-09
  0.17729494D-07  0.61783737D-07  0.22249324D-06  0.49045866D-06  0.69040750D-06
 -0.32934688D-07 -0.90351811D-06 -0.53424460D-06  0.96613196D-11  0.11702217D-09
  0.24403741D-09  0.69985679D-09  0.36342589D-10 -0.30181219D-08 -0.77982474D-08
  0.63536449D-08 -0.31876156D-07  0.39119930D-08  0.13779256D-08  0.58087530D+01
  0.76514866D+01  0.84407875D+01  0.70107349D+01  0.37228948D+01  0.96052631D+00
  0.10053201D+02  0.13242417D+02  0.14608459D+02  0.12133469D+02  0.64432089D+01
  0.16623816D+01 -0.53976073D-02 -0.71099115D-02 -0.78433453D-02 -0.65145124D-02
 -0.34593868D-02 -0.89253989D-03 -0.22983388D-03  0.22218860D-02  0.31330912D-02
  0.44811493D-02 -0.22691909D-04 -0.41096365D-02 -0.39777293D-03  0.38454128D-02
  0.54224334D-02  0.77555142D-02 -0.39272832D-04 -0.71125380D-02  0.21368592D-06
 -0.20657780D-05 -0.29129626D-05 -0.41663072D-05  0.21097593D-07  0.38208966D-05
  0.38351998D-01  0.66375746D-01 -0.35638820D-04 -0.32203347D-03 -0.55734436D-03
  0.29937394D-06 -0.29020121D-04 -0.50225147D-04  0.26825936D-07  0.11303731D-04
 -0.11758399D-04  0.45466785D-06  0.12787100D-04 -0.48928963D-03 -0.84678256D-03
 -0.37018991D-05  0.38683184D-05 -0.16641938D-06 -0.41790755D-05  0.17799689D-03
  0.30804665D-03  0.11504813D-05 -0.11785545D-05  0.28073208D-07  0.13116407D-05
 -0.30404816D-04 -0.52618255D-04  0.12777521D-05  0.19623660D-05  0.44298807D-08
  0.76043199D-06  0.19954989D-05  0.30552328D-04 -0.45936883D-05 -0.78825970D-05
 -0.30565617D-04  0.35271214D-04  0.72780822D-05  0.12701257D-04  0.27513912D-07
  0.75094068D-05  0.12694293D-04 -0.64247367D-05 -0.29343653D-04 -0.50798064D-04
  0.63421950D-05 -0.74490909D-05 -0.14828339D-07 -0.27640050D-07 -0.46856042D-07
 -0.70946384D-07 -0.88698606D-07 -0.76296707D-07 -0.29261429D-07  0.30890237D-10
  0.40892890D-09  0.14853042D-08  0.44061268D-08  0.50771712D-08 -0.61669806D-08
 -0.48661923D-09  0.10823294D-07  0.10844208D-07 -0.14572539D-03 -0.14251624D-03
 -0.94166508D-04 -0.25220834D-03 -0.24665425D-03 -0.16297489D-03  0.15118513D-06
  0.14785576D-06  0.97694549D-07 -0.41623496D-05 -0.72110358D-05  0.11209341D-08
 -0.33413403D-04 -0.57822807D-04  0.42875873D-07 -0.97544447D-05 -0.16881863D-04
  0.10558524D-07  0.61488732D-04 -0.61547639D-04  0.58907482D-07  0.70953490D-04
 -0.66743005D-04 -0.11537673D-03 -0.30823852D-04  0.30870755D-04 -0.46903211D-07
 -0.35558709D-04  0.51221841D-04  0.88580531D-04  0.15564044D-04 -0.15601046D-04
  0.37002476D-07  0.17949700D-04 -0.37153489D-04 -0.64262454D-04 -0.35238930D-04
 -0.61805177D-04 -0.13738486D-06 -0.37449217D-04 -0.61981899D-04 -0.16315476D-03
  0.14316601D-03  0.24739743D-03  0.16356691D-03 -0.18821076D-03  0.12541735D-04
  0.21946726D-04  0.49304350D-07  0.13200877D-04  0.22002728D-04  0.51755438D-04
 -0.50826082D-04 -0.87842907D-04 -0.51903351D-04  0.59698353D-04
MO    3     MO 0.0        OCC NO =    2.0000210  ORB. ENERGY =    0.000000
 -0.14423654D-01 -0.26888596D-01 -0.45445391D-01 -0.68312899D-01 -0.83910161D-01
 -0.70817216D-01 -0.26629122D-01 -0.38200030D-05 -0.28552156D-04 -0.10670593D-03
 -0.29769292D-03 -0.39882643D-03  0.47093965D-03 -0.86851432D-03 -0.19421042D-02
 -0.82647426D-04  0.24297906D-05  0.22780832D-05  0.16221309D-05 -0.77364929D-06
 -0.72534538D-06 -0.51648912D-06  0.11723105D-02  0.10991156D-02  0.78263580D-03
  0.83491820D-06 -0.15506029D-06  0.60839307D-03  0.24722410D-05 -0.16365227D-05
 -0.38285987D-03  0.42875634D-07 -0.22311050D-07  0.46377659D-05 -0.10546333D-03
 -0.10604483D-03  0.21150816D-03 -0.10061130D-05  0.13537573D-05 -0.44189109D-06
 -0.24735433D-04 -0.24205069D-04  0.48940502D-04  0.91752170D-06  0.27545045D-05
 -0.15102428D-05  0.11326977D-04  0.11628786D-04 -0.22955763D-04  0.52290266D-06
  0.44420405D-06 -0.29399754D-06 -0.11618294D-06  0.36573927D-04  0.85443239D-05
 -0.60042127D-07 -0.10951288D-03 -0.13328515D-04  0.40859093D-06 -0.20890344D-06
 -0.12304457D-04  0.19812798D-05  0.15113041D-06  0.52064788D-04 -0.86058648D-04
  0.23026377D-06 -0.15630954D-03  0.12887062D-03 -0.68365499D-06  0.11517236D-06
  0.12930533D-03  0.10443723D-05 -0.47034887D-05 -0.84829355D-05 -0.12508083D-04
  0.75510177D-03  0.23340203D-03  0.49936253D-05  0.30792931D-06  0.96234243D-04
  0.28609967D-04  0.83448550D-07  0.19986032D-03 -0.50120299D-05  0.56041915D-06
  0.43699584D-04  0.38640577D-04 -0.74246045D-04  0.54323905D-04  0.19922141D-04
  0.40304313D-06  0.65103984D-06  0.75975746D-04 -0.97723589D-05 -0.12062489D-04
  0.21834848D-04  0.17332341D-06 -0.73440732D-07 -0.34757934D-04 -0.44690255D-05
 -0.80600715D-05 -0.11884571D-04  0.75803324D-03  0.24410497D-03  0.52822636D-05
  0.84928508D-04 -0.49031058D-04  0.31416962D-04  0.17204513D-03 -0.99362365D-04
 -0.88731041D-05  0.39077246D-04 -0.22546787D-04  0.39446615D-04  0.20939955D-04
 -0.43664675D-04  0.22724720D-04 -0.11189133D-03  0.65275550D-04 -0.37591933D-04
 -0.11529963D-04 -0.10123443D-04  0.21653406D-04  0.24046932D-05 -0.30120414D-04
  0.17428795D-04 -0.47030428D-05 -0.84821314D-05 -0.12506898D-04  0.75510558D-03
  0.23341236D-03  0.49939711D-05 -0.83187672D-04 -0.48340854D-04  0.28689091D-04
 -0.17307166D-03 -0.99962283D-04 -0.48565239D-05 -0.37553746D-04 -0.22295496D-04
  0.38675912D-04  0.22004324D-04 -0.41989925D-04  0.19985601D-04  0.11144417D-03
 -0.65570475D-04 -0.38486121D-04 -0.11551386D-04 -0.10255145D-04  0.21806531D-04
 -0.18632354D-05  0.30102237D-04  0.17488331D-04 -0.15450749D+00 -0.28906703D+00
 -0.49944371D+00 -0.80965693D+00 -0.12295417D+01 -0.17089473D+01 -0.20318074D+01
 -0.18100047D+01 -0.89888659D+00 -0.14471314D+00 -0.15268091D-02 -0.72239925D-03
 -0.24098030D-01 -0.83976809D-01 -0.30241409D+00 -0.66663422D+00 -0.93840583D+00
  0.44765016D-01  0.12280670D+01  0.72614832D+00 -0.15524215D-04 -0.18803616D-03
 -0.39212958D-03 -0.11245594D-02 -0.58396802D-04  0.48496454D-02  0.12530552D-01
 -0.10209304D-01  0.46572484D-01 -0.37988126D-03 -0.13192752D-03 -0.10601451D-01
 -0.13964591D-01 -0.15405129D-01 -0.12795166D-01 -0.67945883D-02 -0.17530393D-02
  0.93281632D-02  0.12287373D-01  0.13554896D-01  0.11258402D-01  0.59785241D-02
  0.15424905D-02  0.59515818D+01  0.78396255D+01  0.86483341D+01  0.71831186D+01
  0.38144353D+01  0.98414424D+00  0.31454243D-06 -0.30407938D-05 -0.42878367D-05
 -0.61327407D-05  0.31055336D-07  0.56243016D-05 -0.29545900D-06  0.28563075D-05
  0.40276917D-05  0.57606646D-05 -0.29171195D-07 -0.52830728D-05 -0.21129102D-03
  0.20426256D-02  0.28803153D-02  0.41196129D-02 -0.20861140D-04 -0.37780736D-02
 -0.72696152D-04  0.64456687D-04  0.41727331D-01  0.56009055D-06 -0.58457453D-06
 -0.48546913D-03  0.62408745D-07 -0.41384323D-07 -0.98745839D-05 -0.63861140D-05
 -0.60293172D-05  0.12415431D-04  0.61694877D-06 -0.15999684D-05  0.94387025D-06
 -0.11190797D-03 -0.11205448D-03  0.22396245D-03 -0.25388303D-06  0.21885000D-06
  0.23462779D-06 -0.14408487D-04 -0.14336800D-04  0.28745287D-04  0.12383713D-06
 -0.17911793D-06  0.14951488D-06  0.16655109D-06 -0.74494358D-05  0.53404513D-05
  0.15579539D-06  0.21953501D-04 -0.82016536D-05 -0.65544865D-06  0.39480641D-06
 -0.78197004D-05  0.61693707D-06 -0.53560332D-07  0.21614833D-05 -0.33852436D-04
 -0.50475460D-07 -0.62538644D-05  0.50829890D-04  0.21115646D-06 -0.23058554D-06
  0.50727419D-04 -0.16422520D-06 -0.87693412D-03 -0.16346067D-02 -0.27710225D-02
 -0.41957029D-02 -0.52455527D-02 -0.45121160D-02 -0.17304936D-02 -0.68378094D-06
 -0.90519793D-05 -0.32878436D-04 -0.97533260D-04 -0.11238738D-03  0.13651122D-03
 -0.95834919D-04 -0.16040316D-03  0.12273973D-04 -0.42725841D-06 -0.41784940D-06
 -0.27609076D-06  0.24196007D-05  0.23663166D-05  0.15635254D-05  0.39105658D-02
  0.38244479D-02  0.25269744D-02  0.26179801D-06  0.33999658D-06  0.88061204D-03
 -0.13741640D-06  0.89784051D-07  0.21056700D-04  0.81419090D-07 -0.41696251D-07
  0.93450871D-05 -0.35814725D-04 -0.36268048D-04  0.72082774D-04 -0.78961246D-06
 -0.38723924D-06  0.34502500D-06  0.21202783D-04  0.21455335D-04 -0.42658118D-04
  0.43949469D-06  0.28625528D-06 -0.23637024D-06  0.18252204D-04  0.18104197D-04
 -0.36356402D-04 -0.25682094D-06 -0.17276246D-06  0.37852476D-07 -0.21431686D-06
 -0.25733286D-05  0.46847284D-04 -0.21637236D-06  0.80509919D-05 -0.71276141D-04
  0.85932294D-06 -0.33100617D-06 -0.69265712D-04  0.34616928D-05  0.56650653D-07
  0.82955278D-06 -0.25613437D-04  0.57313509D-07 -0.25310959D-05  0.38732225D-04
 -0.22726547D-06  0.42437517D-07  0.38108088D-04 -0.10742837D-05
MO    4     MO 0.0        OCC NO =    2.0000124  ORB. ENERGY =    0.000000
  0.27129305D-01  0.50574489D-01  0.85477777D-01  0.12848904D+00  0.15782577D+00
  0.13319939D+00  0.50086448D-01 -0.14299265D-05 -0.10687815D-04 -0.39942804D-04
 -0.11143421D-03 -0.14929111D-03  0.17628497D-03  0.26725057D-02 -0.36229318D-02
 -0.44083409D-04  0.12299346D-04  0.11531419D-04  0.82110571D-05 -0.51252694D-05
 -0.48052658D-05 -0.34216355D-05  0.36700861D-02  0.34409390D-02  0.24501535D-02
 -0.11865194D-05  0.13808034D-05  0.13032240D-02  0.44205370D-05 -0.27842965D-05
 -0.42174260D-03  0.10786664D-06 -0.60497989D-07  0.36501606D-05 -0.31606797D-03
 -0.31845673D-03  0.63452471D-03 -0.41364506D-05  0.14656138D-06  0.94302220D-06
  0.75943676D-05  0.79268919D-05 -0.15521259D-04  0.57092939D-06  0.78175010D-05
 -0.45405385D-05 -0.17804810D-04 -0.17284156D-04  0.35088966D-04  0.90142493D-06
  0.84284907D-06 -0.42956505D-06 -0.39662159D-06 -0.42082638D-04  0.23725975D-04
 -0.45862144D-06  0.12712355D-03 -0.36651325D-04  0.16484862D-05 -0.87563068D-06
 -0.34526601D-04  0.34476359D-05  0.29333285D-06  0.82997973D-04 -0.16357261D-03
  0.42036636D-06 -0.24921426D-03  0.24454493D-03 -0.13003649D-05  0.22034334D-06
  0.24617289D-03  0.32844142D-05 -0.89971019D-04 -0.16226644D-03 -0.23926177D-03
  0.10317263D-02  0.67853002D-03  0.41203398D-05  0.87073902D-06 -0.57323362D-04
  0.33797712D-04 -0.50870728D-08  0.30632401D-03 -0.44204043D-04  0.89937563D-06
  0.11035070D-03  0.75296708D-04 -0.14244146D-03  0.23866762D-04  0.11857470D-03
  0.14354326D-05  0.10319369D-05  0.14192727D-03 -0.15443623D-04 -0.21094633D-04
  0.36538256D-04  0.19903904D-06  0.32291580D-06 -0.63193570D-04 -0.90243337D-04
 -0.16275758D-03 -0.23998595D-03  0.10288887D-02  0.69760217D-03  0.47774027D-05
 -0.47574250D-04  0.27496524D-04  0.42319794D-04  0.25921732D-03 -0.14972449D-03
 -0.43168630D-04  0.97652886D-04 -0.56355596D-04  0.76485979D-04 -0.22525715D-04
 -0.10516984D-03  0.12769555D-03 -0.14308713D-03  0.13057376D-03 -0.75112525D-04
 -0.20278398D-04 -0.16711427D-04  0.36989826D-04  0.61227270D-05 -0.53785419D-04
  0.31117877D-04 -0.89970893D-04 -0.16226621D-03 -0.23926143D-03  0.10317417D-02
  0.67854574D-03  0.41213426D-05  0.50098445D-04  0.27919189D-04  0.33757713D-04
 -0.26535049D-03 -0.15312750D-03 -0.43960753D-04 -0.95097307D-04 -0.55870842D-04
  0.75386529D-04 -0.18354940D-04 -0.10034118D-03  0.11869612D-03  0.14457464D-03
 -0.12240649D-03 -0.71541078D-04 -0.19743549D-04 -0.16743107D-04  0.36486657D-04
 -0.47336551D-05  0.54951924D-04  0.31390916D-04  0.91459445D-01  0.17111086D+00
  0.29564162D+00  0.47926980D+00  0.72781718D+00  0.10115974D+01  0.12027118D+01
  0.10714175D+01  0.53208857D+00  0.85661758D-01  0.90378214D-03  0.42821703D-03
  0.14284603D-01  0.49778983D-01  0.17926218D+00  0.39516116D+00  0.55625937D+00
 -0.26535385D-01 -0.72796199D+00 -0.43043937D+00  0.62941825D-05  0.76237921D-04
  0.15898615D-03  0.45594459D-03  0.23676568D-04 -0.19662542D-02 -0.50804232D-02
  0.41392897D-02 -0.28588062D-01  0.14244076D-02 -0.18071948D-03 -0.17456446D-01
 -0.22994223D-01 -0.25366227D-01 -0.21068638D-01 -0.11188031D-01 -0.28865705D-02
  0.15401773D-01  0.20287737D-01  0.22380550D-01  0.18588799D-01  0.98711682D-02
  0.25468130D-02  0.99080865D+01  0.13051268D+02  0.14397591D+02  0.11958327D+02
  0.63502034D+01  0.16383857D+01  0.40742005D-06 -0.39386749D-05 -0.55539427D-05
 -0.79436073D-05  0.40225309D-07  0.72850371D-05 -0.41620744D-06  0.40236257D-05
  0.56737322D-05  0.81149380D-05 -0.41092904D-07 -0.74421635D-05 -0.33697689D-03
  0.32576758D-02  0.45936629D-02  0.65701531D-02 -0.33270331D-04 -0.60254501D-02
 -0.12312701D-03  0.11003924D-03  0.72502009D-01  0.87140964D-06 -0.67007087D-06
 -0.30834597D-03  0.97256897D-07 -0.58398478D-07 -0.40303470D-05  0.45344678D-03
  0.45407556D-03 -0.90752234D-03  0.10903349D-05  0.17128013D-06 -0.15604397D-05
 -0.30930647D-03 -0.30966458D-03  0.61897105D-03 -0.62051319D-06  0.28189879D-06
  0.83446632D-06  0.42119674D-05  0.43462304D-05 -0.85581978D-05  0.23203516D-06
 -0.41706837D-06  0.22743389D-06  0.41542183D-06 -0.14973878D-04 -0.47077139D-04
  0.39375961D-06  0.44127003D-04  0.70256311D-04 -0.16400251D-05  0.79463150D-06
  0.70975105D-04  0.11570270D-05 -0.95742698D-07  0.43629153D-05 -0.62444157D-04
 -0.89393695D-07 -0.12670122D-04  0.93712936D-04  0.37662179D-06 -0.41862379D-06
  0.93619534D-04 -0.13616266D-06 -0.63311324D-02 -0.11801242D-01 -0.20005734D-01