 Entering Gaussian System, Link 0=g09
 Input=GAUSSIAN+YCl_5.com
 Output=GAUSSIAN+YCl_5.log
 Initial command:
 /home/bruns/programas/chemistry/gaussian/g09/l1.exe /home/bruns/programas/chemistry/gaussian/work/Gau-23036.inp -scrdir=/home/bruns/programas/chemistry/gaussian/work/
 Entering Link 1 = /home/bruns/programas/chemistry/gaussian/g09/l1.exe PID=     23038.
  
 Copyright (c) 1988,1990,1992,1993,1995,1998,2003,2009,2010,
            Gaussian, Inc.  All Rights Reserved.
  
 This is part of the Gaussian(R) 09 program.  It is based on
 the Gaussian(R) 03 system (copyright 2003, Gaussian, Inc.),
 the Gaussian(R) 98 system (copyright 1998, Gaussian, Inc.),
 the Gaussian(R) 94 system (copyright 1995, Gaussian, Inc.),
 the Gaussian 92(TM) system (copyright 1992, Gaussian, Inc.),
 the Gaussian 90(TM) system (copyright 1990, Gaussian, Inc.),
 the Gaussian 88(TM) system (copyright 1988, Gaussian, Inc.),
 the Gaussian 86(TM) system (copyright 1986, Carnegie Mellon
 University), and the Gaussian 82(TM) system (copyright 1983,
 Carnegie Mellon University). Gaussian is a federally registered
 trademark of Gaussian, Inc.
  
 This software contains proprietary and confidential information,
 including trade secrets, belonging to Gaussian, Inc.
  
 This software is provided under written license and may be
 used, copied, transmitted, or stored only in accord with that
 written license.
  
 The following legend is applicable only to US Government
 contracts under FAR:
  
                    RESTRICTED RIGHTS LEGEND
  
 Use, reproduction and disclosure by the US Government is
 subject to restrictions as set forth in subparagraphs (a)
 and (c) of the Commercial Computer Software - Restricted
 Rights clause in FAR 52.227-19.
  
 Gaussian, Inc.
 340 Quinnipiac St., Bldg. 40, Wallingford CT 06492
  
  
 ---------------------------------------------------------------
 Warning -- This program may not be used in any manner that
 competes with the business of Gaussian, Inc. or will provide
 assistance to any competitor of Gaussian, Inc.  The licensee
 of this program is prohibited from giving any competitor of
 Gaussian, Inc. access to this program.  By using this program,
 the user acknowledges that Gaussian, Inc. is engaged in the
 business of creating and licensing software in the field of
 computational chemistry and represents and warrants to the
 licensee that it is not a competitor of Gaussian, Inc. and that
 it will not use this program in any manner prohibited above.
 ---------------------------------------------------------------
  

 Cite this work as:
 Gaussian 09, Revision B.01,
 M. J. Frisch, G. W. Trucks, H. B. Schlegel, G. E. Scuseria, 
 M. A. Robb, J. R. Cheeseman, G. Scalmani, V. Barone, B. Mennucci, 
 G. A. Petersson, H. Nakatsuji, M. Caricato, X. Li, H. P. Hratchian, 
 A. F. Izmaylov, J. Bloino, G. Zheng, J. L. Sonnenberg, M. Hada, 
 M. Ehara, K. Toyota, R. Fukuda, J. Hasegawa, M. Ishida, T. Nakajima, 
 Y. Honda, O. Kitao, H. Nakai, T. Vreven, J. A. Montgomery, Jr., 
 J. E. Peralta, F. Ogliaro, M. Bearpark, J. J. Heyd, E. Brothers, 
 K. N. Kudin, V. N. Staroverov, T. Keith, R. Kobayashi, J. Normand, 
 K. Raghavachari, A. Rendell, J. C. Burant, S. S. Iyengar, J. Tomasi, 
 M. Cossi, N. Rega, J. M. Millam, M. Klene, J. E. Knox, J. B. Cross, 
 V. Bakken, C. Adamo, J. Jaramillo, R. Gomperts, R. E. Stratmann, 
 O. Yazyev, A. J. Austin, R. Cammi, C. Pomelli, J. W. Ochterski, 
 R. L. Martin, K. Morokuma, V. G. Zakrzewski, G. A. Voth, 
 P. Salvador, J. J. Dannenberg, S. Dapprich, A. D. Daniels, 
 O. Farkas, J. B. Foresman, J. V. Ortiz, J. Cioslowski, 
 and D. J. Fox, Gaussian, Inc., Wallingford CT, 2010.
 
 ******************************************
 Gaussian 09:  EM64L-G09RevB.01 12-Aug-2010
                10-Aug-2021 
 ******************************************
 %nproc=8
 Will use up to    8 processors via shared memory.
 %mem=8GB
 -----------------------------------------------------
 # QCISD aug-cc-pvtz nosymm density=current output=wfn
 -----------------------------------------------------
 1/30=1,38=1/1;
 2/12=2,15=1,17=6,18=5,40=1/2;
 3/5=16,6=1,7=10,11=9,16=1,25=1,30=1,71=1/1,2,3;
 4//1;
 5/5=2,38=5/2;
 8/6=4,9=120000,10=1/1,4;
 9/5=8,15=1/13;
 11/28=-7,31=1,32=3,42=3/11;
 10/5=6,13=10,31=1/2;
 6/7=2,8=2,9=2,10=2,22=-1,31=1/1;
 99/5=1,6=1100,9=1/99;
 ----------
 title line
 ----------
 Symbolic Z-matrix:
 Charge = -1 Multiplicity = 1
 C                     0.00018   0.00003  -0.49771 
 H                     0.00002  -1.05257  -0.62073 
 H                    -0.91131   0.52637  -0.62125 
 H                     0.91175   0.52613  -0.62157 
 Cl                    0.00056   0.01096   1.64472 
 F                    -0.00019  -0.00092  -2.59346 
 
                          Input orientation:                          
 ---------------------------------------------------------------------
 Center     Atomic      Atomic             Coordinates (Angstroms)
 Number     Number       Type             X           Y           Z
 ---------------------------------------------------------------------
      1          6           0        0.000175    0.000029   -0.497709
      2          1           0        0.000019   -1.052570   -0.620726
      3          1           0       -0.911312    0.526365   -0.621245
      4          1           0        0.911750    0.526132   -0.621570
      5         17           0        0.000555    0.010962    1.644718
      6          9           0       -0.000186   -0.000921   -2.593460
 ---------------------------------------------------------------------
                    Distance matrix (angstroms):
                    1          2          3          4          5
     1  C    0.000000
     2  H    1.059763   0.000000
     3  H    1.059764   1.823063   0.000000
     4  H    1.059762   1.823062   1.823062   0.000000
     5  Cl   2.142455   2.502666   2.496343   2.496345   0.000000
     6  F    2.095751   2.235541   2.235579   2.235568   4.238195
                    6
     6  F    0.000000
 Symmetry turned off by external request.
 This structure is nearly, but not quite of a higher symmetry.
 Consider Symm=Loose if the higher symmetry is desired.
 Stoichiometry    CH3ClF(1-)
 Framework group  C1[X(CH3ClF)]
 Deg. of freedom    12
 Full point group                 C1      NOp   1
 Rotational constants (GHZ):    150.8673035      2.2147108      2.2147083
 Standard basis: Aug-CC-pVTZ (5D, 7F)
 Integral buffers will be    131072 words long.
 Raffenetti 1 integral format.
 Two-electron integral symmetry is turned off.
   211 basis functions,   339 primitive gaussians,   244 cartesian basis functions
    18 alpha electrons       18 beta electrons
       nuclear repulsion energy        84.9839089516 Hartrees.
 NAtoms=    6 NActive=    6 NUniq=    6 SFac= 1.00D+00 NAtFMM=   50 NAOKFM=F Big=F
 One-electron integrals computed using PRISM.
 NBasis=   211 RedAO= T  NBF=   211
 NBsUse=   211 1.00D-06 NBFU=   211
 Harris functional with IExCor=  205 diagonalized for initial guess.
 ExpMin= 2.53D-02 ExpMax= 4.56D+05 ExpMxC= 1.44D+03 IAcc=3 IRadAn=         0 AccDes= 0.00D+00
 HarFok:  IExCor=  205 AccDes= 0.00D+00 IRadAn=         0 IDoV= 1
 ScaDFX=  1.000000  1.000000  1.000000  1.000000
 FoFCou: FMM=F IPFlag=           0 FMFlag=      100000 FMFlg1=           0
         NFxFlg=           0 DoJE=T BraDBF=F KetDBF=T FulRan=T
         Omega=  0.000000  0.000000  1.000000  0.000000  0.000000 ICntrl=     500 IOpCl=  0
         NMat0=    1 NMatS0=    1 NMatT0=    0 NMatD0=    1 NMtDS0=    0 NMtDT0=    0
         I1Cent=           4 NGrid=           0.
 Symmetry not used in FoFCou.
 Requested convergence on RMS density matrix=1.00D-08 within 128 cycles.
 Requested convergence on MAX density matrix=1.00D-06.
 Requested convergence on             energy=1.00D-06.
 No special actions if energy rises.
 Keep R1 ints in memory in canonical form, NReq=454274131.
 SCF Done:  E(RHF) =  -598.617121870     A.U. after   12 cycles
             Convg  =    0.9413D-08             -V/T =  2.0001
 ExpMin= 2.53D-02 ExpMax= 4.56D+05 ExpMxC= 1.44D+03 IAcc=3 IRadAn=         5 AccDes= 0.00D+00
 HarFok:  IExCor=  205 AccDes= 0.00D+00 IRadAn=         5 IDoV=-2
 ScaDFX=  1.000000  1.000000  1.000000  1.000000
 DSYEVD returned Info=         101 IAlg= 4 N=    50 NDim=    50 NE2=    21472034 trying DSYEV.
 DSYEVD returned Info=          93 IAlg= 4 N=    46 NDim=    46 NE2=    21472034 trying DSYEV.
 Range of M.O.s used for correlation:     8   211
 NBasis=   211 NAE=    18 NBE=    18 NFC=     7 NFV=     0
 NROrb=    204 NOA=    11 NOB=    11 NVA=   193 NVB=   193

 **** Warning!!: The largest alpha MO coefficient is  0.35240369D+02

 Semi-Direct transformation.
 ModeAB=           2 MOrb=            11 LenV=    1072528222
 LASXX=     44979418 LTotXX=    44979418 LenRXX=    44979418
 LTotAB=    45631872 MaxLAS=    67073160 LenRXY=    67073160
 NonZer=    89958836 LenScr=   135708672 LnRSAI=           0
 LnScr1=           0 LExtra=           0 Total=    247761250
 MaxDsk=          -1 SrtSym=           F ITran=            4
 JobTyp=0 Pass  1:  I=   1 to  11.
 (rs|ai) integrals will be sorted in core.
 Spin components of T(2) and E(2):
     alpha-alpha T2 =       0.2567357520D-01 E2=     -0.8208206857D-01
     alpha-beta  T2 =       0.1452560010D+00 E2=     -0.5099783400D+00
     beta-beta   T2 =       0.2567357520D-01 E2=     -0.8208206857D-01
 ANorm=    0.1093893574D+01
 E2 =    -0.6741424771D+00 EUMP2 =    -0.59929126434720D+03
 R2 and R3 integrals will be kept in memory, NReq=   900794930.
 Iterations=  50 Convergence= 0.100D-07
 Iteration Nr.   1
 **********************
 DD1Dir will call FoFMem   1 times, MxPair=       132
 NAB=    66 NAA=     0 NBB=     0.
 MP4(R+Q)=  0.14438912D-01
 E3=       -0.18700992D-01        EUMP3=      -0.59930996534D+03
 E4(DQ)=   -0.45152550D-03        UMP4(DQ)=   -0.59931041686D+03
 E4(SDQ)=  -0.98178802D-02        UMP4(SDQ)=  -0.59931978322D+03
 DE(Corr)= -0.67840456     E(Corr)=     -599.29552643    
 NORM(A)=   0.10996850D+01
 Iteration Nr.   2
 **********************
 DD1Dir will call FoFMem   1 times, MxPair=       132
 NAB=    66 NAA=     0 NBB=     0.
 DE(Corr)= -0.70060458     E(CORR)=     -599.31772645     Delta=-2.22D-02
 NORM(A)=   0.11070394D+01
 Iteration Nr.   3
 **********************
 DD1Dir will call FoFMem   1 times, MxPair=       132
 NAB=    66 NAA=     0 NBB=     0.
 DE(Corr)= -0.69820756     E(CORR)=     -599.31532943     Delta= 2.40D-03
 NORM(A)=   0.11110246D+01
 Iteration Nr.   4
 **********************
 DD1Dir will call FoFMem   1 times, MxPair=       132
 NAB=    66 NAA=     0 NBB=     0.
 DE(Corr)= -0.70126672     E(CORR)=     -599.31838859     Delta=-3.06D-03
 NORM(A)=   0.11131285D+01
 Iteration Nr.   5
 **********************
 DD1Dir will call FoFMem   1 times, MxPair=       132
 NAB=    66 NAA=     0 NBB=     0.
 DE(Corr)= -0.70186171     E(CORR)=     -599.31898358     Delta=-5.95D-04
 NORM(A)=   0.11141596D+01
 Iteration Nr.   6
 **********************
 DD1Dir will call FoFMem   1 times, MxPair=       132
 NAB=    66 NAA=     0 NBB=     0.
 DE(Corr)= -0.70200850     E(CORR)=     -599.31913037     Delta=-1.47D-04
 NORM(A)=   0.11144855D+01
 Iteration Nr.   7
 **********************
 DD1Dir will call FoFMem   1 times, MxPair=       132
 NAB=    66 NAA=     0 NBB=     0.
 DE(Corr)= -0.70203822     E(CORR)=     -599.31916009     Delta=-2.97D-05
 NORM(A)=   0.11145166D+01
 Iteration Nr.   8
 **********************
 DD1Dir will call FoFMem   1 times, MxPair=       132
 NAB=    66 NAA=     0 NBB=     0.
 DE(Corr)= -0.70205210     E(CORR)=     -599.31917397     Delta=-1.39D-05
 NORM(A)=   0.11145344D+01
 Iteration Nr.   9
 **********************
 DD1Dir will call FoFMem   1 times, MxPair=       132
 NAB=    66 NAA=     0 NBB=     0.
 DE(Corr)= -0.70202889     E(CORR)=     -599.31915076     Delta= 2.32D-05
 NORM(A)=   0.11145376D+01
 Iteration Nr.  10
 **********************
 DD1Dir will call FoFMem   1 times, MxPair=       132
 NAB=    66 NAA=     0 NBB=     0.
 DE(Corr)= -0.70204819     E(CORR)=     -599.31917006     Delta=-1.93D-05
 NORM(A)=   0.11145378D+01
 Iteration Nr.  11
 **********************
 DD1Dir will call FoFMem   1 times, MxPair=       132
 NAB=    66 NAA=     0 NBB=     0.
 DE(Corr)= -0.70203899     E(CORR)=     -599.31916086     Delta= 9.19D-06
 NORM(A)=   0.11145406D+01
 Iteration Nr.  12
 **********************
 DD1Dir will call FoFMem   1 times, MxPair=       132
 NAB=    66 NAA=     0 NBB=     0.
 DE(Corr)= -0.70204275     E(CORR)=     -599.31916462     Delta=-3.75D-06
 NORM(A)=   0.11145411D+01
 Iteration Nr.  13
 **********************
 DD1Dir will call FoFMem   1 times, MxPair=       132
 NAB=    66 NAA=     0 NBB=     0.
 DE(Corr)= -0.70204331     E(CORR)=     -599.31916518     Delta=-5.66D-07
 NORM(A)=   0.11145418D+01
 Iteration Nr.  14
 **********************
 DD1Dir will call FoFMem   1 times, MxPair=       132
 NAB=    66 NAA=     0 NBB=     0.
 DE(Corr)= -0.70204354     E(CORR)=     -599.31916541     Delta=-2.24D-07
 NORM(A)=   0.11145419D+01
 Iteration Nr.  15
 **********************
 DD1Dir will call FoFMem   1 times, MxPair=       132
 NAB=    66 NAA=     0 NBB=     0.
 DE(Corr)= -0.70204345     E(CORR)=     -599.31916532     Delta= 9.05D-08
 NORM(A)=   0.11145419D+01
 Iteration Nr.  16
 **********************
 DD1Dir will call FoFMem   1 times, MxPair=       132
 NAB=    66 NAA=     0 NBB=     0.
 DE(Corr)= -0.70204365     E(CORR)=     -599.31916552     Delta=-2.03D-07
 NORM(A)=   0.11145417D+01
 Iteration Nr.  17
 **********************
 DD1Dir will call FoFMem   1 times, MxPair=       132
 NAB=    66 NAA=     0 NBB=     0.
 DE(Corr)= -0.70204352     E(CORR)=     -599.31916539     Delta= 1.31D-07
 NORM(A)=   0.11145416D+01
 Iteration Nr.  18
 **********************
 DD1Dir will call FoFMem   1 times, MxPair=       132
 NAB=    66 NAA=     0 NBB=     0.
 DE(Corr)= -0.70204356     E(CORR)=     -599.31916543     Delta=-3.67D-08
 NORM(A)=   0.11145414D+01
 Iteration Nr.  19
 **********************
 DD1Dir will call FoFMem   1 times, MxPair=       132
 NAB=    66 NAA=     0 NBB=     0.
 DE(Corr)= -0.70204350     E(CORR)=     -599.31916537     Delta= 5.28D-08
 NORM(A)=   0.11145413D+01
 Iteration Nr.  20
 **********************
 DD1Dir will call FoFMem   1 times, MxPair=       132
 NAB=    66 NAA=     0 NBB=     0.
 DE(Corr)= -0.70204351     E(CORR)=     -599.31916538     Delta=-2.70D-09
 NORM(A)=   0.11145413D+01
 Iteration Nr.  21
 **********************
 DD1Dir will call FoFMem   1 times, MxPair=       132
 NAB=    66 NAA=     0 NBB=     0.
 DE(Corr)= -0.70204349     E(CORR)=     -599.31916536     Delta= 1.94D-08
 NORM(A)=   0.11145412D+01
 Iteration Nr.  22
 **********************
 DD1Dir will call FoFMem   1 times, MxPair=       132
 NAB=    66 NAA=     0 NBB=     0.
 DE(Corr)= -0.70204348     E(CORR)=     -599.31916535     Delta= 2.92D-09
 NORM(A)=   0.11145412D+01
 Iteration Nr.  23
 **********************
 DD1Dir will call FoFMem   1 times, MxPair=       132
 NAB=    66 NAA=     0 NBB=     0.
 DE(Corr)= -0.70204348     E(CORR)=     -599.31916535     Delta= 5.08D-09
 NORM(A)=   0.11145412D+01
 Iteration Nr.  24
 **********************
 DD1Dir will call FoFMem   1 times, MxPair=       132
 NAB=    66 NAA=     0 NBB=     0.
 DE(Corr)= -0.70204348     E(CORR)=     -599.31916535     Delta=-4.55D-10
 NORM(A)=   0.11145412D+01
 Iteration Nr.  25
 **********************
 DD1Dir will call FoFMem   1 times, MxPair=       132
 NAB=    66 NAA=     0 NBB=     0.
 DE(Corr)= -0.70204348     E(CORR)=     -599.31916535     Delta=-3.28D-10
 NORM(A)=   0.11145412D+01
 Iteration Nr.  26
 **********************
 DD1Dir will call FoFMem   1 times, MxPair=       132
 NAB=    66 NAA=     0 NBB=     0.
 DE(Corr)= -0.70204348     E(CORR)=     -599.31916535     Delta= 2.32D-09
 NORM(A)=   0.11145412D+01
 Iteration Nr.  27
 **********************
 DD1Dir will call FoFMem   1 times, MxPair=       132
 NAB=    66 NAA=     0 NBB=     0.
 DE(Corr)= -0.70204348     E(CORR)=     -599.31916535     Delta=-5.19D-10
 NORM(A)=   0.11145412D+01
 Iteration Nr.  28
 **********************
 DD1Dir will call FoFMem   1 times, MxPair=       132
 NAB=    66 NAA=     0 NBB=     0.
 DE(Corr)= -0.70204348     E(CORR)=     -599.31916535     Delta= 8.48D-10
 NORM(A)=   0.11145412D+01
 Iteration Nr.  29
 **********************
 DD1Dir will call FoFMem   1 times, MxPair=       132
 NAB=    66 NAA=     0 NBB=     0.
 DE(Corr)= -0.70204348     E(CORR)=     -599.31916535     Delta=-5.70D-10
 NORM(A)=   0.11145412D+01
 Largest amplitude= 6.61D-02

 Z-AMPLITUDE ITERATIONS

 Iteration Nr.   1
 **********************
 DD1Dir will call FoFMem   1 times, MxPair=       132
 NAB=    66 NAA=     0 NBB=     0.
 DE(Z)  -0.68265127D+00          E(Z)=    -0.59929977314D+03
 NORM(A)=   0.11145845D+01
 Iteration Nr.   2
 **********************
 DD1Dir will call FoFMem   1 times, MxPair=       132
 NAB=    66 NAA=     0 NBB=     0.
 DE(Z)  -0.68265602D+00          E(Z)=    -0.59929977789D+03
 NORM(A)=   0.11146543D+01
 Iteration Nr.   3
 **********************
 DD1Dir will call FoFMem   1 times, MxPair=       132
 NAB=    66 NAA=     0 NBB=     0.
 DE(Z)  -0.68266202D+00          E(Z)=    -0.59929978389D+03
 NORM(A)=   0.11144206D+01
 Iteration Nr.   4
 **********************
 DD1Dir will call FoFMem   1 times, MxPair=       132
 NAB=    66 NAA=     0 NBB=     0.
 DE(Z)  -0.68263922D+00          E(Z)=    -0.59929976109D+03
 NORM(A)=   0.11146154D+01
 Iteration Nr.   5
 **********************
 DD1Dir will call FoFMem   1 times, MxPair=       132
 NAB=    66 NAA=     0 NBB=     0.
 DE(Z)  -0.68265850D+00          E(Z)=    -0.59929978037D+03
 NORM(A)=   0.11078807D+01
 Iteration Nr.   6
 **********************
 DD1Dir will call FoFMem   1 times, MxPair=       132
 NAB=    66 NAA=     0 NBB=     0.
 DE(Z)  -0.68197958D+00          E(Z)=    -0.59929910145D+03
 NORM(A)=   0.11078806D+01
 Iteration Nr.   7
 **********************
 DD1Dir will call FoFMem   1 times, MxPair=       132
 NAB=    66 NAA=     0 NBB=     0.
 DE(Z)  -0.68198634D+00          E(Z)=    -0.59929910821D+03
 NORM(A)=   0.11078757D+01
 Iteration Nr.   8
 **********************
 DD1Dir will call FoFMem   1 times, MxPair=       132
 NAB=    66 NAA=     0 NBB=     0.
 DE(Z)  -0.68198262D+00          E(Z)=    -0.59929910449D+03
 NORM(A)=   0.11078714D+01
 Iteration Nr.   9
 **********************
 DD1Dir will call FoFMem   1 times, MxPair=       132
 NAB=    66 NAA=     0 NBB=     0.
 DE(Z)  -0.68198242D+00          E(Z)=    -0.59929910429D+03
 NORM(A)=   0.11078703D+01
 Iteration Nr.  10
 **********************
 DD1Dir will call FoFMem   1 times, MxPair=       132
 NAB=    66 NAA=     0 NBB=     0.
 DE(Z)  -0.68198245D+00          E(Z)=    -0.59929910432D+03
 NORM(A)=   0.11078701D+01
 Iteration Nr.  11
 **********************
 DD1Dir will call FoFMem   1 times, MxPair=       132
 NAB=    66 NAA=     0 NBB=     0.
 DE(Z)  -0.68198244D+00          E(Z)=    -0.59929910431D+03
 NORM(A)=   0.11078700D+01
 Iteration Nr.  12
 **********************
 DD1Dir will call FoFMem   1 times, MxPair=       132
 NAB=    66 NAA=     0 NBB=     0.
 DE(Z)  -0.68198245D+00          E(Z)=    -0.59929910432D+03
 NORM(A)=   0.11078701D+01
 Iteration Nr.  13
 **********************
 DD1Dir will call FoFMem   1 times, MxPair=       132
 NAB=    66 NAA=     0 NBB=     0.
 DE(Z)  -0.68198253D+00          E(Z)=    -0.59929910440D+03
 NORM(A)=   0.11078701D+01
 Iteration Nr.  14
 **********************
 DD1Dir will call FoFMem   1 times, MxPair=       132
 NAB=    66 NAA=     0 NBB=     0.
 DE(Z)  -0.68198250D+00          E(Z)=    -0.59929910437D+03
 NORM(A)=   0.11078701D+01
 Iteration Nr.  15
 **********************
 DD1Dir will call FoFMem   1 times, MxPair=       132
 NAB=    66 NAA=     0 NBB=     0.
 DE(Z)  -0.68198252D+00          E(Z)=    -0.59929910439D+03
 NORM(A)=   0.11078701D+01
 Iteration Nr.  16
 **********************
 DD1Dir will call FoFMem   1 times, MxPair=       132
 NAB=    66 NAA=     0 NBB=     0.
 DE(Z)  -0.68198252D+00          E(Z)=    -0.59929910439D+03
 NORM(A)=   0.11078701D+01
 Iteration Nr.  17
 **********************
 DD1Dir will call FoFMem   1 times, MxPair=       132
 NAB=    66 NAA=     0 NBB=     0.
 DE(Z)  -0.68198252D+00          E(Z)=    -0.59929910439D+03
 NORM(A)=   0.11078701D+01
 Iteration Nr.  18
 **********************
 DD1Dir will call FoFMem   1 times, MxPair=       132
 NAB=    66 NAA=     0 NBB=     0.
 DE(Z)  -0.68198252D+00          E(Z)=    -0.59929910439D+03
 NORM(A)=   0.11078701D+01
 Iteration Nr.  19
 **********************
 DD1Dir will call FoFMem   1 times, MxPair=       132
 NAB=    66 NAA=     0 NBB=     0.
 DE(Z)  -0.68198252D+00          E(Z)=    -0.59929910439D+03
 NORM(A)=   0.11078701D+01
 Discarding MO integrals.
          Differentiating once with respect to electric field.
                with respect to dipole field.
          Electric field/nuclear overlap derivatives assumed to be zero.
          Keep R1 ints in memory in canonical form, NReq=448662239.
          There are     1 degrees of freedom in the 1st order CPHF.  IDoFFX=0.
 LinEq1:  Iter=  0 NonCon=     1 RMS=3.11D-03 Max=1.20D-01
 AX will form     1 AO Fock derivatives at one time.
 LinEq1:  Iter=  1 NonCon=     1 RMS=6.94D-04 Max=9.46D-03
 LinEq1:  Iter=  2 NonCon=     1 RMS=2.30D-04 Max=5.72D-03
 LinEq1:  Iter=  3 NonCon=     1 RMS=9.49D-05 Max=1.45D-03
 LinEq1:  Iter=  4 NonCon=     1 RMS=3.84D-05 Max=4.10D-04
 LinEq1:  Iter=  5 NonCon=     1 RMS=1.06D-05 Max=2.26D-04
 LinEq1:  Iter=  6 NonCon=     1 RMS=2.42D-06 Max=4.24D-05
 LinEq1:  Iter=  7 NonCon=     1 RMS=6.06D-07 Max=9.14D-06
 LinEq1:  Iter=  8 NonCon=     1 RMS=1.49D-07 Max=1.80D-06
 LinEq1:  Iter=  9 NonCon=     1 RMS=3.03D-08 Max=7.47D-07
 LinEq1:  Iter= 10 NonCon=     1 RMS=6.54D-09 Max=8.90D-08
 LinEq1:  Iter= 11 NonCon=     1 RMS=1.05D-09 Max=1.16D-08
 LinEq1:  Iter= 12 NonCon=     1 RMS=1.68D-10 Max=2.85D-09
 LinEq1:  Iter= 13 NonCon=     0 RMS=2.40D-11 Max=3.21D-10
 Linear equations converged to 1.000D-10 1.000D-09 after    13 iterations.
 End of Minotr Frequency-dependent properties file   721 does not exist.
 End of Minotr Frequency-dependent properties file   722 does not exist.

 **********************************************************************

            Population analysis using the QCI/CC density.

 **********************************************************************

     Natural Orbital Coefficients:
                           1         2         3         4         5
     Eigenvalues --     2.00003   2.00003   2.00002   2.00001   2.00001
   1 1   C  1S          0.00000  -0.00013  -0.04328   0.08033   0.97619
   2        2S          0.00000  -0.00001   0.00131   0.00050  -0.01332
   3        3S          0.00000  -0.00001  -0.00132   0.00400   0.03985
   4        4S          0.00000   0.00019  -0.01265  -0.02360   0.00311
   5        5S          0.00000   0.00004  -0.00120  -0.00062  -0.00061
   6        6PX         0.00005   0.00000   0.00000   0.00000   0.00000
   7        6PY         0.00000   0.00005   0.00000   0.00000   0.00000
   8        6PZ         0.00000   0.00000   0.00053   0.00168   0.00087
   9        7PX         0.00084   0.00000   0.00000   0.00000   0.00000
  10        7PY         0.00000   0.00085   0.00001   0.00003   0.00001
  11        7PZ         0.00000   0.00000   0.00142   0.00304  -0.00091
  12        8PX         0.00456   0.00000   0.00000   0.00000   0.00000
  13        8PY         0.00000   0.00457  -0.00003  -0.00005   0.00000
  14        8PZ         0.00000   0.00001  -0.00373  -0.00410  -0.00309
  15        9PX         0.00042   0.00000   0.00000   0.00000   0.00000
  16        9PY         0.00000   0.00042   0.00000   0.00000   0.00000
  17        9PZ         0.00000   0.00000   0.00021   0.00017  -0.00049
  18       10D 0        0.00000   0.00000   0.00011   0.00033  -0.00057
  19       10D+1       -0.00015   0.00000   0.00000   0.00000   0.00000
  20       10D-1        0.00000  -0.00015   0.00000   0.00000   0.00000
  21       10D+2        0.00000   0.00004   0.00000   0.00000   0.00000
  22       10D-2        0.00004   0.00000   0.00000   0.00000   0.00000
  23       11D 0        0.00000  -0.00001   0.00022  -0.00009  -0.00029
  24       11D+1        0.00026   0.00000   0.00000   0.00000   0.00000
  25       11D-1        0.00000   0.00025  -0.00001  -0.00002  -0.00001
  26       11D+2        0.00000   0.00101   0.00000   0.00001   0.00001
  27       11D-2        0.00101   0.00000   0.00000   0.00000   0.00000
  28       12D 0        0.00000   0.00003  -0.00078   0.00122  -0.00236
  29       12D+1       -0.00130   0.00000   0.00000   0.00000   0.00000
  30       12D-1        0.00000  -0.00131  -0.00001  -0.00001   0.00000
  31       12D+2        0.00000   0.00163  -0.00001  -0.00001   0.00000
  32       12D-2        0.00162   0.00000   0.00000   0.00000   0.00000
  33       13F 0        0.00000   0.00000   0.00001   0.00003   0.00019
  34       13F+1       -0.00019   0.00000   0.00000   0.00000   0.00000
  35       13F-1        0.00000  -0.00019   0.00000   0.00000   0.00000
  36       13F+2        0.00000   0.00002   0.00000   0.00000   0.00000
  37       13F-2        0.00002   0.00000   0.00000   0.00000   0.00000
  38       13F+3        0.00000   0.00000   0.00000   0.00000   0.00000
  39       13F-3        0.00000   0.00000  -0.00006   0.00007   0.00090
  40       14F 0        0.00000  -0.00001  -0.00113  -0.00215  -0.00019
  41       14F+1        0.00057   0.00000   0.00000   0.00000   0.00000
  42       14F-1        0.00000   0.00058  -0.00001  -0.00002  -0.00001
  43       14F+2        0.00000   0.00033   0.00000   0.00000   0.00000
  44       14F-2        0.00035   0.00000   0.00000   0.00000   0.00000
  45       14F+3        0.00000   0.00000   0.00000   0.00000   0.00000
  46       14F-3        0.00000   0.00002  -0.00086  -0.00136  -0.00191
  47 2   H  1S          0.00000  -0.00016  -0.00002  -0.00035  -0.00135
  48        2S          0.00000   0.00116   0.00245   0.00335  -0.00065
  49        3S          0.00000   0.00869   0.00180   0.00524  -0.00433
  50        4S          0.00000  -0.00027   0.00011   0.00009  -0.00013
  51        5PX         0.00000   0.00000   0.00000   0.00000   0.00000
  52        5PY         0.00000   0.00003   0.00004  -0.00003  -0.00048
  53        5PZ         0.00000   0.00001   0.00001   0.00001  -0.00009
  54        6PX         0.00019   0.00000   0.00000   0.00000   0.00000
  55        6PY         0.00000   0.00066   0.00046   0.00071  -0.00080
  56        6PZ         0.00000   0.00061  -0.00001  -0.00011   0.00023
  57        7PX         0.00092   0.00000   0.00000   0.00000   0.00000
  58        7PY         0.00000   0.00210   0.00053   0.00135  -0.00102
  59        7PZ         0.00000   0.00025   0.00046   0.00091  -0.00006
  60        8D 0        0.00000   0.00004   0.00001   0.00006   0.00014
  61        8D+1       -0.00001   0.00000   0.00000   0.00000   0.00000
  62        8D-1        0.00000   0.00009   0.00002   0.00004  -0.00004
  63        8D+2        0.00000  -0.00005  -0.00004  -0.00005   0.00028
  64        8D-2        0.00001   0.00000   0.00000   0.00000   0.00000
  65        9D 0        0.00000   0.00038   0.00015   0.00025   0.00063
  66        9D+1        0.00025   0.00000   0.00000   0.00000   0.00000
  67        9D-1        0.00000   0.00013  -0.00014  -0.00025   0.00001
  68        9D+2        0.00000  -0.00013   0.00001   0.00002  -0.00010
  69        9D-2        0.00012   0.00000   0.00000   0.00000   0.00000
  70 3   H  1S         -0.00013   0.00008  -0.00002  -0.00035  -0.00135
  71        2S          0.00103  -0.00064   0.00245   0.00332  -0.00067
  72        3S          0.00753  -0.00438   0.00184   0.00532  -0.00435
  73        4S         -0.00024   0.00013   0.00011   0.00010  -0.00013
  74        5PX         0.00003  -0.00001   0.00004  -0.00002  -0.00042
  75        5PY        -0.00001   0.00001  -0.00002   0.00001   0.00024
  76        5PZ         0.00001  -0.00001   0.00001   0.00002  -0.00009
  77        6PX         0.00054  -0.00021   0.00039   0.00060  -0.00069
  78        6PY        -0.00020   0.00031  -0.00023  -0.00035   0.00040
  79        6PZ         0.00055  -0.00031  -0.00001  -0.00010   0.00024
  80        7PX         0.00180  -0.00052   0.00046   0.00117  -0.00088
  81        7PY        -0.00051   0.00122  -0.00027  -0.00068   0.00051
  82        7PZ         0.00024  -0.00014   0.00048   0.00093  -0.00006
  83        8D 0        0.00003  -0.00002   0.00001   0.00007   0.00014
  84        8D+1        0.00007  -0.00005   0.00002   0.00004  -0.00003
  85        8D-1       -0.00005   0.00001  -0.00001  -0.00002   0.00002
  86        8D+2        0.00003  -0.00001   0.00002   0.00003  -0.00014
  87        8D-2       -0.00003   0.00003  -0.00004  -0.00005   0.00024
  88        9D 0        0.00034  -0.00020   0.00015   0.00025   0.00063
  89        9D+1        0.00016   0.00005  -0.00012  -0.00022   0.00001
  90        9D-1        0.00006   0.00021   0.00007   0.00013  -0.00001
  91        9D+2        0.00011   0.00006  -0.00001  -0.00001   0.00005
  92        9D-2       -0.00007   0.00011   0.00001   0.00002  -0.00008
  93 4   H  1S          0.00013   0.00008  -0.00002  -0.00035  -0.00135
  94        2S         -0.00103  -0.00064   0.00245   0.00332  -0.00067
  95        3S         -0.00753  -0.00438   0.00184   0.00532  -0.00435
  96        4S          0.00024   0.00013   0.00011   0.00010  -0.00013
  97        5PX         0.00003   0.00001  -0.00004   0.00002   0.00042
  98        5PY         0.00001   0.00001  -0.00002   0.00001   0.00024
  99        5PZ        -0.00001  -0.00001   0.00001   0.00002  -0.00009
 100        6PX         0.00054   0.00021  -0.00039  -0.00060   0.00069
 101        6PY         0.00020   0.00031  -0.00023  -0.00035   0.00040
 102        6PZ        -0.00055  -0.00031  -0.00001  -0.00010   0.00024
 103        7PX         0.00180   0.00052  -0.00046  -0.00117   0.00088
 104        7PY         0.00051   0.00122  -0.00027  -0.00068   0.00051
 105        7PZ        -0.00024  -0.00014   0.00048   0.00093  -0.00006
 106        8D 0       -0.00003  -0.00002   0.00001   0.00007   0.00014
 107        8D+1        0.00007   0.00005  -0.00002  -0.00004   0.00003
 108        8D-1        0.00005   0.00001  -0.00001  -0.00002   0.00002
 109        8D+2       -0.00003  -0.00001   0.00002   0.00003  -0.00014
 110        8D-2       -0.00003  -0.00003   0.00004   0.00005  -0.00024
 111        9D 0       -0.00034  -0.00020   0.00015   0.00025   0.00063
 112        9D+1        0.00016  -0.00005   0.00012   0.00022  -0.00001
 113        9D-1       -0.00006   0.00021   0.00007   0.00013  -0.00001
 114        9D+2       -0.00011   0.00006  -0.00001  -0.00001   0.00005
 115        9D-2       -0.00007  -0.00011  -0.00001  -0.00002   0.00008
 116 5   Cl 1S          0.00000  -0.00007  -0.25059   0.14801  -0.02283
 117        2S          0.00000   0.00023   0.84589  -0.50031   0.07825
 118        3S          0.00000   0.00000  -0.02309   0.00933  -0.00239
 119        4S          0.00000   0.00002   0.06655  -0.04076   0.00643
 120        5S          0.00000  -0.00003  -0.00211   0.00777   0.00351
 121        6S          0.00000   0.00000  -0.00154  -0.00213   0.00300
 122        7PX         0.97886   0.00027   0.00009   0.00015  -0.00001
 123        7PY        -0.00027   0.97884   0.00346   0.00623  -0.00023
 124        7PZ        -0.00017  -0.00715   0.50089   0.83585  -0.04717
 125        8PX        -0.01915  -0.00001   0.00000   0.00000   0.00000
 126        8PY         0.00001  -0.01915  -0.00006  -0.00010   0.00000
 127        8PZ         0.00000   0.00015  -0.00878  -0.01404   0.00011
 128        9PX         0.05233   0.00001   0.00001   0.00001   0.00000
 129        9PY        -0.00001   0.05233   0.00020   0.00037  -0.00001
 130        9PZ        -0.00001  -0.00039   0.02844   0.04954  -0.00268
 131       10PX        -0.00578   0.00000   0.00000   0.00000   0.00000
 132       10PY         0.00000  -0.00578  -0.00003  -0.00002  -0.00003
 133       10PZ         0.00000   0.00006  -0.00435  -0.00275  -0.00347
 134       11PX        -0.00215   0.00000   0.00000   0.00000   0.00000
 135       11PY         0.00000  -0.00214   0.00000   0.00000   0.00000
 136       11PZ         0.00000   0.00001  -0.00036  -0.00015  -0.00053
 137       12D 0        0.00000   0.00000   0.00001  -0.00051  -0.00017
 138       12D+1       -0.00032   0.00000   0.00000   0.00000   0.00000
 139       12D-1        0.00000  -0.00032   0.00000  -0.00001   0.00000
 140       12D+2        0.00000   0.00001   0.00000   0.00000   0.00000
 141       12D-2        0.00001   0.00000   0.00000   0.00000   0.00000
 142       13D 0        0.00000  -0.00001   0.00088   0.00244   0.00042
 143       13D+1        0.00081   0.00000   0.00000   0.00000   0.00000
 144       13D-1        0.00000   0.00081   0.00001   0.00002   0.00000
 145       13D+2        0.00000  -0.00002   0.00000   0.00000   0.00000
 146       13D-2       -0.00002   0.00000   0.00000   0.00000   0.00000
 147       14D 0        0.00000   0.00001   0.00058  -0.00018   0.00080
 148       14D+1       -0.00071   0.00000   0.00000   0.00000   0.00000
 149       14D-1        0.00000  -0.00071   0.00001   0.00000   0.00001
 150       14D+2        0.00000   0.00003   0.00000   0.00000   0.00000
 151       14D-2        0.00003   0.00000   0.00000   0.00000   0.00000
 152       15F 0        0.00000   0.00000   0.00001  -0.00007  -0.00003
 153       15F+1       -0.00001   0.00000   0.00000   0.00000   0.00000
 154       15F-1        0.00000  -0.00001   0.00000   0.00000   0.00000
 155       15F+2        0.00000   0.00003   0.00000   0.00000   0.00000
 156       15F-2        0.00003   0.00000   0.00000   0.00000   0.00000
 157       15F+3        0.00000   0.00000   0.00000   0.00000   0.00000
 158       15F-3        0.00000   0.00000   0.00001   0.00003   0.00000
 159       16F 0        0.00000   0.00000  -0.00031  -0.00058  -0.00031
 160       16F+1       -0.00022   0.00000   0.00000   0.00000   0.00000
 161       16F-1        0.00000  -0.00022  -0.00001  -0.00001  -0.00001
 162       16F+2        0.00000  -0.00003   0.00000   0.00000   0.00000
 163       16F-2       -0.00004   0.00000   0.00000   0.00000   0.00000
 164       16F+3        0.00000   0.00000   0.00000   0.00000   0.00000
 165       16F-3        0.00000   0.00000  -0.00002  -0.00005   0.00002
 166 6   F  1S          0.00000   0.00001  -0.00144  -0.01041  -0.04976
 167        2S          0.00000   0.00000   0.00020   0.00043   0.00080
 168        3S          0.00000   0.00000  -0.00007  -0.00045  -0.00202
 169        4S          0.00000  -0.00001  -0.00055  -0.00105   0.00056
 170        5S          0.00000  -0.00004   0.00010  -0.00168   0.00178
 171        6PX        -0.00004   0.00000   0.00000   0.00000   0.00000
 172        6PY         0.00000  -0.00004   0.00000   0.00000   0.00000
 173        6PZ         0.00000   0.00000   0.00058   0.00111   0.00011
 174        7PX        -0.00001   0.00000   0.00000   0.00000   0.00000
 175        7PY         0.00000  -0.00001   0.00000   0.00000   0.00000
 176        7PZ         0.00000   0.00000   0.00069   0.00132   0.00002
 177        8PX        -0.00024   0.00000   0.00000   0.00000   0.00000
 178        8PY         0.00000  -0.00025   0.00000   0.00000   0.00000
 179        8PZ         0.00000  -0.00001   0.00008   0.00017   0.00048
 180        9PX        -0.00036   0.00000   0.00000   0.00000   0.00000
 181        9PY         0.00000  -0.00036   0.00000   0.00000   0.00000
 182        9PZ         0.00000  -0.00001   0.00017  -0.00009   0.00071
 183       10D 0        0.00000   0.00000   0.00001   0.00001  -0.00002
 184       10D+1       -0.00001   0.00000   0.00000   0.00000   0.00000
 185       10D-1        0.00000  -0.00001   0.00000   0.00000   0.00000
 186       10D+2        0.00000   0.00001   0.00000   0.00000   0.00000
 187       10D-2        0.00001   0.00000   0.00000   0.00000   0.00000
 188       11D 0        0.00000   0.00000  -0.00003  -0.00010   0.00001
 189       11D+1        0.00005   0.00000   0.00000   0.00000   0.00000
 190       11D-1        0.00000   0.00005   0.00000   0.00000   0.00000
 191       11D+2        0.00000  -0.00003   0.00000   0.00000   0.00000
 192       11D-2       -0.00003   0.00000   0.00000   0.00000   0.00000
 193       12D 0        0.00000   0.00000  -0.00019  -0.00012   0.00011
 194       12D+1       -0.00022   0.00000   0.00000   0.00000   0.00000
 195       12D-1        0.00000  -0.00023   0.00000   0.00000   0.00000
 196       12D+2        0.00000   0.00011   0.00000   0.00000   0.00000
 197       12D-2        0.00011   0.00000   0.00000   0.00000   0.00000
 198       13F 0        0.00000   0.00000   0.00001  -0.00001  -0.00004
 199       13F+1        0.00002   0.00000   0.00000   0.00000   0.00000
 200       13F-1        0.00000   0.00002   0.00000   0.00000   0.00000
 201       13F+2        0.00000  -0.00002   0.00000   0.00000   0.00000
 202       13F-2       -0.00002   0.00000   0.00000   0.00000   0.00000
 203       13F+3        0.00000   0.00000   0.00000   0.00000   0.00000
 204       13F-3        0.00000   0.00000   0.00000   0.00000   0.00000
 205       14F 0        0.00000   0.00000  -0.00004   0.00002   0.00013
 206       14F+1       -0.00006   0.00000   0.00000   0.00000   0.00000
 207       14F-1        0.00000  -0.00006   0.00000   0.00000   0.00000
 208       14F+2        0.00000   0.00004   0.00000   0.00000   0.00000
 209       14F-2        0.00004   0.00000   0.00000   0.00000   0.00000
 210       14F+3        0.00000   0.00000   0.00000   0.00000   0.00000
 211       14F-3        0.00000   0.00000   0.00000   0.00000  -0.00001
                           6         7         8         9        10
     Eigenvalues --     2.00000   2.00000   1.98361   1.97543   1.96949
   1 1   C  1S          0.05039  -0.00046   0.01542  -0.07338  -0.14372
   2        2S         -0.00012  -0.00001  -0.04201   0.19910   0.39728
   3        3S          0.00230  -0.00003  -0.01040   0.04619   0.09614
   4        4S         -0.00699   0.00016   0.00556   0.07907   0.19079
   5        5S         -0.00016   0.00010   0.00785  -0.00690  -0.02889
   6        6PX         0.00000   0.00000   0.00000   0.00000   0.00000
   7        6PY         0.00000   0.00000   0.00000   0.00018  -0.00015
   8        6PZ         0.00004   0.00000   0.00646   0.01034  -0.02723
   9        7PX         0.00000   0.00000   0.00000   0.00000   0.00000
  10        7PY         0.00000   0.00000   0.00001   0.00021  -0.00018
  11        7PZ        -0.00075   0.00000   0.00706   0.01790  -0.03246
  12        8PX         0.00000   0.00000   0.00000   0.00000   0.00000
  13        8PY         0.00001   0.00000   0.00009   0.00003  -0.00024
  14        8PZ         0.00519   0.00009   0.01660   0.00589  -0.02271
  15        9PX         0.00000   0.00000   0.00000   0.00000   0.00000
  16        9PY         0.00000   0.00000   0.00000   0.00000  -0.00006
  17        9PZ         0.00011   0.00001  -0.00071   0.00033  -0.00407
  18       10D 0        0.00004   0.00000   0.00051  -0.00214  -0.00956
  19       10D+1        0.00000   0.00000   0.00000   0.00000   0.00000
  20       10D-1        0.00000   0.00000   0.00000   0.00002  -0.00001
  21       10D+2        0.00000   0.00000   0.00000   0.00001  -0.00001
  22       10D-2        0.00000   0.00000   0.00000   0.00000   0.00000
  23       11D 0       -0.00023  -0.00002  -0.00529   0.00462  -0.01876
  24       11D+1        0.00000   0.00000   0.00000   0.00000  -0.00001
  25       11D-1        0.00000   0.00000   0.00000   0.00010  -0.00003
  26       11D+2        0.00000   0.00000   0.00001   0.00000  -0.00002
  27       11D-2        0.00000   0.00000   0.00000   0.00000   0.00000
  28       12D 0        0.00027   0.00008   0.00206  -0.00841  -0.01668
  29       12D+1        0.00000   0.00000   0.00000   0.00000  -0.00001
  30       12D-1        0.00000   0.00000   0.00002  -0.00003  -0.00007
  31       12D+2        0.00000   0.00000   0.00002  -0.00001   0.00000
  32       12D-2        0.00000   0.00000   0.00000   0.00000   0.00000
  33       13F 0       -0.00007   0.00000   0.00000   0.00242   0.00064
  34       13F+1        0.00000   0.00000   0.00000   0.00000   0.00000
  35       13F-1        0.00000   0.00000   0.00000   0.00002   0.00000
  36       13F+2        0.00000   0.00000   0.00000   0.00000   0.00000
  37       13F-2        0.00000   0.00000   0.00000   0.00000   0.00000
  38       13F+3        0.00000   0.00000   0.00000   0.00000   0.00000
  39       13F-3        0.00001   0.00000  -0.00014   0.00194   0.00397
  40       14F 0        0.00127  -0.00001   0.00471   0.00261  -0.00198
  41       14F+1        0.00000   0.00000   0.00000   0.00000   0.00000
  42       14F-1        0.00000   0.00000   0.00002   0.00002  -0.00002
  43       14F+2        0.00000   0.00000   0.00000   0.00002   0.00000
  44       14F-2        0.00000   0.00000   0.00000   0.00000   0.00000
  45       14F+3        0.00000   0.00000   0.00000   0.00000   0.00000
  46       14F-3       -0.00044   0.00003   0.00188  -0.00100   0.00404
  47 2   H  1S         -0.00008   0.00000  -0.00857   0.03707   0.08062
  48        2S          0.00098  -0.00006  -0.01528   0.04361   0.08382
  49        3S          0.00181   0.00004  -0.00079  -0.00491  -0.01209
  50        4S          0.00003   0.00000  -0.00046   0.00050   0.00035
  51        5PX         0.00000   0.00000   0.00000   0.00000   0.00000
  52        5PY         0.00001   0.00000  -0.00109   0.00398   0.00864
  53        5PZ        -0.00004   0.00000   0.00028   0.00095   0.00034
  54        6PX         0.00000   0.00000   0.00000   0.00000   0.00000
  55        6PY         0.00008   0.00000  -0.00072   0.00079   0.00121
  56        6PZ         0.00032  -0.00001   0.00008   0.00246  -0.00050
  57        7PX         0.00000   0.00000   0.00000   0.00000   0.00000
  58        7PY         0.00043   0.00001   0.00138  -0.00495  -0.01036
  59        7PZ        -0.00055   0.00001  -0.00279  -0.00172  -0.00131
  60        8D 0        0.00006   0.00000   0.00014  -0.00035  -0.00091
  61        8D+1        0.00000   0.00000   0.00000   0.00000   0.00000
  62        8D-1       -0.00001   0.00000  -0.00015   0.00050   0.00023
  63        8D+2       -0.00002   0.00000   0.00003  -0.00054  -0.00137
  64        8D-2        0.00000   0.00000   0.00000   0.00000   0.00000
  65        9D 0        0.00009  -0.00001  -0.00006   0.00123   0.00101
  66        9D+1        0.00000   0.00000   0.00000   0.00000   0.00000
  67        9D-1        0.00014   0.00000  -0.00006   0.00005  -0.00038
  68        9D+2        0.00004   0.00000  -0.00098   0.00225   0.00415
  69        9D-2        0.00000   0.00000   0.00000   0.00000   0.00000
  70 3   H  1S         -0.00008   0.00000  -0.00858   0.03722   0.08048
  71        2S          0.00097  -0.00006  -0.01533   0.04385   0.08366
  72        3S          0.00181   0.00004  -0.00096  -0.00490  -0.01201
  73        4S          0.00003   0.00000  -0.00047   0.00051   0.00041
  74        5PX         0.00001   0.00000  -0.00094   0.00346   0.00747
  75        5PY        -0.00001   0.00000   0.00054  -0.00199  -0.00432
  76        5PZ        -0.00004   0.00000   0.00028   0.00096   0.00035
  77        6PX         0.00006   0.00000  -0.00064   0.00070   0.00104
  78        6PY        -0.00004   0.00000   0.00037  -0.00040  -0.00062
  79        6PZ         0.00032  -0.00001   0.00008   0.00241  -0.00052
  80        7PX         0.00037   0.00001   0.00116  -0.00430  -0.00893
  81        7PY        -0.00022   0.00000  -0.00066   0.00248   0.00516
  82        7PZ        -0.00055   0.00001  -0.00281  -0.00174  -0.00132
  83        8D 0        0.00006   0.00000   0.00014  -0.00035  -0.00091
  84        8D+1       -0.00001   0.00000  -0.00013   0.00043   0.00020
  85        8D-1        0.00000   0.00000   0.00007  -0.00025  -0.00012
  86        8D+2        0.00001   0.00000  -0.00002   0.00027   0.00068
  87        8D-2       -0.00001   0.00000   0.00003  -0.00047  -0.00119
  88        9D 0        0.00009  -0.00001  -0.00006   0.00122   0.00101
  89        9D+1        0.00012   0.00000  -0.00005   0.00003  -0.00033
  90        9D-1       -0.00007   0.00000   0.00003  -0.00002   0.00019
  91        9D+2       -0.00002   0.00000   0.00049  -0.00113  -0.00208
  92        9D-2        0.00003   0.00000  -0.00085   0.00195   0.00360
  93 4   H  1S         -0.00008   0.00000  -0.00858   0.03722   0.08048
  94        2S          0.00097  -0.00006  -0.01533   0.04385   0.08366
  95        3S          0.00181   0.00004  -0.00096  -0.00490  -0.01201
  96        4S          0.00003   0.00000  -0.00047   0.00051   0.00041
  97        5PX        -0.00001   0.00000   0.00094  -0.00346  -0.00747
  98        5PY        -0.00001   0.00000   0.00054  -0.00199  -0.00432
  99        5PZ        -0.00004   0.00000   0.00028   0.00096   0.00035
 100        6PX        -0.00006   0.00000   0.00064  -0.00070  -0.00104
 101        6PY        -0.00004   0.00000   0.00037  -0.00040  -0.00061
 102        6PZ         0.00032  -0.00001   0.00008   0.00241  -0.00052
 103        7PX        -0.00037  -0.00001  -0.00117   0.00430   0.00893
 104        7PY        -0.00022   0.00000  -0.00066   0.00247   0.00516
 105        7PZ        -0.00055   0.00001  -0.00281  -0.00174  -0.00132
 106        8D 0        0.00006   0.00000   0.00014  -0.00035  -0.00091
 107        8D+1        0.00001   0.00000   0.00013  -0.00043  -0.00020
 108        8D-1        0.00000   0.00000   0.00007  -0.00025  -0.00012
 109        8D+2        0.00001   0.00000  -0.00002   0.00027   0.00068
 110        8D-2        0.00001   0.00000  -0.00003   0.00047   0.00119
 111        9D 0        0.00009  -0.00001  -0.00006   0.00122   0.00101
 112        9D+1       -0.00012   0.00000   0.00005  -0.00003   0.00033
 113        9D-1       -0.00007   0.00000   0.00003  -0.00001   0.00019
 114        9D+2       -0.00002   0.00000   0.00049  -0.00113  -0.00208
 115        9D-2       -0.00003   0.00000   0.00085  -0.00195  -0.00360
 116 5   Cl 1S          0.00007   0.99708  -0.00064   0.06648  -0.03479
 117        2S         -0.00007   0.01040   0.00292  -0.25193   0.13076
 118        3S          0.00005   0.00017  -0.00391   0.52472  -0.27821
 119        4S          0.00008   0.00026  -0.00025   0.06428  -0.03748
 120        5S         -0.00181  -0.00020  -0.01230   0.35096  -0.17054
 121        6S         -0.00050  -0.00011  -0.00461   0.02452   0.01130
 122        7PX         0.00000   0.00000   0.00000   0.00000   0.00001
 123        7PY         0.00005   0.00000   0.00001   0.00001   0.00011
 124        7PZ         0.00732   0.00016   0.00152   0.00459   0.02880
 125        8PX         0.00000   0.00000   0.00000   0.00000  -0.00001
 126        8PY         0.00000   0.00000  -0.00002   0.00004  -0.00028
 127        8PZ         0.00051  -0.00003  -0.00227  -0.00602  -0.07208
 128        9PX         0.00000   0.00000   0.00000   0.00000  -0.00001
 129        9PY         0.00000   0.00000  -0.00002   0.00003  -0.00012
 130        9PZ         0.00032   0.00003  -0.00264   0.00068  -0.03141
 131       10PX         0.00000   0.00000   0.00000   0.00000  -0.00001
 132       10PY         0.00001   0.00000   0.00004   0.00003  -0.00025
 133       10PZ         0.00096   0.00015   0.00271   0.00302  -0.05237
 134       11PX         0.00000   0.00000   0.00000   0.00000   0.00000
 135       11PY         0.00000   0.00000   0.00000   0.00001  -0.00004
 136       11PZ         0.00002   0.00002  -0.00040   0.00263  -0.00875
 137       12D 0       -0.00003   0.00001  -0.00035   0.00448   0.00453
 138       12D+1        0.00000   0.00000   0.00000   0.00000   0.00000
 139       12D-1        0.00000   0.00000   0.00000   0.00003   0.00004
 140       12D+2        0.00000   0.00000   0.00000   0.00000   0.00000
 141       12D-2        0.00000   0.00000   0.00000   0.00000   0.00000
 142       13D 0       -0.00022   0.00000  -0.00163   0.00820   0.00969
 143       13D+1        0.00000   0.00000   0.00000   0.00000   0.00000
 144       13D-1       -0.00001   0.00000  -0.00002   0.00007   0.00009
 145       13D+2        0.00000   0.00000   0.00000   0.00000   0.00000
 146       13D-2        0.00000   0.00000   0.00000   0.00000   0.00000
 147       14D 0       -0.00014  -0.00004  -0.00184  -0.00018   0.00538
 148       14D+1        0.00000   0.00000   0.00000   0.00000   0.00000
 149       14D-1       -0.00001   0.00000  -0.00003   0.00000   0.00008
 150       14D+2        0.00000   0.00000   0.00000   0.00000   0.00000
 151       14D-2        0.00000   0.00000   0.00000   0.00000   0.00000
 152       15F 0        0.00005   0.00000   0.00023  -0.00180  -0.00191
 153       15F+1        0.00000   0.00000   0.00000   0.00000   0.00000
 154       15F-1        0.00000   0.00000   0.00000  -0.00002  -0.00002
 155       15F+2        0.00000   0.00000   0.00000   0.00000   0.00000
 156       15F-2        0.00000   0.00000   0.00000   0.00000   0.00000
 157       15F+3        0.00000   0.00000   0.00000   0.00000   0.00000
 158       15F-3       -0.00001   0.00000  -0.00001   0.00002   0.00009
 159       16F 0       -0.00005   0.00001   0.00005  -0.00093  -0.00171
 160       16F+1        0.00000   0.00000   0.00000   0.00000   0.00000
 161       16F-1        0.00000   0.00000   0.00001  -0.00002  -0.00004
 162       16F+2        0.00000   0.00000   0.00000   0.00000   0.00000
 163       16F-2        0.00000   0.00000   0.00000   0.00000   0.00000
 164       16F+3        0.00000   0.00000   0.00000   0.00000   0.00000
 165       16F-3        0.00003   0.00000   0.00002  -0.00001  -0.00021
 166 6   F  1S          0.97743  -0.00002   0.21189   0.01315   0.02162
 167        2S         -0.01503   0.00000  -0.53161  -0.03405  -0.05732
 168        3S          0.04206   0.00000  -0.16471  -0.01081  -0.01853
 169        4S          0.00193  -0.00001  -0.36876  -0.02363  -0.04391
 170        5S         -0.00083  -0.00006  -0.04529   0.00420   0.00781
 171        6PX         0.00000   0.00000   0.00000   0.00000   0.00002
 172        6PY         0.00000   0.00000  -0.00004   0.00003   0.00009
 173        6PZ         0.00048   0.00000   0.01352   0.01270   0.08749
 174        7PX         0.00000   0.00000   0.00000   0.00000   0.00002
 175        7PY         0.00000   0.00000  -0.00005   0.00003   0.00011
 176        7PZ        -0.00012   0.00000   0.01475   0.01551   0.10527
 177        8PX         0.00000   0.00000   0.00000   0.00000   0.00002
 178        8PY         0.00000   0.00000  -0.00004   0.00003   0.00009
 179        8PZ         0.00240  -0.00001   0.01247   0.01225   0.08373
 180        9PX         0.00000   0.00000   0.00000   0.00000   0.00000
 181        9PY         0.00000   0.00000  -0.00001   0.00000   0.00003
 182        9PZ        -0.00008  -0.00002   0.00220   0.00316   0.02424
 183       10D 0       -0.00002   0.00000  -0.00013   0.00017   0.00060
 184       10D+1        0.00000   0.00000   0.00000   0.00000   0.00000
 185       10D-1        0.00000   0.00000   0.00000   0.00000   0.00000
 186       10D+2        0.00000   0.00000   0.00000   0.00000   0.00000
 187       10D-2        0.00000   0.00000   0.00000   0.00000   0.00000
 188       11D 0       -0.00003   0.00000  -0.00104   0.00091   0.00275
 189       11D+1        0.00000   0.00000   0.00000   0.00000   0.00000
 190       11D-1        0.00000   0.00000   0.00000   0.00000   0.00000
 191       11D+2        0.00000   0.00000   0.00000   0.00000   0.00000
 192       11D-2        0.00000   0.00000   0.00000   0.00000   0.00000
 193       12D 0        0.00080   0.00000  -0.00055   0.00035   0.00386
 194       12D+1        0.00000   0.00000   0.00000   0.00000   0.00000
 195       12D-1        0.00000   0.00000   0.00000   0.00000   0.00001
 196       12D+2        0.00000   0.00000   0.00000   0.00000   0.00000
 197       12D-2        0.00000   0.00000   0.00000   0.00000   0.00000
 198       13F 0       -0.00006   0.00000  -0.00002   0.00013   0.00027
 199       13F+1        0.00000   0.00000   0.00000   0.00000   0.00000
 200       13F-1        0.00000   0.00000   0.00000   0.00000   0.00000
 201       13F+2        0.00000   0.00000   0.00000   0.00000   0.00000
 202       13F-2        0.00000   0.00000   0.00000   0.00000   0.00000
 203       13F+3        0.00000   0.00000   0.00000   0.00000   0.00000
 204       13F-3        0.00001   0.00000   0.00001   0.00002   0.00003
 205       14F 0        0.00020   0.00000  -0.00040  -0.00006   0.00063
 206       14F+1        0.00000   0.00000   0.00000   0.00000   0.00000
 207       14F-1        0.00000   0.00000   0.00000   0.00000   0.00000
 208       14F+2        0.00000   0.00000   0.00000   0.00000   0.00000
 209       14F-2        0.00000   0.00000   0.00000   0.00000   0.00000
 210       14F+3        0.00000   0.00000   0.00000   0.00000   0.00000
 211       14F-3       -0.00001   0.00000  -0.00007  -0.00006  -0.00009
                          11        12        13        14        15
     Eigenvalues --     1.96437   1.96437   1.95923   1.95923   1.94911
   1 1   C  1S          0.00000   0.00006   0.00000  -0.00002   0.00030
   2        2S          0.00000  -0.00017   0.00000   0.00006  -0.00086
   3        3S          0.00000  -0.00004   0.00000   0.00002  -0.00019
   4        4S          0.00000  -0.00010   0.00000   0.00010  -0.00275
   5        5S          0.00000  -0.00011   0.00000   0.00013  -0.00041
   6        6PX         0.09786  -0.00102   0.23100  -0.00217   0.00005
   7        6PY         0.00102   0.09782   0.00217   0.23107   0.06785
   8        6PZ        -0.00002  -0.00014  -0.00004  -0.00023  -0.00044
   9        7PX         0.13111  -0.00137   0.30620  -0.00288   0.00007
  10        7PY         0.00137   0.13106   0.00288   0.30625   0.09431
  11        7PZ        -0.00003  -0.00019  -0.00006  -0.00028  -0.00060
  12        8PX         0.09601  -0.00100   0.23652  -0.00222   0.00005
  13        8PY         0.00100   0.09592   0.00222   0.23627   0.07256
  14        8PZ        -0.00002  -0.00015  -0.00005  -0.00034  -0.00050
  15        9PX        -0.00217   0.00002   0.01895  -0.00018   0.00001
  16        9PY        -0.00002  -0.00221   0.00018   0.01896   0.01226
  17        9PZ         0.00000   0.00000   0.00000  -0.00004  -0.00003
  18       10D 0        0.00000   0.00001   0.00000   0.00000   0.00009
  19       10D+1       -0.00271   0.00003  -0.00128   0.00001   0.00000
  20       10D-1       -0.00003  -0.00270  -0.00001  -0.00126  -0.00373
  21       10D+2        0.00007   0.00624   0.00014   0.01483   0.00504
  22       10D-2        0.00623  -0.00007   0.01481  -0.00015   0.00000
  23       11D 0        0.00000   0.00004   0.00000  -0.00002   0.00052
  24       11D+1       -0.01273   0.00013   0.00764  -0.00008  -0.00001
  25       11D-1       -0.00014  -0.01272   0.00006   0.00765  -0.01547
  26       11D+2        0.00022   0.02064   0.00044   0.04530   0.01714
  27       11D-2        0.02064  -0.00023   0.04537  -0.00044   0.00000
  28       12D 0        0.00000   0.00000   0.00000  -0.00001   0.00025
  29       12D+1       -0.00612   0.00006   0.00568  -0.00006   0.00000
  30       12D-1       -0.00007  -0.00606   0.00005   0.00570   0.00123
  31       12D+2        0.00022   0.02008   0.00035   0.03593   0.01011
  32       12D-2        0.02007  -0.00022   0.03606  -0.00035   0.00000
  33       13F 0        0.00000   0.00000   0.00000   0.00000   0.00000
  34       13F+1        0.00025   0.00000  -0.00201   0.00002   0.00000
  35       13F-1        0.00000   0.00025  -0.00002  -0.00201  -0.00223
  36       13F+2       -0.00001  -0.00064   0.00000  -0.00013  -0.00032
  37       13F-2       -0.00064   0.00001  -0.00012   0.00000   0.00000
  38       13F+3        0.00000   0.00000   0.00000   0.00000   0.00000
  39       13F-3        0.00000   0.00000   0.00000   0.00000  -0.00003
  40       14F 0        0.00000  -0.00001   0.00000  -0.00001   0.00002
  41       14F+1        0.00038   0.00000  -0.00583   0.00005   0.00000
  42       14F-1        0.00001   0.00038  -0.00005  -0.00584  -0.00728
  43       14F+2       -0.00004  -0.00388   0.00000  -0.00016  -0.00320
  44       14F-2       -0.00385   0.00004  -0.00010   0.00000   0.00000
  45       14F+3        0.00000   0.00000  -0.00001   0.00000   0.00000
  46       14F-3        0.00000   0.00000   0.00000   0.00000  -0.00016
  47 2   H  1S         -0.00071  -0.06734  -0.00144  -0.15158  -0.04698
  48        2S         -0.00064  -0.06075  -0.00147  -0.15452  -0.04586
  49        3S          0.00061   0.05783   0.00113   0.11903   0.00563
  50        4S         -0.00006  -0.00581   0.00017   0.01738   0.00113
  51        5PX         0.00209  -0.00002   0.00437  -0.00004   0.00000
  52        5PY        -0.00006  -0.00528  -0.00012  -0.01239  -0.00360
  53        5PZ         0.00000   0.00003  -0.00003  -0.00280   0.00015
  54        6PX         0.00803  -0.00008   0.01363  -0.00013   0.00000
  55        6PY         0.00008   0.00721   0.00011   0.01124   0.00570
  56        6PZ        -0.00003  -0.00279   0.00000   0.00037  -0.00118
  57        7PX         0.00926  -0.00010   0.01340  -0.00012   0.00000
  58        7PY         0.00015   0.01406   0.00043   0.04555   0.00983
  59        7PZ         0.00001   0.00068   0.00007   0.00758   0.00307
  60        8D 0        0.00000   0.00041   0.00001   0.00136   0.00040
  61        8D+1        0.00002   0.00000   0.00032   0.00000   0.00000
  62        8D-1       -0.00001  -0.00075   0.00000  -0.00024  -0.00029
  63        8D+2        0.00001   0.00060   0.00002   0.00192   0.00052
  64        8D-2        0.00105  -0.00001   0.00224  -0.00002   0.00000
  65        9D 0       -0.00001  -0.00055   0.00001   0.00147  -0.00017
  66        9D+1       -0.00153   0.00002   0.00101  -0.00001   0.00000
  67        9D-1       -0.00004  -0.00333   0.00003   0.00343  -0.00044
  68        9D+2       -0.00002  -0.00161  -0.00002  -0.00267  -0.00106
  69        9D-2        0.00165  -0.00002   0.00289  -0.00003   0.00000
  70 3   H  1S         -0.05794   0.03423  -0.13051   0.07706   0.02311
  71        2S         -0.05226   0.03088  -0.13291   0.07856   0.02312
  72        3S          0.04988  -0.02948   0.10301  -0.06054  -0.00231
  73        4S         -0.00495   0.00296   0.01497  -0.00884  -0.00054
  74        5PX        -0.00341   0.00322  -0.00813   0.00734   0.00200
  75        5PY         0.00320   0.00021   0.00726   0.00011  -0.00010
  76        5PZ         0.00002  -0.00002  -0.00241   0.00142  -0.00011
  77        6PX         0.00742   0.00028   0.01186   0.00093  -0.00075
  78        6PY         0.00044   0.00782   0.00117   0.01300   0.00416
  79        6PZ        -0.00239   0.00141   0.00036  -0.00020   0.00057
  80        7PX         0.01284  -0.00222   0.03746  -0.01432  -0.00286
  81        7PY        -0.00197   0.01048  -0.01375   0.02151   0.00446
  82        7PZ         0.00054  -0.00034   0.00657  -0.00387  -0.00139
  83        8D 0        0.00035  -0.00021   0.00117  -0.00069  -0.00020
  84        8D+1       -0.00055   0.00034  -0.00010   0.00024   0.00011
  85        8D-1        0.00033  -0.00018   0.00024   0.00017  -0.00010
  86        8D+2        0.00020   0.00094   0.00016   0.00216   0.00058
  87        8D-2        0.00072   0.00019   0.00200   0.00012   0.00004
  88        9D 0       -0.00046   0.00028   0.00126  -0.00074   0.00009
  89        9D+1       -0.00287   0.00081   0.00281  -0.00108  -0.00029
  90        9D-1        0.00076  -0.00200  -0.00103   0.00160  -0.00101
  91        9D+2        0.00142   0.00082   0.00242   0.00146   0.00058
  92        9D-2       -0.00078   0.00142  -0.00126   0.00241   0.00096
  93 4   H  1S          0.05865   0.03300   0.13195   0.07457   0.02316
  94        2S          0.05290   0.02977   0.13439   0.07601   0.02317
  95        3S         -0.05049  -0.02842  -0.10415  -0.05857  -0.00231
  96        4S          0.00501   0.00285  -0.01513  -0.00856  -0.00054
  97        5PX        -0.00347  -0.00315  -0.00827  -0.00718  -0.00201
  98        5PY        -0.00319   0.00028  -0.00725   0.00025  -0.00011
  99        5PZ        -0.00002  -0.00002   0.00244   0.00137  -0.00011
 100        6PX         0.00741  -0.00044   0.01184  -0.00115   0.00075
 101        6PY        -0.00028   0.00783  -0.00093   0.01302   0.00416
 102        6PZ         0.00241   0.00136  -0.00037  -0.00019   0.00058
 103        7PX         0.01288   0.00195   0.03773   0.01361   0.00287
 104        7PY         0.00219   0.01044   0.01415   0.02124   0.00447
 105        7PZ        -0.00056  -0.00033  -0.00665  -0.00374  -0.00140
 106        8D 0       -0.00036  -0.00020  -0.00118  -0.00067  -0.00020
 107        8D+1       -0.00056  -0.00033  -0.00010  -0.00024  -0.00011
 108        8D-1       -0.00033  -0.00017  -0.00024   0.00018  -0.00010
 109        8D+2       -0.00018   0.00094  -0.00012   0.00216   0.00058
 110        8D-2        0.00071  -0.00020   0.00200  -0.00016  -0.00003
 111        9D 0        0.00047   0.00027  -0.00127  -0.00072   0.00009
 112        9D+1       -0.00289  -0.00075   0.00283   0.00103   0.00029
 113        9D-1       -0.00080  -0.00198   0.00106   0.00158  -0.00101
 114        9D+2       -0.00140   0.00085  -0.00239   0.00151   0.00057
 115        9D-2       -0.00081  -0.00141  -0.00130  -0.00239  -0.00096
 116 5   Cl 1S          0.00000  -0.00003   0.00000  -0.00008   0.00005
 117        2S          0.00000   0.00010   0.00000   0.00030  -0.00020
 118        3S          0.00000  -0.00022  -0.00001  -0.00063   0.00040
 119        4S          0.00000  -0.00003   0.00000  -0.00010   0.00006
 120        5S          0.00000  -0.00018  -0.00001  -0.00058   0.00027
 121        6S          0.00000   0.00006   0.00000  -0.00012   0.00006
 122        7PX        -0.00882   0.00009  -0.04368   0.00041   0.00017
 123        7PY        -0.00009  -0.00878  -0.00041  -0.04352   0.22359
 124        7PZ         0.00000   0.00009   0.00001   0.00045  -0.00113
 125        8PX         0.02088  -0.00022   0.10321  -0.00097  -0.00038
 126        8PY         0.00022   0.02079   0.00097   0.10284  -0.51150
 127        8PZ        -0.00001  -0.00020  -0.00003  -0.00102   0.00259
 128        9PX         0.00969  -0.00010   0.04774  -0.00045  -0.00018
 129        9PY         0.00010   0.00964   0.00045   0.04756  -0.24709
 130        9PZ         0.00000  -0.00010  -0.00001  -0.00048   0.00125
 131       10PX         0.01042  -0.00011   0.05587  -0.00053  -0.00027
 132       10PY         0.00011   0.01037   0.00052   0.05568  -0.36766
 133       10PZ         0.00000  -0.00011  -0.00001  -0.00044   0.00174
 134       11PX         0.00212  -0.00002   0.00340  -0.00003  -0.00005
 135       11PY         0.00002   0.00212   0.00003   0.00338  -0.06214
 136       11PZ         0.00000  -0.00004   0.00000   0.00002   0.00025
 137       12D 0        0.00000   0.00003   0.00000   0.00011  -0.00001
 138       12D+1       -0.00189   0.00002  -0.00620   0.00006   0.00000
 139       12D-1       -0.00002  -0.00188  -0.00006  -0.00616   0.00023
 140       12D+2        0.00000   0.00012   0.00000   0.00057   0.00024
 141       12D-2        0.00010   0.00000   0.00052  -0.00001   0.00000
 142       13D 0        0.00000   0.00004   0.00000   0.00016  -0.00002
 143       13D+1       -0.00291   0.00003  -0.01096   0.00010   0.00000
 144       13D-1       -0.00003  -0.00290  -0.00010  -0.01095   0.00070
 145       13D+2        0.00000   0.00034   0.00000   0.00070   0.00056
 146       13D-2        0.00031   0.00000   0.00059  -0.00001   0.00000
 147       14D 0        0.00000   0.00000   0.00000   0.00001   0.00001
 148       14D+1        0.00006   0.00000   0.00005   0.00000   0.00000
 149       14D-1        0.00000   0.00007   0.00000   0.00004   0.00337
 150       14D+2       -0.00001  -0.00066   0.00000  -0.00008   0.00005
 151       14D-2       -0.00065   0.00001  -0.00006   0.00000   0.00000
 152       15F 0        0.00000  -0.00001   0.00000  -0.00004   0.00003
 153       15F+1        0.00089  -0.00001   0.00263  -0.00002   0.00000
 154       15F-1        0.00001   0.00088   0.00002   0.00262  -0.00141
 155       15F+2        0.00000  -0.00012   0.00000  -0.00036  -0.00009
 156       15F-2       -0.00010   0.00000  -0.00032   0.00000   0.00000
 157       15F+3        0.00000   0.00000   0.00000   0.00000   0.00000
 158       15F-3        0.00000   0.00000   0.00000   0.00000   0.00000
 159       16F 0        0.00000  -0.00001   0.00000  -0.00003   0.00003
 160       16F+1        0.00059  -0.00001   0.00200  -0.00002   0.00000
 161       16F-1        0.00001   0.00059   0.00002   0.00202  -0.00180
 162       16F+2        0.00000   0.00001   0.00000   0.00017  -0.00019
 163       16F-2        0.00002   0.00000   0.00020   0.00000   0.00000
 164       16F+3        0.00000   0.00000   0.00000   0.00000   0.00000
 165       16F-3        0.00000   0.00000   0.00000   0.00000   0.00000
 166 6   F  1S          0.00000   0.00001   0.00000   0.00001  -0.00008
 167        2S          0.00000  -0.00003   0.00000  -0.00001   0.00016
 168        3S          0.00000  -0.00001   0.00000  -0.00001   0.00005
 169        4S          0.00000  -0.00002   0.00000  -0.00005   0.00011
 170        5S          0.00000  -0.00001   0.00000  -0.00009   0.00008
 171        6PX         0.33218  -0.00347  -0.16198   0.00152  -0.00002
 172        6PY         0.00347   0.33220  -0.00152  -0.16194  -0.02260
 173        6PZ        -0.00005   0.00016   0.00003  -0.00009   0.00271
 174        7PX         0.39625  -0.00414  -0.19207   0.00180  -0.00002
 175        7PY         0.00414   0.39628  -0.00180  -0.19201  -0.02675
 176        7PZ        -0.00007   0.00020   0.00003  -0.00010   0.00323
 177        8PX         0.32035  -0.00334  -0.16157   0.00152  -0.00002
 178        8PY         0.00334   0.32038  -0.00152  -0.16152  -0.02291
 179        8PZ        -0.00005   0.00015   0.00003  -0.00012   0.00269
 180        9PX         0.10070  -0.00105  -0.05697   0.00053  -0.00001
 181        9PY         0.00105   0.10071  -0.00054  -0.05696  -0.01115
 182        9PZ        -0.00002   0.00005   0.00001  -0.00006   0.00085
 183       10D 0        0.00000   0.00000   0.00000   0.00000   0.00001
 184       10D+1        0.00060  -0.00001   0.00009   0.00000   0.00000
 185       10D-1        0.00001   0.00060   0.00000   0.00009   0.00012
 186       10D+2        0.00000   0.00002   0.00000   0.00004   0.00001
 187       10D-2        0.00002   0.00000   0.00004   0.00000   0.00000
 188       11D 0        0.00000   0.00000   0.00000   0.00000   0.00002
 189       11D+1        0.00242  -0.00003   0.00122  -0.00001   0.00000
 190       11D-1        0.00003   0.00242   0.00001   0.00122   0.00059
 191       11D+2        0.00000   0.00005   0.00000   0.00025   0.00018
 192       11D-2        0.00005   0.00000   0.00025   0.00000   0.00000
 193       12D 0        0.00000   0.00000   0.00000  -0.00001   0.00009
 194       12D+1        0.00593  -0.00006  -0.00356   0.00003   0.00000
 195       12D-1        0.00006   0.00593  -0.00003  -0.00355   0.00031
 196       12D+2        0.00000   0.00004   0.00000  -0.00028  -0.00037
 197       12D-2        0.00003   0.00000  -0.00028   0.00000   0.00000
 198       13F 0        0.00000   0.00000   0.00000   0.00000   0.00000
 199       13F+1        0.00022   0.00000   0.00025   0.00000   0.00000
 200       13F-1        0.00000   0.00022   0.00000   0.00025   0.00006
 201       13F+2        0.00000   0.00005   0.00000   0.00011   0.00006
 202       13F-2        0.00005   0.00000   0.00011   0.00000   0.00000
 203       13F+3        0.00000   0.00000   0.00000   0.00000   0.00000
 204       13F-3        0.00000   0.00000   0.00000   0.00000   0.00000
 205       14F 0        0.00000   0.00000   0.00000   0.00000   0.00001
 206       14F+1        0.00146  -0.00002  -0.00087   0.00001   0.00000
 207       14F-1        0.00002   0.00146  -0.00001  -0.00087   0.00001
 208       14F+2        0.00000  -0.00013   0.00000  -0.00024  -0.00016
 209       14F-2       -0.00013   0.00000  -0.00024   0.00000   0.00000
 210       14F+3        0.00000   0.00000   0.00000   0.00000   0.00000
 211       14F-3        0.00000   0.00000   0.00000   0.00000   0.00000
                          16        17        18        19        20
     Eigenvalues --     1.94911   1.94879   1.93535   0.06018   0.02494
   1 1   C  1S          0.00000   0.05334  -0.01580  -0.02406   0.00006
   2        2S          0.00000  -0.15185   0.05098   0.06679  -0.00027
   3        3S          0.00000  -0.03584   0.01676   0.02431  -0.00016
   4        4S         -0.00001  -0.29232   0.08711  -0.22161   0.00192
   5        5S          0.00000  -0.05764   0.03919  -0.02903   0.00044
   6        6PX         0.06816  -0.00001  -0.00002   0.00005   0.00428
   7        6PY        -0.00005  -0.00057   0.00012   0.00018   0.15449
   8        6PZ        -0.00001  -0.04569  -0.12871   0.27936  -0.00011
   9        7PX         0.09471  -0.00001  -0.00003   0.00008   0.00794
  10        7PY        -0.00007  -0.00085   0.00016   0.00021   0.28663
  11        7PZ        -0.00002  -0.06474  -0.18058   0.44329  -0.00019
  12        8PX         0.07285  -0.00001  -0.00001   0.00004   0.00365
  13        8PY        -0.00005  -0.00086   0.00043  -0.00008   0.13106
  14        8PZ        -0.00001  -0.06421  -0.07659   0.20175   0.00034
  15        9PX         0.01226   0.00000   0.00000   0.00000   0.00082
  16        9PY        -0.00001  -0.00012   0.00012  -0.00009   0.02941
  17        9PZ         0.00000  -0.00123  -0.00166  -0.00006  -0.00013
  18       10D 0        0.00000   0.00935  -0.01106  -0.00881  -0.00004
  19       10D+1       -0.00374   0.00000   0.00000   0.00000   0.00071
  20       10D-1        0.00000   0.00005  -0.00006  -0.00005   0.02552
  21       10D+2        0.00000  -0.00004   0.00002   0.00002   0.00389
  22       10D-2        0.00501   0.00000   0.00000   0.00000   0.00011
  23       11D 0        0.00001   0.04984  -0.04570   0.06670  -0.00019
  24       11D+1       -0.01548   0.00002  -0.00001   0.00002   0.00165
  25       11D-1        0.00001   0.00023  -0.00020   0.00053   0.05983
  26       11D+2       -0.00001  -0.00020   0.00009  -0.00001   0.06985
  27       11D-2        0.01702   0.00000   0.00000   0.00000   0.00193
  28       12D 0        0.00000   0.02816  -0.00380  -0.01697   0.00003
  29       12D+1        0.00114   0.00001   0.00000  -0.00001   0.00052
  30       12D-1        0.00000   0.00003   0.00002   0.00000   0.01865
  31       12D+2        0.00000  -0.00019   0.00006  -0.00001   0.01433
  32       12D-2        0.01011   0.00000   0.00000   0.00000   0.00041
  33       13F 0        0.00000  -0.00208  -0.00328  -0.00586   0.00000
  34       13F+1       -0.00223   0.00000   0.00000   0.00000  -0.00027
  35       13F-1        0.00000   0.00002  -0.00004   0.00001  -0.00957
  36       13F+2        0.00000   0.00001   0.00000   0.00002   0.00313
  37       13F-2       -0.00034   0.00000   0.00000   0.00000   0.00008
  38       13F+3        0.00000   0.00000   0.00000   0.00000   0.00000
  39       13F-3        0.00000  -0.00308   0.00115  -0.00053   0.00001
  40       14F 0        0.00000  -0.00547  -0.00087   0.01161   0.00009
  41       14F+1       -0.00724   0.00000   0.00000   0.00000  -0.00007
  42       14F-1        0.00001   0.00004  -0.00003   0.00019  -0.00251
  43       14F+2        0.00000   0.00003  -0.00001   0.00019  -0.00226
  44       14F-2       -0.00329   0.00000   0.00000   0.00001  -0.00006
  45       14F+3        0.00000  -0.00001   0.00000  -0.00001   0.00000
  46       14F-3        0.00000  -0.01509   0.00917  -0.03771   0.00014
  47 2   H  1S          0.00003  -0.03340   0.02868  -0.00711   0.04056
  48        2S          0.00003  -0.00282   0.02265   0.07937   0.25748
  49        3S          0.00000   0.02163   0.02031   0.06862   0.16357
  50        4S          0.00000   0.00013   0.00196   0.00713   0.07192
  51        5PX         0.00107   0.00000   0.00000   0.00000   0.00007
  52        5PY         0.00000  -0.00212   0.00248  -0.00204  -0.00878
  53        5PZ         0.00000  -0.00268  -0.00321   0.01429  -0.01218
  54        6PX         0.00376   0.00000   0.00000   0.00001   0.00021
  55        6PY         0.00000   0.00544  -0.00150   0.00971   0.05889
  56        6PZ         0.00000  -0.00101  -0.01028   0.02851  -0.00579
  57        7PX         0.00284   0.00000   0.00000   0.00000  -0.00004
  58        7PY        -0.00001   0.01095  -0.00156   0.01269   0.05039
  59        7PZ         0.00000   0.00802   0.00312  -0.01385   0.00510
  60        8D 0        0.00000   0.00014  -0.00084   0.00063   0.00256
  61        8D+1       -0.00003   0.00000   0.00000   0.00000   0.00005
  62        8D-1        0.00000  -0.00020  -0.00171   0.00676  -0.00400
  63        8D+2        0.00000   0.00052  -0.00060   0.00187   0.00259
  64        8D-2        0.00060   0.00000   0.00000   0.00000   0.00006
  65        9D 0        0.00000   0.00083  -0.00282   0.00605  -0.00329
  66        9D+1       -0.00118   0.00000   0.00000   0.00000   0.00013
  67        9D-1        0.00000   0.00203  -0.00055  -0.00580   0.01544
  68        9D+2        0.00000   0.00110   0.00035  -0.00113  -0.00948
  69        9D-2        0.00113   0.00000   0.00000   0.00000   0.00004
  70 3   H  1S         -0.04059  -0.03399   0.02893  -0.00669  -0.01923
  71        2S         -0.03998  -0.00326   0.02291   0.08030  -0.12309
  72        3S          0.00470   0.02216   0.02033   0.06883  -0.07822
  73        4S          0.00093   0.00011   0.00191   0.00727  -0.03427
  74        5PX        -0.00244  -0.00187   0.00216  -0.00173   0.00483
  75        5PY         0.00203   0.00107  -0.00124   0.00101   0.00004
  76        5PZ         0.00016  -0.00267  -0.00322   0.01430   0.00581
  77        6PX         0.00515   0.00480  -0.00134   0.00856  -0.02111
  78        6PY        -0.00080  -0.00281   0.00078  -0.00489   0.01976
  79        6PZ        -0.00102  -0.00099  -0.01029   0.02805   0.00276
  80        7PX         0.00803   0.00964  -0.00144   0.01104  -0.02169
  81        7PY        -0.00300  -0.00565   0.00086  -0.00635   0.01063
  82        7PZ         0.00254   0.00811   0.00319  -0.01408  -0.00243
  83        8D 0        0.00036   0.00015  -0.00085   0.00059  -0.00122
  84        8D+1       -0.00023  -0.00018  -0.00148   0.00581   0.00244
  85        8D-1        0.00012   0.00010   0.00085  -0.00336   0.00042
  86        8D+2        0.00003  -0.00027   0.00030  -0.00092   0.00221
  87        8D-2        0.00054   0.00045  -0.00053   0.00161  -0.00013
  88        9D 0       -0.00012   0.00083  -0.00283   0.00593   0.00155
  89        9D+1       -0.00064   0.00175  -0.00047  -0.00512  -0.00441
  90        9D-1       -0.00031  -0.00100   0.00028   0.00298   0.00704
  91        9D+2        0.00096  -0.00055  -0.00017   0.00057  -0.00139
  92        9D-2       -0.00053   0.00093   0.00031  -0.00098   0.00440
  93 4   H  1S          0.04056  -0.03400   0.02893  -0.00669  -0.02116
  94        2S          0.03995  -0.00326   0.02291   0.08030  -0.13541
  95        3S         -0.00470   0.02216   0.02033   0.06883  -0.08608
  96        4S         -0.00093   0.00011   0.00191   0.00727  -0.03771
  97        5PX        -0.00244   0.00187  -0.00216   0.00173  -0.00515
  98        5PY        -0.00202   0.00107  -0.00124   0.00101  -0.00023
  99        5PZ        -0.00015  -0.00267  -0.00322   0.01430   0.00640
 100        6PX         0.00515  -0.00480   0.00133  -0.00855   0.02365
 101        6PY         0.00079  -0.00281   0.00078  -0.00488   0.02098
 102        6PZ         0.00101  -0.00099  -0.01030   0.02805   0.00302
 103        7PX         0.00802  -0.00964   0.00144  -0.01104   0.02376
 104        7PY         0.00299  -0.00565   0.00086  -0.00635   0.01187
 105        7PZ        -0.00254   0.00811   0.00319  -0.01408  -0.00270
 106        8D 0       -0.00036   0.00015  -0.00085   0.00059  -0.00134
 107        8D+1       -0.00023   0.00018   0.00148  -0.00581  -0.00258
 108        8D-1       -0.00012   0.00010   0.00085  -0.00336   0.00028
 109        8D+2       -0.00003  -0.00027   0.00030  -0.00093   0.00222
 110        8D-2        0.00054  -0.00045   0.00053  -0.00161   0.00027
 111        9D 0        0.00012   0.00083  -0.00283   0.00592   0.00171
 112        9D+1       -0.00064  -0.00175   0.00046   0.00512   0.00511
 113        9D-1        0.00031  -0.00100   0.00028   0.00298   0.00730
 114        9D+2       -0.00096  -0.00055  -0.00017   0.00057  -0.00164
 115        9D-2       -0.00053  -0.00093  -0.00031   0.00098  -0.00477
 116 5   Cl 1S          0.00000   0.01021   0.00050  -0.01679  -0.00001
 117        2S          0.00000  -0.03897  -0.00167   0.05629   0.00007
 118        3S          0.00000   0.08054   0.01125  -0.15673  -0.00003
 119        4S          0.00000   0.01243   0.00452  -0.03985  -0.00002
 120        5S          0.00000   0.06906   0.01221  -0.04599  -0.00053
 121        6S          0.00000   0.02044  -0.01254   0.01585  -0.00035
 122        7PX         0.22357   0.00000  -0.00004  -0.00003   0.00058
 123        7PY        -0.00017  -0.00158  -0.00124  -0.00106   0.02105
 124        7PZ        -0.00004   0.02664  -0.21012  -0.16340  -0.00020
 125        8PX        -0.51147   0.00000   0.00008   0.00006  -0.00090
 126        8PY         0.00038   0.00362   0.00273   0.00231  -0.03284
 127        8PZ         0.00009  -0.06221   0.46462   0.36064   0.00050
 128        9PX        -0.24707   0.00000   0.00004   0.00004  -0.00097
 129        9PY         0.00018   0.00174   0.00127   0.00134  -0.03498
 130        9PZ         0.00004  -0.03102   0.21829   0.20646   0.00030
 131       10PX        -0.36766   0.00000   0.00006   0.00001   0.00046
 132       10PY         0.00027   0.00247   0.00179   0.00016   0.01695
 133       10PZ         0.00006  -0.07222   0.31777   0.02930   0.00031
 134       11PX        -0.06216   0.00000   0.00001   0.00000   0.00016
 135       11PY         0.00005   0.00038   0.00020   0.00006   0.00593
 136       11PZ         0.00001  -0.02401   0.04619   0.00728   0.00012
 137       12D 0        0.00000  -0.00472  -0.01240   0.06747   0.00095
 138       12D+1        0.00021   0.00000   0.00000   0.00002  -0.00160
 139       12D-1        0.00000  -0.00003  -0.00016   0.00068  -0.05788
 140       12D+2        0.00000  -0.00001   0.00000   0.00001   0.00133
 141       12D-2        0.00025   0.00000   0.00000   0.00000   0.00001
 142       13D 0        0.00000  -0.00754  -0.01943   0.09788   0.00134
 143       13D+1        0.00067   0.00000  -0.00001   0.00003  -0.00239
 144       13D-1        0.00000  -0.00007  -0.00025   0.00108  -0.08643
 145       13D+2        0.00000   0.00000   0.00000   0.00000   0.00208
 146       13D-2        0.00056   0.00000   0.00000   0.00000   0.00001
 147       14D 0        0.00000   0.00153  -0.01323   0.03014   0.00006
 148       14D+1        0.00334   0.00000   0.00000   0.00001  -0.00026
 149       14D-1        0.00000   0.00000  -0.00015   0.00031  -0.00950
 150       14D+2        0.00000   0.00000   0.00000   0.00001   0.00039
 151       14D-2        0.00008   0.00000   0.00000   0.00000   0.00001
 152       15F 0        0.00000   0.00098   0.00459  -0.00358  -0.00008
 153       15F+1       -0.00140   0.00000   0.00000   0.00000   0.00014
 154       15F-1        0.00000   0.00003   0.00007  -0.00005   0.00496
 155       15F+2        0.00000   0.00000   0.00000  -0.00001  -0.00026
 156       15F-2       -0.00012   0.00000   0.00000   0.00000   0.00000
 157       15F+3        0.00000   0.00000   0.00000   0.00000   0.00000
 158       15F-3        0.00000  -0.00007   0.00004   0.00004   0.00000
[...]
  79        6PZ        -0.33403   0.02995  -0.02652  -0.16376   0.14225
  80        7PX         1.07771  -0.41297  -9.81894  -1.75287   4.60358
  81        7PY        -1.01819 -10.27437  -0.44083   0.98171  -4.76371
  82        7PZ        -1.47190   1.73045  -2.90782   0.01820   0.70433
  83        8D 0       -0.03734  -0.00312   0.01004   0.02525  -0.01618
  84        8D+1        0.00972  -0.00841  -0.02920   0.00852  -0.00986
  85        8D-1       -0.00766  -0.03800  -0.00737  -0.00479   0.00896
  86        8D+2        0.06767   0.08881   0.04794   0.02423   0.03068
  87        8D-2       -0.10795   0.05440   0.03483  -0.04167  -0.02296
  88        9D 0       -0.51126  -0.22114   0.41059  -0.14711  -0.22629
  89        9D+1       -0.21435   0.26653  -0.04871  -0.03898   0.17814
  90        9D-1        0.13945   0.23964   0.25412   0.02049  -0.15897
  91        9D+2       -0.15891  -1.03064  -1.37409  -0.36075  -0.13994
  92        9D-2        0.14775  -1.39845   0.56136   0.61828  -0.35143
  93 4   H  1S         -0.03520  -0.00306  -0.00985  -0.00888   0.02361
  94        2S          0.29061   1.71807   3.00124  -0.53456  -1.96498
  95        3S          7.92973  13.65210  24.29451  -3.24920 -22.82765
  96        4S          1.48813  -1.02512  -1.59416  -2.00772  -9.81243
  97        5PX        -0.02633   0.00290   0.10619  -0.08128  -0.07666
  98        5PY        -0.01154   0.10715   0.00175  -0.04632  -0.07294
  99        5PZ         0.06002   0.00266   0.00880   0.03081   0.00924
 100        6PX        -0.59004  -0.38147  -2.15715   0.61299   0.88627
 101        6PY        -0.39627  -1.68817  -0.41459   0.34928   0.79689
 102        6PZ        -0.33384   0.03006   0.02717  -0.16397  -0.14663
 103        7PX        -1.07490   0.41738  -9.81791   1.75290   4.84184
 104        7PY        -1.01822 -10.27468   0.43614   0.98125   4.72423
 105        7PZ        -1.47266   1.72837   2.91184   0.01767  -0.72612
 106        8D 0       -0.03733  -0.00312  -0.01005   0.02526   0.01664
 107        8D+1       -0.00976   0.00838  -0.02919  -0.00852  -0.01029
 108        8D-1       -0.00770  -0.03799   0.00734  -0.00480  -0.00893
 109        8D+2        0.06774   0.08882  -0.04784   0.02425  -0.03011
 110        8D-2        0.10790  -0.05447   0.03487   0.04166  -0.02447
 111        9D 0       -0.51126  -0.22070  -0.41091  -0.14713   0.23299
 112        9D+1        0.21415  -0.26620  -0.04960   0.03901   0.18611
 113        9D-1        0.13955   0.23939  -0.25410   0.02069   0.15898
 114        9D+2       -0.15942  -1.03089   1.37361  -0.36102   0.11494
 115        9D-2       -0.14782   1.39868   0.56143  -0.61807  -0.34472
 116 5   Cl 1S          0.02030  -0.00083   0.00000   0.01177   0.00000
 117        2S          0.28082  -0.01152   0.00005   0.16374  -0.00003
 118        3S          0.78300  -0.03211   0.00014   0.46004  -0.00008
 119        4S         -0.04217   0.00174  -0.00001  -0.01472   0.00001
 120        5S         -4.35964   0.18467  -0.00080  -3.02600   0.00062
 121        6S         -9.82250   0.36178  -0.00168 -13.25269   0.00125
 122        7PX         0.00000   0.00000   0.00078   0.00000  -0.00295
 123        7PY        -0.00005   0.00079   0.00000  -0.00014  -0.00007
 124        7PZ        -0.00459   0.00005   0.00000  -0.02274   0.00000
 125        8PX        -0.00001   0.00000   0.01812  -0.00005  -0.05895
 126        8PY        -0.00070   0.01860   0.00000  -0.00278  -0.00149
 127        8PZ        -0.06474   0.00044  -0.00001  -0.31759   0.00004
 128        9PX         0.00000   0.00000  -0.00390   0.00001   0.00992
 129        9PY         0.00006  -0.00390   0.00000   0.00043   0.00025
 130        9PZ         0.00190   0.00046   0.00000   0.07964  -0.00001
 131       10PX         0.00105  -0.00003  -0.05928   0.00090   0.42208
 132       10PY         0.03194  -0.07294  -0.00001   0.04106   0.01054
 133       10PZ         5.91753  -0.23161   0.00106   5.08181  -0.00066
 134       11PX         0.00036   0.00023  -1.14645   0.00059  -0.24854
 135       11PY        -0.03831  -1.15091  -0.00023   0.02084  -0.00623
 136       11PZ         0.79310  -0.02069   0.00032   3.36041  -0.00020
 137       12D 0        0.06817  -0.00305   0.00000   0.00182   0.00001
 138       12D+1        0.00002  -0.00001   0.03097   0.00000  -0.00360
 139       12D-1        0.00155   0.03054   0.00001  -0.00007  -0.00009
 140       12D+2        0.00026  -0.00769   0.00000   0.00008   0.00031
 141       12D-2        0.00000   0.00001  -0.00769   0.00000   0.01214
 142       13D 0       -0.38846   0.01680  -0.00004  -0.07055  -0.00002
 143       13D+1       -0.00010   0.00002  -0.11379  -0.00002   0.02534
 144       13D-1       -0.00655  -0.11243  -0.00003  -0.00028   0.00064
 145       13D+2       -0.00106   0.01762  -0.00001  -0.00025  -0.00111
 146       13D-2       -0.00001  -0.00003   0.01734   0.00000  -0.04382
 147       14D 0       -1.39468   0.05094  -0.00034  -1.24201   0.00020
 148       14D+1       -0.00049  -0.00004   0.30433  -0.00038  -0.32409
 149       14D-1       -0.00711   0.30777   0.00007  -0.02277  -0.00813
 150       14D+2       -0.00144  -0.06843   0.00002   0.00078   0.00508
 151       14D-2        0.00001   0.00010  -0.06082   0.00000   0.20085
 152       15F 0       -0.04306   0.00167  -0.00001   0.00124   0.00000
 153       15F+1       -0.00002   0.00000   0.00459   0.00000  -0.01851
 154       15F-1       -0.00114   0.00463   0.00000  -0.00074  -0.00046
 155       15F+2       -0.00039  -0.01009   0.00000  -0.00027   0.00026
 156       15F-2        0.00000   0.00001  -0.00924  -0.00001   0.01029
 157       15F+3        0.00000   0.00000   0.00001   0.00001  -0.00029
 158       15F-3       -0.00937  -0.00021   0.00000   0.02294   0.00001
 159       16F 0        0.23348  -0.00884   0.00005   0.08901  -0.00002
 160       16F+1        0.00011  -0.00001  -0.01517   0.00004   0.06292
 161       16F-1        0.00412  -0.01508  -0.00001   0.00420   0.00158
 162       16F+2        0.00215   0.04724   0.00002   0.00035  -0.00107
 163       16F-2       -0.00001  -0.00003   0.04443   0.00001  -0.04214
 164       16F+3        0.00001   0.00001  -0.00006  -0.00002   0.00075
 165       16F-3        0.01949   0.00066   0.00001  -0.04285  -0.00002
 166 6   F  1S          0.04018  -0.00181   0.00001  -0.02260   0.00000
 167        2S          0.14134  -0.00653   0.00003  -0.08582  -0.00001
 168        3S         -0.07203   0.00308  -0.00001   0.03663   0.00000
 169        4S         -0.37933   0.01892  -0.00008  -0.02099   0.00006
 170        5S         -0.05749   0.00367   0.00001  -5.93543   0.00096
 171        6PX         0.00000   0.00000  -0.00737   0.00000   0.00170
 172        6PY        -0.00024  -0.00721   0.00000   0.00005   0.00004
 173        6PZ         0.00539  -0.00021   0.00000   0.00222   0.00000
 174        7PX        -0.00002  -0.00001   0.03798   0.00000  -0.00611
 175        7PY         0.00143   0.03733   0.00001  -0.00019  -0.00015
 176        7PZ        -0.06369   0.00251  -0.00002   0.00264   0.00000
 177        8PX         0.00016   0.00005  -0.26363  -0.00004   0.00079
 178        8PY        -0.01163  -0.26247  -0.00005   0.00047   0.00004
 179        8PZ         0.62912  -0.02345   0.00016  -0.24691   0.00009
 180        9PX         0.00000   0.00018  -0.83418  -0.00043  -0.23104
 181        9PY        -0.04285  -0.84407  -0.00017  -0.00332  -0.00574
 182        9PZ        -0.86619   0.03459   0.00001  -2.49221   0.00046
 183       10D 0        0.01136  -0.00052   0.00001  -0.00797   0.00000
 184       10D+1        0.00001   0.00000  -0.01478   0.00000   0.00216
 185       10D-1       -0.00070  -0.01476   0.00000   0.00003   0.00005
 186       10D+2        0.00014   0.00489   0.00000  -0.00002   0.00007
 187       10D-2        0.00000  -0.00001   0.00497   0.00000   0.00283
 188       11D 0       -0.04201   0.00189  -0.00002   0.01569   0.00000
 189       11D+1       -0.00002  -0.00001   0.04752   0.00000  -0.00370
 190       11D-1        0.00226   0.04743   0.00001  -0.00008  -0.00009
 191       11D+2       -0.00035  -0.01648   0.00000   0.00006  -0.00026
 192       11D-2        0.00000   0.00002  -0.01692   0.00000  -0.01005
 193       12D 0        0.41642  -0.01661   0.00012  -0.01117   0.00003
 194       12D+1        0.00015   0.00001  -0.13828   0.00000  -0.03226
 195       12D-1       -0.00723  -0.13750  -0.00004  -0.00020  -0.00078
 196       12D+2        0.00117   0.06166   0.00002  -0.00034   0.00048
 197       12D-2       -0.00002  -0.00006   0.06321   0.00000   0.01899
 198       13F 0       -0.02738   0.00103   0.00000  -0.00759   0.00000
 199       13F+1       -0.00001   0.00001  -0.01839   0.00000   0.00811
 200       13F-1       -0.00068  -0.01898   0.00000   0.00018   0.00020
 201       13F+2       -0.00033  -0.00905  -0.00001   0.00017   0.00007
 202       13F-2        0.00000   0.00000  -0.00916   0.00000   0.00263
 203       13F+3        0.00000   0.00000   0.00018   0.00000   0.00003
 204       13F-3        0.01271  -0.00055   0.00000  -0.00138   0.00000
 205       14F 0        0.06816  -0.00256   0.00000   0.01182   0.00001
 206       14F+1        0.00002  -0.00002   0.03983   0.00001  -0.01801
 207       14F-1        0.00132   0.04093   0.00000  -0.00034  -0.00044
 208       14F+2        0.00100   0.02523   0.00003  -0.00032  -0.00017
 209       14F-2        0.00000   0.00000   0.02528   0.00000  -0.00641
 210       14F+3       -0.00001   0.00000  -0.00026   0.00000  -0.00005
 211       14F-3       -0.01713   0.00074   0.00000   0.00261   0.00000
                         211
     Eigenvalues --     0.00000
   1 1   C  1S         -0.00195
   2        2S         -0.01112
   3        3S         -0.00114
   4        4S         -0.09663
   5        5S         -0.10864
   6        6PX         0.00019
   7        6PY        -0.00732
   8        6PZ        -0.00004
   9        7PX        -0.03852
  10        7PY         1.52783
  11        7PZ        -0.00082
  12        8PX        -0.43424
  13        8PY        17.32588
  14        8PZ        -0.02612
  15        9PX        -0.19701
  16        9PY         7.88009
  17        9PZ        -0.01827
  18       10D 0       -0.00017
  19       10D+1        0.00004
  20       10D-1       -0.00152
  21       10D+2        0.02170
  22       10D-2       -0.00056
  23       11D 0        0.00280
  24       11D+1        0.00518
  25       11D-1       -0.20734
  26       11D+2        0.40589
  27       11D-2       -0.01074
  28       12D 0       -0.04211
  29       12D+1        0.03209
  30       12D-1       -1.28620
  31       12D+2       -0.56715
  32       12D-2        0.01426
  33       13F 0       -0.00053
  34       13F+1       -0.00096
  35       13F-1        0.03883
  36       13F+2        0.00906
  37       13F-2       -0.00023
  38       13F+3        0.00000
  39       13F-3        0.00072
  40       14F 0        0.00397
  41       14F+1        0.01014
  42       14F-1       -0.40483
  43       14F+2       -0.07522
  44       14F-2        0.00196
  45       14F+3       -0.00005
  46       14F-3       -0.00589
  47 2   H  1S         -0.02642
  48        2S          2.21174
  49        3S         25.96206
  50        4S         11.18076
  51        5PX        -0.00131
  52        5PY        -0.11769
  53        5PZ        -0.01079
  54        6PX         0.01310
  55        6PY         1.32105
  56        6PZ         0.16967
  57        7PX         0.08903
  58        7PY         7.47544
  59        7PZ         0.81676
  60        8D 0       -0.01884
  61        8D+1       -0.00015
  62        8D-1       -0.01607
  63        8D+2       -0.03946
  64        8D-2       -0.00073
  65        9D 0       -0.26512
  66        9D+1        0.00236
  67        9D-1        0.27604
  68        9D+2       -0.28314
  69        9D-2        0.01446
  70 3   H  1S          0.01391
  71        2S         -1.14430
  72        3S        -13.51523
  73        4S         -5.81706
  74        5PX         0.07470
  75        5PY         0.00807
  76        5PZ         0.00528
  77        6PX        -0.81220
  78        6PY        -0.04192
  79        6PZ        -0.08436
  80        7PX        -4.84302
  81        7PY        -0.64232
  82        7PZ        -0.41725
  83        8D 0        0.00947
  84        8D+1        0.00915
  85        8D-1        0.00026
  86        8D+2        0.01088
  87        8D-2        0.03088
  88        9D 0        0.14130
  89        9D+1       -0.16035
  90        9D-1        0.00261
  91        9D+2       -0.49252
  92        9D-2       -0.12494
  93 4   H  1S          0.01274
  94        2S         -1.04701
  95        3S        -12.38510
  96        4S         -5.33124
  97        5PX        -0.07093
  98        5PY         0.01177
  99        5PZ         0.00485
 100        6PX         0.76866
 101        6PY        -0.08222
 102        6PZ        -0.07739
 103        7PX         4.60551
 104        7PY        -0.88178
 105        7PZ        -0.38301
 106        8D 0        0.00865
 107        8D+1       -0.00864
 108        8D-1        0.00073
 109        8D+2        0.01239
 110        8D-2       -0.02969
 111        9D 0        0.12967
 112        9D+1        0.15146
 113        9D-1       -0.00546
 114        9D+2       -0.49880
 115        9D-2        0.14267
 116 5   Cl 1S         -0.00007
 117        2S         -0.00120
 118        3S         -0.00305
 119        4S          0.00052
 120        5S          0.02504
 121        6S          0.05051
 122        7PX         0.00007
 123        7PY        -0.00300
 124        7PZ         0.00012
 125        8PX         0.00147
 126        8PY        -0.05946
 127        8PZ         0.00129
 128        9PX        -0.00025
 129        9PY         0.01006
 130        9PZ        -0.00051
 131       10PX        -0.01055
 132       10PY         0.42186
 133       10PZ        -0.02358
 134       11PX         0.00621
 135       11PY        -0.24933
 136       11PZ        -0.00962
 137       12D 0        0.00017
 138       12D+1        0.00009
 139       12D-1       -0.00362
 140       12D+2        0.01216
 141       12D-2       -0.00031
 142       13D 0       -0.00047
 143       13D+1       -0.00063
 144       13D-1        0.02533
 145       13D+2       -0.04388
 146       13D-2        0.00112
 147       14D 0        0.00419
 148       14D+1        0.00806
 149       14D-1       -0.32408
 150       14D+2        0.20240
 151       14D-2       -0.00515
 152       15F 0       -0.00012
 153       15F+1        0.00046
 154       15F-1       -0.01838
 155       15F+2        0.01042
 156       15F-2       -0.00027
 157       15F+3        0.00001
 158       15F-3        0.00021
 159       16F 0        0.00028
 160       16F+1       -0.00156
 161       16F-1        0.06270
 162       16F+2       -0.04268
 163       16F-2        0.00109
 164       16F+3       -0.00003
 165       16F-3       -0.00058
 166 6   F  1S         -0.00004
 167        2S         -0.00025
 168        3S         -0.00005
 169        4S          0.00235
 170        5S          0.03879
 171        6PX        -0.00004
 172        6PY         0.00169
 173        6PZ         0.00000
 174        7PX         0.00015
 175        7PY        -0.00613
 176        7PZ        -0.00015
 177        8PX        -0.00002
 178        8PY         0.00154
 179        8PZ         0.00383
 180        9PX         0.00578
 181        9PY        -0.22968
 182        9PZ         0.01692
 183       10D 0        0.00001
 184       10D+1       -0.00005
 185       10D-1        0.00222
 186       10D+2        0.00286
 187       10D-2       -0.00007
 188       11D 0        0.00003
 189       11D+1        0.00009
 190       11D-1       -0.00386
 191       11D+2       -0.01010
 192       11D-2        0.00025
 193       12D 0        0.00067
 194       12D+1        0.00080
 195       12D-1       -0.03119
 196       12D+2        0.01917
 197       12D-2       -0.00049
 198       13F 0        0.00004
 199       13F+1       -0.00020
 200       13F-1        0.00801
 201       13F+2        0.00269
 202       13F-2       -0.00006
 203       13F+3        0.00000
 204       13F-3       -0.00004
 205       14F 0        0.00000
 206       14F+1        0.00045
 207       14F-1       -0.01771
 208       14F+2       -0.00645
 209       14F-2        0.00016
 210       14F+3        0.00000
 211       14F-3        0.00005
          Condensed to atoms (all electrons):
              1          2          3          4          5          6
     1  C    7.012158  -0.008088  -0.009834  -0.009834  -0.050893  -0.099838
     2  H   -0.008088   0.546650   0.019868   0.019869  -0.018702   0.004146
     3  H   -0.009834   0.019868   0.547268   0.020471  -0.018761   0.004434
     4  H   -0.009834   0.019869   0.020471   0.547268  -0.018762   0.004433
     5  Cl  -0.050893  -0.018702  -0.018761  -0.018762  17.709253   0.026399
     6  F   -0.099838   0.004146   0.004434   0.004433   0.026399   9.907584
 Mulliken atomic charges:
              1
     1  C   -0.833672
     2  H    0.436257
     3  H    0.436553
     4  H    0.436555
     5  Cl  -0.628534
     6  F   -0.847158
 Sum of Mulliken atomic charges =  -1.00000
 Mulliken charges with hydrogens summed into heavy atoms:
              1
     1  C    0.475693
     5  Cl  -0.628534
     6  F   -0.847158
 Sum of Mulliken charges with hydrogens summed into heavy atoms =  -1.00000
 Electronic spatial extent (au):  <R**2>=            490.3205
 Charge=             -1.0000 electrons
 Dipole moment (field-independent basis, Debye):
    X=             -0.0006    Y=             -0.0249    Z=              4.0659  Tot=              4.0660
 Quadrupole moment (field-independent basis, Debye-Ang):
   XX=            -28.1814   YY=            -28.1816   ZZ=            -62.8201
   XY=              0.0000   XZ=             -0.0050   YZ=             -0.0574
 Traceless Quadrupole moment (field-independent basis, Debye-Ang):
   XX=             11.5463   YY=             11.5461   ZZ=            -23.0923
   XY=              0.0000   XZ=             -0.0050   YZ=             -0.0574
 Octapole moment (field-independent basis, Debye-Ang**2):
  XXX=             -0.0244  YYY=             -1.4243  ZZZ=             49.6851  XYY=             -0.0086
  XXY=              0.7907  XXZ=             -4.2361  XZZ=             -0.0066  YZZ=             -0.1874
  YYZ=             -4.2366  XYZ=             -0.0002
 Hexadecapole moment (field-independent basis, Debye-Ang**3):
 XXXX=            -41.2682 YYYY=            -41.2815 ZZZZ=           -761.6370 XXXY=              0.0001
 XXXZ=             -0.0507 YYYX=             -0.0004 YYYZ=             -0.2409 ZZZX=             -0.0657
 ZZZY=             -0.9721 XXYY=            -13.7570 XXZZ=           -103.3873 YYZZ=           -103.3857
 XXYZ=             -0.9290 YYXZ=             -0.0166 ZZXY=              0.0001
 N-N= 8.498390895160D+01 E-N=-1.604179824136D+03  KE= 5.991954471295D+02
 1\1\GINC-TRAPISTA\SP\RQCISD-FC\Aug-CC-pVTZ\C1H3Cl1F1(1-)\BRUNS\11-Aug-
 2021\0\\# QCISD aug-cc-pvtz nosymm density=current output=wfn\\title l
 ine\\-1,1\C,0,0.000175,0.000029,-0.497709\H,0,0.000019,-1.05257,-0.620
 726\H,0,-0.911312,0.526365,-0.621245\H,0,0.91175,0.526132,-0.62157\Cl,
 0,0.000555,0.010962,1.644718\F,0,-0.000186,-0.000921,-2.59346\\Version
 =EM64L-G09RevB.01\HF=-598.6171219\MP2=-599.2912643\MP3=-599.3099653\MP
 4D=-599.3248558\MP4DQ=-599.3104169\MP4SDQ=-599.3197832\QCISD=-599.3191
 653\RMSD=9.413e-09\Dipole=0.0002718,-0.0001628,1.5871884\Quadrupole=8.
 584367,8.5842264,-17.1685934,-0.0000128,-0.0036923,-0.0426719\PG=C01 [
 X(C1H3Cl1F1)]\\@

 Writing a WFN file to GAUSSIAN+YCl_5.wfn.


 ALL THINGS ARE POSSIBLE EXCEPT SKIING THROUGH A REVOLVING DOOR.
 Job cpu time:  0 days  3 hours 16 minutes 12.1 seconds.
 File lengths (MBytes):  RWF=  29002 Int=      0 D2E=      0 Chk=      4 Scr=      1
 Normal termination of Gaussian 09 at Wed Aug 11 00:03:24 2021.
